   This run of MOLCAS is using the pymolcas driver

                             OPE
                             OPE          NMOL  CASOP  ENMOLC A   SO
                 OPE        NMOLC        AS  OP EN  MO LC     AS  OP
                OPENM       OL CA        SO  PE NM  OL CA     SOP EN
                OP EN      MO   LC       AS  OP ENMOL  CASO   PENMOL
                OP  EN     MO   LC       AS  OP EN     MO     LC ASO
               OP   E  NMOL  C  AS       OP  EN MO     LC     AS  OP
               OP  E   NMO   LC AS        OPEN  MO     LCASOP EN   M
               O  PEN   MO  LCA  SO
            OPE   NMO   L   CAS    OP
        OPENMOL  CASOP     ENMOL   CASOPE
     OPENMOLCA   SOPENMOLCASOPEN   MOLCASOPE
    OPENMOLCAS   OP           EN   MOL    CAS
    OPENMOLCAS       OP  ENM        O     LCA
    OPENMOLCAS    OPEN  MOLCASO     P  E  NMO
    OPENMOLCAS     OP               E  N  MOL
    OPENMOLCA   SO           PENM   O  L  CAS    OPEN    MO    LCAS
    OPENMOLCA   SOP           ENM   O  L  CAS   OP  EN  MOLC  AS   O
    OPENMOLCA   SOPE           NM      O  LCA   S      OP  EN MO
    OPENMOLC                AS         O  PEN   M      OL  CA  SOPE
    OPENMO        LCASOPE  NMOL        C  ASO   P      ENMOLC     AS
    OPE     NMO      LCA  SO     P     E   NM   OL  CA SO  PE N   MO
          OPENMOLCA            SOPE   NMO        LCAS  O    P  ENMO
     OPENMOLCASOPENMOLCASOPENMOLCASOPENMOLCA
        OPENMOLCASOPENMOLCASOPENMOLCASOPE
            OPENMOLCASOPENMOLCASOPENM
               OPENMOLCASOPENMOLCA        version: ea724fe96-dirty
                   OPENMOLCASO
                       OPE                tag:

 OpenMolcas is free software; you can redistribute it and/or modify it
 under the terms of the GNU Lesser General Public License version 2.1.
 OpenMolcas is distributed in the hope that it will be useful, but it
 is provided "as is" and without any express or implied warranties.
 For more details see the full text of the license in the file
 LICENSE or in <http://www.gnu.org/licenses/>.

                 Copyright (C) The OpenMolcas Authors
           For the author list and the recommended citation,
                   consult the file CONTRIBUTORS.md

           *************************************************
           * pymolcas version py2.28                       *
           *   build c4a6d18ded8cb6cad61d2372a9abd97c      *
           *   (after the EMIL interpreter by V. Veryazov) *
           *************************************************

configuration info
------------------
C Compiler ID: Intel
C flags: -std=gnu99
Fortran Compiler ID: Intel
Fortran flags: -fpp -i8 -r8 -heap-arrays
Definitions: _MOLCAS_;_I8_;_LINUX_
Parallel: OFF (GA=OFF)


   -------------------------------------------------------------------------------
  |
  |              Project: 2.00
  |       Submitted from: /home/grierjones/DDCASPT2/iron_oxo_DDCASPT2/cluster/2.00
  |         Scratch area: /tmp/2.00
  |      Save outputs to: /home/grierjones/DDCASPT2/iron_oxo_DDCASPT2/cluster/2.00
  |               Molcas: /home/grierjones/Test/build
  |
  | Scratch area is empty
  |
  |       MOLCAS_DRIVER = /usr/local/pymolcas
  | MOLCAS_KEEP_WORKDIR = NO
  |  MOLCAS_NEW_WORKDIR = YES
  |       MOLCAS_NPROCS = 1
  |        MOLCAS_PRINT = NORMAL
  |       MOLCAS_SOURCE = /home/grierjones/Test/build
  |    MOLCAS_STRUCTURE = 0
  |
   -------------------------------------------------------------------------------

++ ---------   Input file   ---------

&GATEWAY
coord=2.00.xyz
Basis = ANO-RCC-VDZP
Group = nosymm
Expert
End of Input

&SEWARD
End of Input

&SCF
UHF
charge
2
spin
5

>>> COPY $WorkDir/2.00.scf.h5 $CurrDir/

&RASSCF
Title= RASSCF
FileOrb
/home/grierjones/DDCASPT2/iron_oxo_DDCASPT2/cluster/1.98/1.98.RasOrb
NACTEL
10 0 0
RAS2
14
Symmetry
1
Spin
5
charge
2
orblisting
all
ITERation
300 200

>>> COPY $WorkDir/2.00.rasscf.h5 $CurrDir/

>>> COPY $WorkDir/GMJ_Fock_MO.csv $CurrDir/2.00.GMJ_Fock_MO.csv

>>> COPY $WorkDir/GMJ_PT2_Fock_MO.csv $CurrDir/2.00.GMJ_PT2_Fock_MO.csv

&MOTRA
Frozen=0
LUMORB

>>> COPY $WorkDir/GMJ_one_int_indx.csv $CurrDir/2.00.GMJ_one_int_indx.csv

>>> COPY $WorkDir/GMJ_one_int.csv $CurrDir/2.00.GMJ_one_int.csv

>>> COPY $WorkDir/GMJ_two_int_indx.csv $CurrDir/2.00.GMJ_two_int_indx.csv

>>> COPY $WorkDir/GMJ_two_int.csv $CurrDir/2.00.GMJ_two_int.csv

&CASPT2
Frozen
0
MAXITER
50

>>> FOREACH i IN (B,E,F,G,H)

  >>> FOREACH j IN (P,M)

    >>> IF (-FILE GMJ_e2_${i}_${j}.csv)

      >>> COPY $WorkDir/GMJ_RHS_${i}_${j}.csv $CurrDir/GMJ_RHS_${i}_${j}.csv

      >>> COPY $WorkDir/GMJ_IVECW_${i}_${j}.csv $CurrDir/GMJ_IVECW_${i}_${j}.csv

      >>> COPY $WorkDir/GMJ_IVECX_${i}_${j}.csv $CurrDir/GMJ_IVECX_${i}_${j}.csv

      >>> COPY $WorkDir/GMJ_IVECC2_${i}_${j}.csv $CurrDir/GMJ_IVECC2_${i}_${j}.csv

      >>> COPY $WorkDir/GMJ_e2_${i}_${j}.csv $CurrDir/GMJ_e2_${i}_${j}.csv

    >>> END IF

  >>> END FOREACH

>>> END FOREACH

>>> FOREACH i IN (A,C,D)

  >>> IF (-FILE GMJ_e2_$i.csv)

    >>> COPY $WorkDir/GMJ_RHS_$i.csv $CurrDir/GMJ_RHS_$i.csv

    >>> COPY $WorkDir/GMJ_IVECW_$i.csv $CurrDir/GMJ_IVECW_$i.csv

    >>> COPY $WorkDir/GMJ_IVECX_$i.csv $CurrDir/GMJ_IVECX_$i.csv

    >>> COPY $WorkDir/GMJ_IVECC2_$i.csv $CurrDir/GMJ_IVECC2_$i.csv

    >>> COPY $WorkDir/GMJ_e2_$i.csv $CurrDir/GMJ_e2_$i.csv

  >>> END IF

>>> END FOREACH

-- ----------------------------------

--- Start Module: gateway at Sun Dec 22 16:34:18 2024 ---
 
()()()()()()()()()()()()()()()()()()()()()()()()()()()()()()()()()()()()()()()()()()()()()()()()()()

                                              &GATEWAY

                                   only a single process is used
                       available to each process: 2.0 GB of memory, 1 thread?
()()()()()()()()()()()()()()()()()()()()()()()()()()()()()()()()()()()()()()()()()()()()()()()()()()
 
 ###############################################################################
 ###############################################################################
 ###                                                                         ###
 ###                                                                         ###
 ###                                                                         ###
 ###    WARNING: EXPERT option is ON!                                        ###
 ###                                                                         ###
 ###                                                                         ###
 ###############################################################################
 ###############################################################################
 
++    Symmetry information:
      ---------------------
 
                    Character Table for C1 
 
                             E  
                    a        1  x, y, xy, Rz, z, xz, Ry, yz, Rx, I
--
 
 
++    Basis set information:
      ----------------------
 
 
      Basis set label: O.ANO-RCC...3S2P1D.
 
      Electronic valence basis set:
      ------------------
      Associated Effective Charge   8.000000 au
      Associated Actual Charge      8.000000 au
      Nuclear Model: Point charge
 
      Shell  nPrim  nBasis  Cartesian Spherical Contaminant
         s      14       3        X                  
         p       9       2        X                  
         d       4       1                 X         
 
 
      Basis set label: FE.ANO-RCC...5S4P2D1F.
 
      Electronic valence basis set:
      ------------------
      Associated Effective Charge  26.000000 au
      Associated Actual Charge     26.000000 au
      Nuclear Model: Point charge
 
      Shell  nPrim  nBasis  Cartesian Spherical Contaminant
         s      21       5        X                  
         p      15       4        X                  
         d      10       2                 X         
         f       6       1                 X         
--
 
 
++    Molecular structure info:
      -------------------------
 
                    ************************************************ 
                    **** Cartesian Coordinates / Bohr, Angstrom **** 
                    ************************************************ 
 
     Center  Label                x              y              z                     x              y              z
        1      O1               0.000000       0.000000       3.396972              0.000000       0.000000       1.797600
        2      FE2              0.000000       0.000000      -0.373410              0.000000       0.000000      -0.197600
--
 
 
            Nuclear Potential Energy             55.16683030 au
 
 ###############################################################################
 ###############################################################################
 ###                                                                         ###
 ###                                                                         ###
 ###    There were warnings during the execution                             ###
 ###    Please, check the output with care!                                  ###
 ###                                                                         ###
 ###                                                                         ###
 ###############################################################################
 ###############################################################################
--- Stop Module: gateway at Sun Dec 22 16:34:18 2024 /rc=_RC_ALL_IS_WELL_ ---
*** files: xmldump
    saved to directory /home/grierjones/DDCASPT2/iron_oxo_DDCASPT2/cluster/2.00

--- Start Module: seward at Sun Dec 22 16:34:18 2024 ---
 
()()()()()()()()()()()()()()()()()()()()()()()()()()()()()()()()()()()()()()()()()()()()()()()()()()

                                              &SEWARD

                                   only a single process is used
                       available to each process: 2.0 GB of memory, 1 thread?
()()()()()()()()()()()()()()()()()()()()()()()()()()()()()()()()()()()()()()()()()()()()()()()()()()
 
 ###############################################################################
 ###############################################################################
 ###                                                                         ###
 ###                                                                         ###
 ###                                                                         ###
 ###    WARNING: EXPERT option is ON!                                        ###
 ###                                                                         ###
 ###                                                                         ###
 ###############################################################################
 ###############################################################################
               SEWARD will generate:
                  Multipole Moment integrals up to order  2
                  Kinetic Energy integrals
                  Nuclear Attraction integrals (point charge)
                  One-Electron Hamiltonian integrals
                  Velocity integrals
                  Relativistic Douglas-Kroll-Hess integrals:
                    - Parametrization         : EXP
                    - DKH order of Hamiltonian: 2
                    - DKH order of Properties : 0
                         - multipole moment operators
                         - electric potential operators
                         - contact operators
                  Atomic mean-field integrals
                  Two-Electron Repulsion integrals
 
                   Integrals are discarded if absolute value <: 0.10E-13
                   Integral cutoff threshold is set to       <: 0.10E-15
 
            Nuclear Potential Energy             55.16683030 au
 
 
      Basis set specifications :
      Symmetry species         a  
      Basis functions           48
 
 
  Input file to MOLDEN was generated!
 
 ###############################################################################
 ###############################################################################
 ###                                                                         ###
 ###                                                                         ###
 ###    There were warnings during the execution                             ###
 ###    Please, check the output with care!                                  ###
 ###                                                                         ###
 ###                                                                         ###
 ###############################################################################
 ###############################################################################
--- Stop Module: seward at Sun Dec 22 16:34:19 2024 /rc=_RC_ALL_IS_WELL_ ---
*** files: 2.00.GssOrb 2.00.guessorb.h5 2.00.guessorb.molden xmldump
    saved to directory /home/grierjones/DDCASPT2/iron_oxo_DDCASPT2/cluster/2.00
--- Module seward spent 1 second ---

*** symbolic link created: INPORB -> 2.00.GssOrb
--- Start Module: scf at Sun Dec 22 16:34:19 2024 ---
 
()()()()()()()()()()()()()()()()()()()()()()()()()()()()()()()()()()()()()()()()()()()()()()()()()()

                                                &SCF

                                   only a single process is used
                       available to each process: 2.0 GB of memory, 1 thread?
()()()()()()()()()()()()()()()()()()()()()()()()()()()()()()()()()()()()()()()()()()()()()()()()()()
 
 *** Possible bug in opening file
 *** isFreeUnit resets the unit number
++    Input section:
      --------------
 
      Header of the integral files:
      
       Integrals generated by seward 4.2.0  , Sun Dec 22 16:34:18 2024
 
 
      Cartesian coordinates in Angstrom:
      -----------------------------------------------------
      No.  Label        X            Y            Z        
      -----------------------------------------------------
       1   O1         0.00000000   0.00000000   1.79760000
       2   FE2        0.00000000   0.00000000  -0.19760000
      -----------------------------------------------------
      Nuclear repulsion energy =   55.16683030
--
 
++    Orbital specifications:
      -----------------------
 
      Symmetry species               1
                                     a
      Frozen orbitals                0
      Start temperature = 0.500
      End temperature   = 0.010
      Temperature Factor= 0.460
      Deleted orbitals               0
      Total number of orbitals      48
      Number of basis functions     48
--
 
      Molecular charge                           2.000
 
++    Optimization specifications:
      ----------------------------
 
      SCF Algorithm: Conventional USCF
      D(i)-D(i-1) density differences are used
      Number of density matrices in core                5
      Maximum number of NDDO SCF iterations           400
      Maximum number of HF SCF iterations             400
      Threshold for SCF energy change            0.10E-08
      Threshold for density matrix               0.10E-03
      Threshold for Fock matrix                  0.15E-03
      Threshold for linear dependence            0.10E-08
      Threshold at which DIIS is turned on       0.15E+00
      Threshold at which QNR/C2DIIS is turned on 0.75E-01
      Threshold for Norm(delta) (QNR/C2DIIS)     0.20E-04
      DIIS extrapolation of the SCF procedure
      All orbitals punched on: UHFORB
--
 
      Input vectors read from INPORB
      Orbital file label: *Guess orbitals
 
 
++ Convergence information
                               UHF SCF        iterations: Energy and convergence statistics
 
Iter     Tot. SCF        One-elec.       Two-elec.     Energy      Max Dij or  Max Fij      DNorm      TNorm      AccCon     Time
         Energy          Energy          Energy        Change      Delta Norm                                                in Sec.
 
 The total and one-electron energies are shifted by a value of      1000. a.u.
 
   1  -343.077824840  -938.979619073   540.734963931   0.00E+00    0.14E+00*   0.92E+00*    0.76E+01   0.19E+03   None         0.
   2  -343.464985742  -935.786405843   537.154589798  -0.39E+00*   0.21E+00*   0.26E+00*    0.13E+01   0.19E+03   EDIIS        0.
   3  -341.919021281  -980.387486386   583.301634803   0.15E+01*   0.98E-01*   0.19E+00*    0.20E+01   0.19E+03   EDIIS        0.
   4  -343.886500451  -929.949728519   530.896397766  -0.20E+01*   0.27E+00*   0.16E+00*    0.16E+01   0.18E+03   EDIIS        0.
   5  -344.624335208  -954.261670901   554.470505391  -0.74E+00*   0.50E+00*   0.16E+00*    0.16E+01   0.19E+03   EDIIS        0.
   6  -344.879201062  -938.104691226   538.058659861  -0.25E+00*   0.28E+00*   0.29E+00*    0.13E+01   0.19E+03   EDIIS        0.
   7  -344.963038939  -950.398652408   550.268783166  -0.84E-01*   0.26E+00*   0.88E-01*    0.88E+00   0.19E+03   EDIIS        0.
   8  -345.062720212  -942.682486471   542.452935956  -0.10E+00*   0.14E+00*   0.79E-01*    0.49E+00   0.19E+03   EDIIS        0.
   9  -345.060635796  -945.963323132   545.735857034   0.21E-02*   0.15E+00*   0.64E-01*    0.51E+00   0.19E+03   EDIIS        0.
  10  -345.089639825  -943.251252681   542.994782554  -0.29E-01*   0.89E-01*   0.31E-01*    0.28E+00   0.19E+03   EDIIS        0.
  11  -345.204819919  -943.686649167   543.314998946  -0.12E+00*   0.20E+00*   0.55E-01*    0.92E+00   0.19E+03   EDIIS        0.
  12  -345.241563525  -942.871191844   542.462798016  -0.37E-01*   0.18E+00*   0.74E-01*    0.43E+00   0.19E+03   EDIIS        0.
  13  -345.248095602  -944.503665636   544.088739732  -0.65E-02*   0.13E+00*   0.66E-01*    0.47E+00   0.19E+03   EDIIS        0.
 
       Fermi aufbau procedure completed!
      nOcc(alpha)=   18
      nOcc(beta) =   14
 
  14  -345.257109152  -943.048163615   542.624224160  -0.90E-02*   0.11E+00*   0.24E-01*    0.27E+00   0.19E+03   EDIIS        0.
  15  -345.260652655  -944.273212983   543.845730026  -0.35E-02*   0.76E-01*   0.24E-01*    0.27E+00   0.19E+03   EDIIS        0.
  16  -345.263314738  -943.347673413   542.917528373  -0.27E-02*   0.71E-01*   0.15E-01*    0.17E+00   0.19E+03   EDIIS        0.
  17  -345.264861269  -944.121870230   543.690178658  -0.15E-02*   0.56E-01*   0.13E-01*    0.16E+00   0.19E+03   EDIIS        0.
  18  -345.265809325  -943.559620237   543.126980610  -0.95E-03*   0.26E-01*   0.67E-02*    0.11E+00   0.19E+03   c2DIIS       0.
  19  -345.266762381  -943.882458404   543.448865720  -0.95E-03*   0.49E-01*   0.68E-02*    0.69E-01   0.19E+03   QNRc2DIIS    0.
  20  -345.267320207  -943.850564423   543.416413914  -0.56E-03*   0.73E+00*   0.56E-02*    0.61E-01   0.19E+03   QNRc2DIIS    0.
  21  -345.266019770  -945.186470780   544.753620707   0.13E-02*   0.49E+00*   0.25E-01*    0.91E+00   0.19E+03   QNRc2DIIS    0.
  22  -345.269937864  -944.153776300   543.717008134  -0.39E-02*   0.51E+00*   0.80E-02*    0.62E+00   0.19E+03   QNRc2DIIS    0.
  23  -345.265003047  -943.620358999   543.188525649   0.49E-02*   0.27E+00*   0.59E-02*    0.62E+00   0.19E+03   QNRc2DIIS    0.
  24  -345.267413178  -943.770982542   543.336739061  -0.24E-02*   0.86E-01*   0.59E-02*    0.33E+00   0.19E+03   QNRc2DIIS    0.
  25  -345.267807430  -943.732891714   543.298253982  -0.39E-03*   0.29E+00*   0.68E-02*    0.11E+00   0.19E+03   QNRc2DIIS    0.
  26  -345.268197587  -943.915719954   543.480692064  -0.39E-03*   0.92E-01*   0.95E-02*    0.37E+00   0.19E+03   QNRc2DIIS    0.
  27  -345.269005450  -943.757116659   543.321280907  -0.81E-03*   0.98E-01*   0.69E-02*    0.12E+00   0.19E+03   QNRc2DIIS    0.
  28  -345.269296132  -943.916320699   543.480194265  -0.29E-03*   0.30E-01*   0.37E-02*    0.12E+00   0.19E+03   QNRc2DIIS    0.
  29  -345.269336555  -943.856859000   543.420692142  -0.40E-04*   0.69E-01*   0.23E-02*    0.37E-01   0.19E+03   QNRc2DIIS    0.
  30  -345.269293879  -943.767944469   543.331820288   0.43E-04*   0.67E-01*   0.38E-02*    0.84E-01   0.19E+03   QNRc2DIIS    0.
  31  -345.269370916  -943.877748517   543.441547298  -0.77E-04*   0.14E-01*   0.10E-02*    0.81E-01   0.19E+03   QNRc2DIIS    0.
  32  -345.269385168  -943.899006536   543.462791065  -0.14E-04*   0.66E-02*   0.63E-03*    0.19E-01   0.19E+03   QNRc2DIIS    0.
  33  -345.269385571  -943.893108985   543.456893111  -0.40E-06*   0.24E-02*   0.25E-03*    0.88E-02   0.19E+03   QNRc2DIIS    0.
  34  -345.269385910  -943.894200158   543.457983946  -0.34E-06*   0.10E-01*   0.28E-03*    0.30E-02   0.19E+03   QNRc2DIIS    0.
  35  -345.269387205  -943.891880573   543.455663065  -0.13E-05*   0.43E-01*   0.79E-03*    0.13E-01   0.19E+03   QNRc2DIIS    0.
  36  -345.269380976  -943.888823220   543.452611942   0.62E-05*   0.54E-01*   0.29E-02*    0.52E-01   0.19E+03   QNRc2DIIS    0.
  37  -345.269385739  -943.897905033   543.461688992  -0.48E-05*   0.38E-03*   0.27E-03*    0.66E-01   0.19E+03   QNRc2DIIS    0.
  38  -345.269385833  -943.896550458   543.460334322  -0.95E-07*   0.53E-02*   0.23E-03*    0.51E-03   0.19E+03   QNRc2DIIS    0.
  39  -345.269385789  -943.897554609   543.461338518   0.44E-07*   0.13E-02*   0.34E-04     0.65E-02   0.19E+03   QNRc2DIIS    0.
  40  -345.269385812  -943.898609157   543.462393043  -0.23E-07*   0.16E-02*   0.74E-04     0.16E-02   0.19E+03   QNRc2DIIS    0.
  41  -345.269385802  -943.898029208   543.461813103   0.10E-07*   0.56E-02*   0.25E-04     0.19E-02   0.19E+03   QNRc2DIIS    0.
  42  -345.269385754  -943.899588885   543.463372829   0.49E-07*   0.46E-02*   0.27E-03*    0.68E-02   0.19E+03   QNRc2DIIS    0.
  43  -345.269385805  -943.898361281   543.462145174  -0.51E-07*   0.32E-04*   0.45E-04     0.56E-02   0.19E+03   QNRc2DIIS    0.
  44  -345.269385805  -943.898373753   543.462157645  -0.42E-10    0.98E-05    0.46E-04     0.38E-04   0.19E+03   QNRc2DIIS    0.
 
       Convergence after 44 Macro Iterations
--
 
 *****************************************************************************************************************************
 *                                                                                                                           *
 *                                             SCF/KS-DFT Program, Final results                                             *
 *                                                                                                                           *
 *                                                                                                                           *
 *                                                                                                                           *
 *                                                       Final Results                                                       *
 *                                                                                                                           *
 *****************************************************************************************************************************
 
::    Total SCF energy                              -1345.2693858050
      One-electron energy                           -1943.8983737525
      Two-electron energy                             543.4621576451
      Nuclear repulsion energy                         55.1668303024
      Kinetic energy (interpolated)                  1399.6750926178
      Virial theorem                                    0.9611297600
      Total spin, S(S+1)                                7.0496831402
      Total spin, S                                     2.2017925791
      Max non-diagonal density matrix element           0.0000052240
      Max non-diagonal Fock matrix element              0.0000461468
 
 
      All orbitals with orbital energies smaller than  E(LUMO)+0.5 are printed
 
++    Molecular orbitals:
      -------------------
 
      Title: UHF orbitals (alpha)

      Molecular orbitals for symmetry species 1: a  
 
          Orbital            1         2         3         4         5         6         7         8         9        10    
          Energy         -264.5426  -33.4056  -28.4748  -28.4746  -28.4681  -21.1224   -5.3514   -3.9029   -3.9021   -3.8870
          Occ. No.          1.0000    1.0000    1.0000    1.0000    1.0000    1.0000    1.0000    1.0000    1.0000    1.0000
 
        1 O1     1s        -0.0000    0.0000    0.0000    0.0000   -0.0000    1.0000    0.0004    0.0000   -0.0000    0.0005
        2 O1     2s        -0.0000    0.0001   -0.0000   -0.0000    0.0001   -0.0008    0.0040    0.0000   -0.0000    0.0089
        3 O1     3s        -0.0000    0.0001   -0.0000   -0.0000    0.0001    0.0003    0.0027    0.0000   -0.0000    0.0037
        4 O1     2px       -0.0000    0.0000   -0.0001    0.0000   -0.0000   -0.0000   -0.0000    0.0013   -0.0001    0.0000
        5 O1     3px        0.0000   -0.0000   -0.0002    0.0000    0.0000    0.0000   -0.0000    0.0014   -0.0001   -0.0000
        6 O1     2py        0.0000   -0.0000   -0.0000   -0.0001    0.0000    0.0000    0.0000    0.0001    0.0013    0.0000
        7 O1     3py        0.0000   -0.0000   -0.0000   -0.0002   -0.0000    0.0000    0.0000    0.0001    0.0014    0.0000
        8 O1     2pz        0.0000   -0.0001    0.0000    0.0000   -0.0002   -0.0007   -0.0029    0.0000    0.0000   -0.0063
        9 O1     3pz        0.0000   -0.0001    0.0000    0.0000   -0.0003    0.0001   -0.0023   -0.0000    0.0000   -0.0015
       10 O1     3d2-      -0.0000    0.0000    0.0000   -0.0000    0.0000   -0.0001   -0.0000   -0.0000   -0.0000   -0.0000
       11 O1     3d1-      -0.0000   -0.0000   -0.0000   -0.0000    0.0000   -0.0000    0.0000   -0.0000   -0.0006   -0.0000
       12 O1     3d0       -0.0000    0.0000   -0.0000   -0.0000    0.0002    0.0003    0.0005   -0.0000   -0.0000    0.0006
       13 O1     3d1+      -0.0000   -0.0000   -0.0000    0.0000   -0.0000    0.0000   -0.0000   -0.0006    0.0000   -0.0000
       14 O1     3d2+      -0.0000    0.0000   -0.0000   -0.0000    0.0000   -0.0008   -0.0000    0.0000    0.0000   -0.0001
       15 FE2    1s         1.0000   -0.0000    0.0000   -0.0000    0.0000   -0.0000   -0.0000   -0.0000    0.0000   -0.0000
       16 FE2    2s         0.0000    1.0000    0.0000   -0.0000    0.0005   -0.0000   -0.0036   -0.0000    0.0000   -0.0003
       17 FE2    3s        -0.0000    0.0034    0.0000    0.0000   -0.0001   -0.0001    0.9989   -0.0000   -0.0000    0.0038
       18 FE2    4s         0.0000   -0.0005    0.0000    0.0000   -0.0002   -0.0003   -0.0088    0.0000    0.0000   -0.0069
       19 FE2    5s        -0.0000    0.0004   -0.0000   -0.0000    0.0002   -0.0000    0.0069    0.0000   -0.0000    0.0031
       20 FE2    2px       -0.0000   -0.0000    0.9978   -0.0655   -0.0000   -0.0000   -0.0000   -0.0033    0.0002    0.0000
       21 FE2    3px        0.0000    0.0000    0.0033   -0.0002   -0.0000   -0.0000   -0.0000    0.9975   -0.0655   -0.0000
       22 FE2    4px       -0.0000   -0.0000   -0.0005    0.0000   -0.0000   -0.0000    0.0000   -0.0177    0.0012    0.0000
       23 FE2    5px       -0.0000    0.0000    0.0014   -0.0001   -0.0000   -0.0000    0.0000    0.0140   -0.0009   -0.0000
       24 FE2    2py       -0.0000    0.0000    0.0655    0.9978    0.0000   -0.0000   -0.0000   -0.0002   -0.0033   -0.0000
       25 FE2    3py       -0.0000    0.0000    0.0002    0.0033    0.0000   -0.0000    0.0000    0.0655    0.9975    0.0000
       26 FE2    4py       -0.0000    0.0000   -0.0000   -0.0005   -0.0000   -0.0000   -0.0000   -0.0012   -0.0180   -0.0000
       27 FE2    5py       -0.0000    0.0000    0.0001    0.0014    0.0000   -0.0000   -0.0000    0.0009    0.0142    0.0000
       28 FE2    2pz       -0.0000   -0.0005   -0.0000   -0.0000    1.0000   -0.0000   -0.0001    0.0000    0.0000   -0.0034
       29 FE2    3pz        0.0000   -0.0000   -0.0000   -0.0000    0.0032   -0.0001   -0.0059   -0.0000   -0.0000    0.9985
       30 FE2    4pz        0.0000   -0.0001    0.0000    0.0000   -0.0007   -0.0004   -0.0042    0.0000    0.0000   -0.0232
       31 FE2    5pz        0.0000    0.0000   -0.0000   -0.0000    0.0014   -0.0001    0.0021   -0.0000   -0.0000    0.0162
       32 FE2    3d2-       0.0000    0.0000    0.0000   -0.0000   -0.0000    0.0000    0.0000    0.0000   -0.0000    0.0000
       33 FE2    4d2-      -0.0000   -0.0000   -0.0000   -0.0000    0.0000    0.0000   -0.0000   -0.0000    0.0000    0.0000
       34 FE2    3d1-      -0.0000   -0.0000   -0.0000   -0.0000    0.0000   -0.0000   -0.0000   -0.0003   -0.0045   -0.0000
       35 FE2    4d1-      -0.0000    0.0000    0.0000    0.0001    0.0000   -0.0000    0.0000   -0.0000   -0.0012   -0.0000
       36 FE2    3d0        0.0000   -0.0001   -0.0000    0.0000   -0.0001   -0.0001   -0.0033    0.0000    0.0000   -0.0046
       37 FE2    4d0        0.0000    0.0000    0.0000    0.0000   -0.0000   -0.0002   -0.0017    0.0000    0.0000   -0.0035
       38 FE2    3d1+      -0.0000    0.0000   -0.0000    0.0000   -0.0000    0.0000    0.0000   -0.0048    0.0003   -0.0000
       39 FE2    4d1+      -0.0000   -0.0000    0.0001   -0.0000   -0.0000   -0.0000   -0.0000   -0.0007    0.0001    0.0000
       40 FE2    3d2+       0.0000    0.0000   -0.0000   -0.0000   -0.0000    0.0000    0.0002   -0.0000   -0.0000    0.0000
       41 FE2    4d2+      -0.0000   -0.0000    0.0000    0.0000    0.0000    0.0000   -0.0000    0.0000    0.0000    0.0001
       42 FE2    4f3-       0.0000   -0.0000    0.0000    0.0000    0.0000   -0.0000    0.0000    0.0000    0.0001    0.0000
       43 FE2    4f2-       0.0000   -0.0000   -0.0000   -0.0000   -0.0000    0.0000    0.0000   -0.0000    0.0000    0.0000
       44 FE2    4f1-       0.0000    0.0000   -0.0000    0.0000   -0.0000   -0.0000    0.0000   -0.0001   -0.0013   -0.0000
       45 FE2    4f0        0.0000   -0.0000   -0.0000    0.0000   -0.0001   -0.0001   -0.0001    0.0000    0.0000   -0.0031
       46 FE2    4f1+       0.0000   -0.0000   -0.0000   -0.0000   -0.0000    0.0000   -0.0000   -0.0013    0.0001    0.0000
       47 FE2    4f2+       0.0000   -0.0000    0.0000    0.0000   -0.0000    0.0000    0.0000    0.0000    0.0000    0.0001
       48 FE2    4f3+      -0.0000    0.0000    0.0000   -0.0000   -0.0000    0.0000   -0.0000    0.0001   -0.0000   -0.0000
 
          Orbital           11        12        13        14        15        16        17        18        19        20    
          Energy           -1.6688   -1.5908   -1.5908   -1.5826   -1.5816   -1.5486   -0.9985   -0.9579   -0.5882   -0.4668
          Occ. No.          1.0000    1.0000    1.0000    1.0000    1.0000    1.0000    1.0000    1.0000    0.0000    0.0000
 
        1 O1     1s        -0.0045    0.0000   -0.0001    0.0000   -0.0000   -0.0056   -0.0000   -0.0206   -0.0017    0.0000
        2 O1     2s         0.8565   -0.0000    0.0096    0.0000   -0.0000   -0.4542   -0.0000   -0.3006   -0.0410    0.0000
        3 O1     3s        -0.0062    0.0000   -0.0002    0.0000   -0.0000   -0.0201   -0.0000   -0.0277   -0.0179    0.0000
        4 O1     2px       -0.0000   -0.0000   -0.0000   -0.0013   -0.0011    0.0000   -0.0640    0.0000   -0.0000    0.3205
        5 O1     3px        0.0000    0.0000    0.0000    0.0008    0.0105   -0.0000    0.0001    0.0000   -0.0000    0.0366
        6 O1     2py        0.0000   -0.0000    0.0000    0.0203   -0.0001    0.0000    0.9757   -0.0000    0.0000    0.0210
        7 O1     3py       -0.0000    0.0000   -0.0000   -0.0120    0.0007   -0.0000   -0.0008   -0.0000    0.0000    0.0024
        8 O1     2pz       -0.0794    0.0000   -0.0006   -0.0000    0.0000   -0.0050   -0.0000   -0.6934    0.5311    0.0000
        9 O1     3pz       -0.0124    0.0000   -0.0001   -0.0000    0.0000    0.0254    0.0000   -0.0084    0.0781    0.0000
       10 O1     3d2-      -0.0028   -0.0005   -0.0001   -0.0000    0.0000    0.0014    0.0000    0.0005    0.0000   -0.0000
       11 O1     3d1-      -0.0000   -0.0000   -0.0000    0.0000   -0.0000    0.0000   -0.0282    0.0000   -0.0000   -0.0010
       12 O1     3d0        0.0224   -0.0000    0.0003    0.0000   -0.0000   -0.0072    0.0000    0.0286   -0.0138   -0.0000
       13 O1     3d1+       0.0000   -0.0000    0.0000   -0.0000   -0.0007   -0.0000    0.0018   -0.0000    0.0000   -0.0157
       14 O1     3d2+      -0.0213    0.0001   -0.0007   -0.0000    0.0000    0.0103    0.0000    0.0040    0.0003    0.0000
       15 FE2    1s        -0.0006    0.0000   -0.0000   -0.0000    0.0000    0.0004   -0.0000   -0.0010    0.0014    0.0000
       16 FE2    2s        -0.0042    0.0000   -0.0000   -0.0000    0.0000    0.0030   -0.0000   -0.0072    0.0107    0.0000
       17 FE2    3s        -0.0258    0.0000   -0.0005   -0.0000    0.0000    0.0189   -0.0000   -0.0349    0.0589    0.0000
       18 FE2    4s         0.0384   -0.0000    0.0015    0.0000    0.0000   -0.0185    0.0000    0.5141    0.8270    0.0000
       19 FE2    5s        -0.0210    0.0000   -0.0009   -0.0000    0.0000    0.0189   -0.0000   -0.2059   -0.2288   -0.0000
       20 FE2    2px       -0.0000   -0.0000   -0.0000   -0.0000   -0.0001    0.0000    0.0000   -0.0000    0.0000    0.0000
       21 FE2    3px       -0.0000   -0.0000   -0.0000   -0.0003   -0.0049   -0.0000    0.0010   -0.0000    0.0000    0.0070
       22 FE2    4px        0.0000   -0.0000    0.0000    0.0002    0.0005   -0.0000   -0.0048    0.0000   -0.0000    0.8712
       23 FE2    5px        0.0000   -0.0000   -0.0000   -0.0004   -0.0055   -0.0000    0.0004   -0.0000    0.0000    0.0370
       24 FE2    2py        0.0000    0.0000    0.0000    0.0001   -0.0000    0.0000   -0.0006    0.0000   -0.0000    0.0000
       25 FE2    3py       -0.0000   -0.0000    0.0000    0.0043   -0.0003    0.0000   -0.0147    0.0000   -0.0000    0.0005
       26 FE2    4py       -0.0000   -0.0000   -0.0000   -0.0024    0.0000    0.0000    0.0728   -0.0000    0.0000    0.0572
       27 FE2    5py        0.0000   -0.0000    0.0000    0.0062   -0.0004    0.0000   -0.0068    0.0000   -0.0000    0.0024
       28 FE2    2pz       -0.0011    0.0000   -0.0000   -0.0000    0.0000    0.0007   -0.0000   -0.0015    0.0019    0.0000
       29 FE2    3pz       -0.0311    0.0000   -0.0003   -0.0000    0.0000    0.0197   -0.0000   -0.0289    0.0368    0.0000
       30 FE2    4pz        0.0358   -0.0000    0.0009   -0.0000    0.0000   -0.0065    0.0000    0.1586   -0.3970   -0.0000
       31 FE2    5pz       -0.0052    0.0000   -0.0003   -0.0000   -0.0000    0.0115   -0.0000   -0.0105   -0.0018    0.0000
       32 FE2    3d2-      -0.0011    0.9840    0.1297   -0.0000   -0.0000    0.0007   -0.0000   -0.0001   -0.0000    0.0000
       33 FE2    4d2-       0.0000   -0.1209   -0.0159    0.0000    0.0000   -0.0000    0.0000    0.0001    0.0002   -0.0000
       34 FE2    3d1-      -0.0000   -0.0000    0.0000    0.9902   -0.0651    0.0000   -0.0612    0.0000   -0.0000   -0.0008
       35 FE2    4d1-       0.0000    0.0000   -0.0000   -0.1200    0.0078   -0.0000    0.0381   -0.0000    0.0000    0.0007
       36 FE2    3d0        0.3926    0.0000   -0.0014   -0.0000    0.0000    0.9130   -0.0000   -0.0543    0.0724    0.0000
       37 FE2    4d0       -0.0305   -0.0000    0.0003    0.0000   -0.0000   -0.1097    0.0000    0.0360   -0.0317    0.0000
       38 FE2    3d1+       0.0000   -0.0000   -0.0000   -0.0650   -0.9914   -0.0000    0.0040   -0.0000    0.0000   -0.0129
       39 FE2    4d1+      -0.0000    0.0000    0.0000    0.0079    0.1188    0.0000   -0.0025    0.0000   -0.0000    0.0109
       40 FE2    3d2+      -0.0087   -0.1297    0.9840   -0.0000    0.0000    0.0053   -0.0000   -0.0007   -0.0003   -0.0000
       41 FE2    4d2+       0.0000    0.0159   -0.1209    0.0000   -0.0000   -0.0003    0.0000    0.0010    0.0012    0.0000
       42 FE2    4f3-      -0.0000   -0.0000    0.0000    0.0001   -0.0000    0.0000    0.0000   -0.0000    0.0000    0.0000
       43 FE2    4f2-      -0.0000   -0.0035   -0.0005    0.0000    0.0000    0.0000    0.0000    0.0000    0.0000   -0.0000
       44 FE2    4f1-       0.0000    0.0000   -0.0000   -0.0038    0.0002   -0.0000    0.0060   -0.0000    0.0000    0.0001
       45 FE2    4f0        0.0025   -0.0000    0.0000    0.0000   -0.0000   -0.0047    0.0000    0.0053   -0.0037   -0.0000
       46 FE2    4f1+      -0.0000    0.0000    0.0000    0.0002    0.0036    0.0000   -0.0004    0.0000   -0.0000    0.0018
       47 FE2    4f2+      -0.0001    0.0005   -0.0035    0.0000   -0.0000    0.0001    0.0000    0.0002    0.0001    0.0000
       48 FE2    4f3+       0.0000   -0.0000   -0.0000   -0.0000   -0.0001    0.0000   -0.0000   -0.0000   -0.0000    0.0001
 
          Orbital           21        22        23        24    
          Energy           -0.4328   -0.3303   -0.2960   -0.2343
          Occ. No.          0.0000    0.0000    0.0000    0.0000
 
        1 O1     1s        -0.0000   -0.0000   -0.0602   -0.0058
        2 O1     2s        -0.0000   -0.0000   -0.5671   -0.0428
        3 O1     3s        -0.0000   -0.0000   -0.1669   -0.0144
        4 O1     2px        0.0163   -0.9170    0.0000    0.0000
        5 O1     3px        0.0041   -0.2674    0.0000    0.0000
        6 O1     2py       -0.2491   -0.0602    0.0000   -0.0000
        7 O1     3py       -0.0629   -0.0175    0.0000   -0.0000
        8 O1     2pz       -0.0000   -0.0000    0.5645   -0.2461
        9 O1     3pz       -0.0000   -0.0000    0.1618   -0.1033
       10 O1     3d2-       0.0000   -0.0000    0.0004   -0.0001
       11 O1     3d1-      -0.0037    0.0014    0.0000    0.0000
       12 O1     3d0        0.0000   -0.0000   -0.0143   -0.0015
       13 O1     3d1+       0.0002    0.0207   -0.0000   -0.0000
       14 O1     3d2+       0.0000    0.0000    0.0030   -0.0011
       15 FE2    1s        -0.0000    0.0000    0.0026   -0.0010
       16 FE2    2s        -0.0000    0.0000    0.0189   -0.0075
       17 FE2    3s        -0.0000    0.0000    0.1010   -0.0397
       18 FE2    4s        -0.0000    0.0000    0.5747    0.2160
       19 FE2    5s        -0.0000    0.0000   -0.0456    0.9982
       20 FE2    2px       -0.0001    0.0016   -0.0000   -0.0000
       21 FE2    3px       -0.0016    0.0373   -0.0000   -0.0000
       22 FE2    4px       -0.0678    0.5877   -0.0000   -0.0000
       23 FE2    5px       -0.0034    0.0393   -0.0000   -0.0000
       24 FE2    2py        0.0008    0.0001   -0.0000    0.0000
       25 FE2    3py        0.0239    0.0025   -0.0000    0.0000
       26 FE2    4py        1.0329    0.0386   -0.0000    0.0000
       27 FE2    5py        0.0511    0.0026   -0.0000    0.0000
       28 FE2    2pz       -0.0000   -0.0000    0.0042   -0.0012
       29 FE2    3pz       -0.0000    0.0000    0.0954   -0.0238
       30 FE2    4pz        0.0000    0.0000    1.1081   -0.0811
       31 FE2    5pz        0.0000    0.0000    0.0920   -0.0204
       32 FE2    3d2-      -0.0000    0.0000   -0.0000    0.0000
       33 FE2    4d2-      -0.0000    0.0000    0.0004   -0.0001
       34 FE2    3d1-       0.0192    0.0032   -0.0000    0.0000
       35 FE2    4d1-      -0.0335   -0.0070    0.0000   -0.0000
       36 FE2    3d0       -0.0000    0.0000    0.0939   -0.0238
       37 FE2    4d0        0.0000   -0.0000   -0.1493    0.0105
       38 FE2    3d1+      -0.0013    0.0495   -0.0000   -0.0000
       39 FE2    4d1+       0.0022   -0.1063    0.0000    0.0000
       40 FE2    3d2+      -0.0000   -0.0000   -0.0002    0.0003
       41 FE2    4d2+       0.0000   -0.0000    0.0027   -0.0006
       42 FE2    4f3-       0.0002    0.0000    0.0000    0.0000
       43 FE2    4f2-       0.0000   -0.0000    0.0000   -0.0000
       44 FE2    4f1-      -0.0025   -0.0005    0.0000   -0.0000
       45 FE2    4f0        0.0000   -0.0000   -0.0094    0.0010
       46 FE2    4f1+       0.0002   -0.0080    0.0000    0.0000
       47 FE2    4f2+       0.0000    0.0000    0.0003   -0.0001
       48 FE2    4f3+      -0.0000    0.0001    0.0000   -0.0000
--
 
 
  Input file to MOLDEN was generated!
 
 
++    Static properties:
      ------------------
 
 
      LoProp Charges per center
 

                   O1       FE2   
      Nuclear      8.0000  26.0000
      Electronic  -8.2482 -23.7518
 
      Total       -0.2482   2.2482
--
 
 
      All orbitals with orbital energies smaller than  E(LUMO)+0.5 are printed
 
++    Molecular orbitals:
      -------------------
 
      Title: UHF orbitals (beta)

      Molecular orbitals for symmetry species 1: a  
 
          Orbital            1         2         3         4         5         6         7         8         9        10    
          Energy         -264.5374  -33.2424  -28.3114  -28.3106  -28.3102  -21.1629   -4.9128   -3.3721   -3.3705   -3.3697
          Occ. No.          1.0000    1.0000    1.0000    1.0000    1.0000    1.0000    1.0000    1.0000    1.0000    1.0000
 
        1 O1     1s        -0.0000   -0.0000   -0.0000    0.0000   -0.0000    1.0000   -0.0001   -0.0004   -0.0000   -0.0000
        2 O1     2s        -0.0000   -0.0001   -0.0001   -0.0000   -0.0000    0.0004    0.0015    0.0113    0.0000    0.0000
        3 O1     3s        -0.0000   -0.0001   -0.0001   -0.0000   -0.0000   -0.0015    0.0003    0.0011    0.0000    0.0000
        4 O1     2px       -0.0000    0.0000   -0.0000    0.0001   -0.0000   -0.0000   -0.0000    0.0000    0.0026    0.0002
        5 O1     3px        0.0000   -0.0000    0.0000    0.0001   -0.0000    0.0000   -0.0000   -0.0000    0.0014    0.0001
        6 O1     2py        0.0000   -0.0000    0.0000    0.0000    0.0001   -0.0000    0.0000    0.0000    0.0002   -0.0031
        7 O1     3py        0.0000   -0.0000   -0.0000    0.0000    0.0001   -0.0000    0.0000    0.0000    0.0001   -0.0014
        8 O1     2pz        0.0000    0.0001    0.0002    0.0000    0.0000   -0.0003   -0.0021   -0.0116   -0.0000   -0.0000
        9 O1     3pz        0.0000    0.0001    0.0003    0.0000    0.0000    0.0007   -0.0007    0.0004   -0.0000    0.0000
       10 O1     3d2-       0.0000   -0.0000   -0.0000    0.0000   -0.0000    0.0000   -0.0000    0.0000   -0.0000    0.0000
       11 O1     3d1-      -0.0000   -0.0000    0.0000    0.0000    0.0000    0.0000   -0.0000   -0.0000   -0.0000    0.0006
       12 O1     3d0       -0.0000   -0.0000   -0.0001   -0.0000   -0.0000   -0.0005    0.0007    0.0021    0.0000    0.0000
       13 O1     3d1+      -0.0000   -0.0000   -0.0000    0.0000   -0.0000   -0.0000    0.0000    0.0000   -0.0005   -0.0000
       14 O1     3d2+       0.0000   -0.0000   -0.0000   -0.0000   -0.0000    0.0003   -0.0000    0.0001    0.0000    0.0000
       15 FE2    1s         1.0000    0.0000    0.0000    0.0000    0.0000    0.0000   -0.0000   -0.0000   -0.0000   -0.0000
       16 FE2    2s        -0.0000    1.0000    0.0009    0.0000    0.0000    0.0000    0.0009   -0.0000   -0.0000   -0.0000
       17 FE2    3s        -0.0000   -0.0010   -0.0001    0.0000   -0.0000    0.0002    0.9995    0.0138    0.0000    0.0000
       18 FE2    4s         0.0000    0.0003    0.0003    0.0000    0.0000    0.0006   -0.0017   -0.0015   -0.0000   -0.0000
       19 FE2    5s        -0.0000   -0.0003   -0.0002   -0.0000   -0.0000   -0.0002    0.0021    0.0008    0.0000    0.0000
       20 FE2    2px       -0.0000   -0.0000   -0.0000    0.9978   -0.0655   -0.0000   -0.0000   -0.0000    0.0030    0.0002
       21 FE2    3px        0.0000    0.0000    0.0000   -0.0030    0.0002   -0.0000   -0.0000   -0.0000    0.9976    0.0655
       22 FE2    4px       -0.0000    0.0000   -0.0000    0.0003   -0.0000   -0.0000    0.0000    0.0000   -0.0100   -0.0007
       23 FE2    5px       -0.0000    0.0000    0.0000   -0.0010    0.0001   -0.0000    0.0000   -0.0000    0.0029    0.0002
       24 FE2    2py       -0.0000    0.0000   -0.0000    0.0655    0.9978   -0.0000    0.0000    0.0000    0.0002   -0.0030
       25 FE2    3py       -0.0000    0.0000    0.0000   -0.0002   -0.0030    0.0000    0.0000    0.0000    0.0655   -0.9976
       26 FE2    4py       -0.0000    0.0000   -0.0000    0.0000    0.0004    0.0000    0.0000   -0.0000   -0.0007    0.0101
       27 FE2    5py       -0.0000    0.0000    0.0000   -0.0001   -0.0011    0.0000   -0.0000    0.0000    0.0002   -0.0030
       28 FE2    2pz       -0.0000   -0.0008    1.0000    0.0000    0.0000   -0.0000    0.0002    0.0029    0.0000    0.0000
       29 FE2    3pz        0.0000   -0.0001   -0.0029   -0.0000   -0.0000    0.0002   -0.0154    0.9984    0.0000    0.0000
       30 FE2    4pz        0.0000    0.0001    0.0007    0.0000    0.0000    0.0004   -0.0005   -0.0047   -0.0000   -0.0000
       31 FE2    5pz        0.0000   -0.0001   -0.0012   -0.0000   -0.0000   -0.0001    0.0008   -0.0001    0.0000    0.0000
       32 FE2    3d2-       0.0000    0.0000    0.0000    0.0000   -0.0000   -0.0000    0.0000    0.0000    0.0000    0.0000
       33 FE2    4d2-      -0.0000   -0.0000   -0.0000   -0.0000   -0.0000   -0.0000   -0.0000   -0.0000   -0.0000   -0.0000
       34 FE2    3d1-      -0.0000    0.0000    0.0000   -0.0000   -0.0001    0.0000   -0.0000   -0.0000   -0.0005    0.0078
       35 FE2    4d1-      -0.0000    0.0000    0.0000   -0.0000   -0.0000    0.0000    0.0000    0.0000   -0.0000    0.0005
       36 FE2    3d0        0.0000    0.0000   -0.0000   -0.0000    0.0000    0.0002   -0.0042   -0.0149   -0.0000   -0.0000
       37 FE2    4d0        0.0000    0.0001    0.0001    0.0000    0.0000    0.0001    0.0023    0.0042    0.0000    0.0000
       38 FE2    3d1+      -0.0000    0.0000    0.0000   -0.0001    0.0000   -0.0000    0.0000    0.0000   -0.0072   -0.0005
       39 FE2    4d1+      -0.0000    0.0000   -0.0000   -0.0000    0.0000   -0.0000   -0.0000   -0.0000   -0.0006   -0.0000
       40 FE2    3d2+       0.0000    0.0000    0.0000   -0.0000   -0.0000   -0.0000    0.0002    0.0002   -0.0000    0.0000
       41 FE2    4d2+      -0.0000   -0.0000   -0.0000    0.0000    0.0000   -0.0000   -0.0000   -0.0001    0.0000   -0.0000
       42 FE2    4f3-       0.0000    0.0000   -0.0000    0.0000    0.0000   -0.0000    0.0000    0.0000    0.0000   -0.0001
       43 FE2    4f2-      -0.0000    0.0000   -0.0000   -0.0000    0.0000   -0.0000    0.0000   -0.0000   -0.0000   -0.0000
       44 FE2    4f1-       0.0000   -0.0000    0.0000   -0.0000   -0.0001    0.0000   -0.0000    0.0000   -0.0002    0.0030
       45 FE2    4f0        0.0000   -0.0000    0.0002    0.0000    0.0000    0.0000   -0.0005    0.0033    0.0000   -0.0000
       46 FE2    4f1+       0.0000   -0.0000   -0.0000   -0.0001    0.0000   -0.0000    0.0000    0.0000   -0.0032   -0.0002
       47 FE2    4f2+      -0.0000    0.0000   -0.0000    0.0000    0.0000   -0.0000    0.0001   -0.0000    0.0000   -0.0000
       48 FE2    4f3+      -0.0000    0.0000    0.0000    0.0000   -0.0000    0.0000   -0.0000   -0.0000    0.0001    0.0000
 
          Orbital           11        12        13        14        15        16        17        18        19        20    
          Energy           -1.8165   -1.1418   -1.0347   -1.0301   -0.5942   -0.5463   -0.5362   -0.5362   -0.5245   -0.5236
          Occ. No.          1.0000    1.0000    1.0000    1.0000    0.0000    0.0000    0.0000    0.0000    0.0000    0.0000
 
        1 O1     1s        -0.0032    0.0000    0.0000    0.0194    0.0001   -0.0067   -0.0000    0.0001   -0.0000    0.0000
        2 O1     2s         0.9722    0.0000    0.0000    0.2904    0.0076   -0.0885   -0.0000    0.0013   -0.0000    0.0000
        3 O1     3s        -0.0166    0.0000    0.0000    0.0211   -0.0109   -0.0207   -0.0000    0.0002   -0.0000   -0.0000
        4 O1     2px       -0.0000    0.9766   -0.0630    0.0000    0.0000    0.0000    0.0000    0.0000   -0.0142   -0.1648
        5 O1     3px        0.0000   -0.0545    0.0014   -0.0000    0.0000    0.0000    0.0000    0.0000   -0.0015   -0.0138
        6 O1     2py       -0.0000    0.0641    0.9606   -0.0000   -0.0000   -0.0000    0.0000   -0.0000    0.2166   -0.0108
        7 O1     3py        0.0000   -0.0036   -0.0207    0.0000   -0.0000   -0.0000    0.0000   -0.0000    0.0224   -0.0009
        8 O1     2pz       -0.0827    0.0000    0.0000    0.7130    0.3530    0.4302    0.0000   -0.0047    0.0000   -0.0000
        9 O1     3pz       -0.0188   -0.0000   -0.0000   -0.0036    0.0272    0.0577    0.0000   -0.0011    0.0000   -0.0000
       10 O1     3d2-       0.0025   -0.0000    0.0000    0.0007    0.0000   -0.0001    0.0029    0.0004    0.0000    0.0000
       11 O1     3d1-       0.0000   -0.0019   -0.0307    0.0000    0.0000    0.0000    0.0000   -0.0000    0.0058   -0.0005
       12 O1     3d0        0.0015   -0.0000   -0.0000   -0.0419   -0.0033   -0.0079   -0.0000    0.0001    0.0000    0.0000
       13 O1     3d1+      -0.0000   -0.0297    0.0020   -0.0000    0.0000    0.0000    0.0000    0.0000   -0.0004   -0.0080
       14 O1     3d2+       0.0192    0.0000    0.0000    0.0050    0.0000   -0.0008   -0.0004    0.0029   -0.0000   -0.0000
       15 FE2    1s        -0.0006   -0.0000    0.0000    0.0010    0.0008    0.0012    0.0000   -0.0000    0.0000   -0.0000
       16 FE2    2s        -0.0047   -0.0000    0.0000    0.0075    0.0057    0.0083    0.0000   -0.0001    0.0000   -0.0000
       17 FE2    3s        -0.0307    0.0000    0.0000    0.0387    0.0328    0.0470    0.0000   -0.0008    0.0000   -0.0000
       18 FE2    4s         0.0151   -0.0000   -0.0000   -0.2205   -0.4065    0.8495   -0.0000   -0.0360    0.0000   -0.0000
       19 FE2    5s        -0.0132   -0.0000    0.0000    0.0894    0.1012   -0.1841    0.0000    0.0078   -0.0000    0.0000
       20 FE2    2px       -0.0000   -0.0006    0.0000   -0.0000   -0.0000    0.0000   -0.0000   -0.0000    0.0000    0.0003
       21 FE2    3px       -0.0000   -0.0141    0.0010   -0.0000   -0.0000   -0.0000   -0.0000   -0.0000    0.0007    0.0091
       22 FE2    4px       -0.0000    0.0303   -0.0031    0.0000    0.0000    0.0000    0.0000    0.0000   -0.0077   -0.1036
       23 FE2    5px        0.0000   -0.0032    0.0002   -0.0000    0.0000    0.0000    0.0000    0.0000   -0.0003   -0.0034
       24 FE2    2py        0.0000   -0.0000   -0.0007    0.0000    0.0000    0.0000    0.0000    0.0000   -0.0003    0.0000
       25 FE2    3py        0.0000   -0.0009   -0.0153    0.0000    0.0000    0.0000   -0.0000    0.0000   -0.0109    0.0006
       26 FE2    4py        0.0000    0.0020    0.0471   -0.0000   -0.0000   -0.0000    0.0000   -0.0000    0.1166   -0.0068
       27 FE2    5py        0.0000   -0.0002   -0.0034    0.0000   -0.0000   -0.0000    0.0000   -0.0000    0.0043   -0.0002
       28 FE2    2pz       -0.0014    0.0000    0.0000    0.0019    0.0014    0.0020    0.0000   -0.0000    0.0000   -0.0000
       29 FE2    3pz       -0.0456   -0.0000    0.0000    0.0359    0.0394    0.0424    0.0000   -0.0005    0.0000   -0.0000
       30 FE2    4pz        0.0203   -0.0000   -0.0000   -0.1219   -0.0714   -0.3957    0.0000    0.0137   -0.0000    0.0000
       31 FE2    5pz       -0.0066   -0.0000    0.0000    0.0082   -0.0012   -0.0175    0.0000    0.0008   -0.0000    0.0000
       32 FE2    3d2-      -0.0000    0.0000   -0.0000    0.0000   -0.0030    0.0042    0.9799    0.1291    0.0000    0.0000
       33 FE2    4d2-      -0.0000    0.0000   -0.0000   -0.0001   -0.0006    0.0008    0.1501    0.0198    0.0000    0.0000
       34 FE2    3d1-       0.0000    0.0054    0.1377   -0.0000    0.0000    0.0000   -0.0000    0.0000   -0.9750    0.0644
       35 FE2    4d1-       0.0000    0.0016    0.0354   -0.0000    0.0000    0.0000   -0.0000    0.0000   -0.1520    0.0103
       36 FE2    3d0        0.0649    0.0000   -0.0000   -0.5011    0.8130    0.2702    0.0000    0.0106    0.0000   -0.0000
       37 FE2    4d0        0.0116    0.0000   -0.0000   -0.0663    0.0901    0.0212    0.0000    0.0014    0.0000   -0.0000
       38 FE2    3d1+      -0.0000    0.0829   -0.0090    0.0000   -0.0000   -0.0000   -0.0000   -0.0000    0.0640    0.9812
       39 FE2    4d1+      -0.0000    0.0236   -0.0023    0.0000   -0.0000   -0.0000   -0.0000   -0.0000    0.0100    0.1571
       40 FE2    3d2+      -0.0002    0.0000    0.0000    0.0001   -0.0225    0.0319   -0.1292    0.9791    0.0000   -0.0000
       41 FE2    4d2+      -0.0002    0.0000   -0.0000   -0.0009   -0.0045    0.0058   -0.0198    0.1500    0.0000   -0.0000
       42 FE2    4f3-      -0.0000    0.0000    0.0000   -0.0000    0.0000    0.0000   -0.0000    0.0000   -0.0001    0.0000
       43 FE2    4f2-      -0.0000    0.0000   -0.0000   -0.0000    0.0000   -0.0000   -0.0042   -0.0005   -0.0000   -0.0000
       44 FE2    4f1-       0.0000    0.0003    0.0058   -0.0000   -0.0000   -0.0000    0.0000   -0.0000    0.0064   -0.0004
       45 FE2    4f0        0.0045   -0.0000   -0.0000   -0.0068   -0.0082   -0.0060   -0.0000   -0.0001   -0.0000    0.0000
       46 FE2    4f1+      -0.0000    0.0049   -0.0004    0.0000    0.0000    0.0000    0.0000    0.0000   -0.0004   -0.0058
       47 FE2    4f2+      -0.0001   -0.0000   -0.0000   -0.0001    0.0000   -0.0001    0.0005   -0.0042   -0.0000    0.0000
       48 FE2    4f3+      -0.0000    0.0000   -0.0000    0.0000    0.0000   -0.0000   -0.0000   -0.0000    0.0000    0.0001
 
          Orbital           21        22        23        24    
          Energy           -0.3893   -0.3830   -0.2666   -0.2183
          Occ. No.          0.0000    0.0000    0.0000    0.0000
 
        1 O1     1s        -0.0000    0.0000   -0.0677    0.0039
        2 O1     2s        -0.0000    0.0000   -0.6135    0.0434
        3 O1     3s        -0.0000    0.0000   -0.1623    0.0065
        4 O1     2px       -0.2117    0.0164    0.0000    0.0000
        5 O1     3px       -0.0384    0.0035    0.0000    0.0000
        6 O1     2py       -0.0139   -0.2505   -0.0000    0.0000
        7 O1     3py       -0.0025   -0.0535   -0.0000    0.0000
        8 O1     2pz        0.0000    0.0000    0.5236   -0.3037
        9 O1     3pz        0.0000    0.0000    0.1574   -0.1161
       10 O1     3d2-       0.0000   -0.0000   -0.0006    0.0002
       11 O1     3d1-      -0.0004   -0.0046   -0.0000   -0.0000
       12 O1     3d0       -0.0000   -0.0000   -0.0095   -0.0011
       13 O1     3d1+      -0.0066    0.0003    0.0000   -0.0000
       14 O1     3d2+      -0.0000    0.0000   -0.0042    0.0012
       15 FE2    1s         0.0000    0.0000    0.0025   -0.0013
       16 FE2    2s         0.0000    0.0000    0.0181   -0.0090
       17 FE2    3s         0.0000    0.0000    0.0971   -0.0474
       18 FE2    4s         0.0000   -0.0000    0.6254    0.0676
       19 FE2    5s         0.0000    0.0000    0.0787    1.0151
       20 FE2    2px       -0.0000   -0.0000   -0.0000    0.0000
       21 FE2    3px        0.0152   -0.0011   -0.0000   -0.0000
       22 FE2    4px        1.0196   -0.0671   -0.0000   -0.0000
       23 FE2    5px        0.0805   -0.0053   -0.0000   -0.0000
       24 FE2    2py       -0.0000    0.0000    0.0000   -0.0000
       25 FE2    3py        0.0010    0.0169    0.0000   -0.0000
       26 FE2    4py        0.0669    1.0228    0.0000   -0.0000
       27 FE2    5py        0.0053    0.0810    0.0000   -0.0000
       28 FE2    2pz       -0.0000    0.0000    0.0036   -0.0016
       29 FE2    3pz        0.0000    0.0000    0.0880   -0.0338
       30 FE2    4pz        0.0000   -0.0000    1.1113   -0.2131
       31 FE2    5pz        0.0000   -0.0000    0.1076   -0.0335
       32 FE2    3d2-      -0.0000    0.0000   -0.0003    0.0001
       33 FE2    4d2-       0.0000   -0.0000    0.0003    0.0000
       34 FE2    3d1-       0.0087    0.1456   -0.0000    0.0000
       35 FE2    4d1-      -0.0002   -0.0064   -0.0000    0.0000
       36 FE2    3d0        0.0000   -0.0000    0.2489   -0.0417
       37 FE2    4d0        0.0000   -0.0000   -0.0651    0.0177
       38 FE2    3d1+       0.1320   -0.0096    0.0000   -0.0000
       39 FE2    4d1+      -0.0032    0.0004    0.0000   -0.0000
       40 FE2    3d2+       0.0000    0.0000   -0.0022    0.0007
       41 FE2    4d2+      -0.0000   -0.0000    0.0020    0.0000
       42 FE2    4f3-       0.0000    0.0002   -0.0000    0.0000
       43 FE2    4f2-       0.0000   -0.0000    0.0000   -0.0000
       44 FE2    4f1-      -0.0000   -0.0009    0.0000   -0.0000
       45 FE2    4f0       -0.0000   -0.0000   -0.0071    0.0014
       46 FE2    4f1+      -0.0004    0.0001   -0.0000    0.0000
       47 FE2    4f2+      -0.0000   -0.0000    0.0001   -0.0001
       48 FE2    4f3+       0.0002   -0.0000    0.0000   -0.0000
--
 
 
++    Molecular charges:
      ------------------
 
      Mulliken charges per centre and basis function type
      ---------------------------------------------------
 
                            O1                      FE2   
                     alpha        beta       alpha        beta
      1s           1.0000      1.0000      1.0000      1.0000
      2s           0.9928      0.9986      1.0000      1.0000
      2px          0.0042      0.9737      1.0000      1.0000
      2pz          0.5960      0.6059      1.0000      1.0000
      2py          0.9691      0.9516      1.0000      1.0000
      3s          -0.0058     -0.0028      0.9987      0.9995
      3px         -0.0005      0.0015      0.9994      0.9997
      3pz          0.0038      0.0001      0.9980      0.9987
      3py         -0.0006     -0.0004      0.9993      0.9997
      4s           0.0000      0.0000      0.2961      0.0617
      3d2+         0.0006      0.0004      0.9851      0.0000
      3d1+        -0.0000      0.0013      0.9860      0.0126
      3d0          0.0030      0.0047      0.9823      0.2797
      3d1-         0.0011      0.0017      0.9842      0.0287
      3d2-         0.0000      0.0000      0.9851      0.0000
      4px          0.0000      0.0000      0.0004      0.0056
      4pz          0.0000      0.0000      0.0405      0.0243
      4py          0.0000      0.0000      0.0182      0.0100
      5s           0.0000      0.0000      0.0719      0.0207
      4d2+         0.0000      0.0000      0.0149      0.0000
      4d1+         0.0000      0.0000      0.0146      0.0053
      4d0          0.0000      0.0000      0.0209      0.0075
      4d1-         0.0000      0.0000      0.0241      0.0086
      4d2-         0.0000      0.0000      0.0149      0.0000
      5px          0.0000      0.0000      0.0002     -0.0002
      5pz          0.0000      0.0000      0.0006      0.0003
      5py          0.0000      0.0000     -0.0002     -0.0002
      4f3+         0.0000      0.0000      0.0000      0.0000
      4f2+         0.0000      0.0000      0.0000     -0.0000
      4f1+         0.0000      0.0000      0.0000      0.0003
      4f0          0.0000      0.0000      0.0005      0.0006
      4f1-         0.0000      0.0000      0.0004      0.0004
      4f2-         0.0000      0.0000      0.0000     -0.0000
      4f3-         0.0000      0.0000      0.0000      0.0000
      Total        3.5637      4.5363     14.4363      9.4637
      Total              8.1001                 23.8999
 
      Charge           -0.1001                  2.1001
 
      Total electronic charge=   32.000000
 
      Total            charge=    2.000000
--
 
 
  Input file to MOLDEN was generated!
 
 
++    Static properties:
      ------------------
 
 
      LoProp Charges per center
 

                   O1       FE2   
      Nuclear      8.0000  26.0000
      Electronic  -8.2482 -23.7518
 
      Total       -0.2482   2.2482
--
 
 
++    Natural Bond Order analysis
      ---------------------------
      Based on LoProp computed density
      -------------------------------------------------------------------------------------
      Atom A       Atom B       Bond Order
        O1           FE2            0.985
      -------------------------------------------------------------------------------------
      NBO located     17.999 core electrons.
      NBO located      5.917 lone pair electrons.
      NBO located      1.970 electrons involved in    1 bonds.
      NBO located      0.977 non-bonded electrons on atom O1        
      NBO located      1.010 non-bonded electrons on atom FE2       
      NBO located      1.000 non-bonded electrons on atom FE2       
      NBO located      1.000 non-bonded electrons on atom FE2       
      The remaining    2.127 electrons are to be considered as diffuse
--
 
 
++    Molecular orbitals:
      -------------------
 
      Title: Natural orbitals

      Molecular orbitals for symmetry species 1: a  
 
          Orbital            1         2         3         4         5         6         7         8         9        10    
          Energy         -264.5400  -33.1487  -27.6317  -27.5473  -21.3162  -27.8050   -5.3509   -4.3928   -4.3975   -3.9428
          Occ. No.          2.0000    2.0000    2.0000    2.0000    2.0000    2.0000    2.0000    1.9999    1.9999    1.9998
 
        1 O1     1s         0.0000   -0.0168   -0.0000   -0.0000   -0.9789    0.1939   -0.0537    0.0000   -0.0000    0.0180
        2 O1     2s        -0.0000   -0.0002    0.0000    0.0000    0.0315    0.0009   -0.0149    0.0000    0.0000    0.1420
        3 O1     3s        -0.0000   -0.0001    0.0000    0.0000    0.0006    0.0003   -0.0009   -0.0000    0.0000    0.0026
        4 O1     2px       -0.0000   -0.0000   -0.0002    0.0006   -0.0000    0.0000   -0.0000   -0.0109    0.0009    0.0000
        5 O1     3px        0.0000   -0.0000   -0.0003    0.0000    0.0000   -0.0000    0.0000    0.0000    0.0014   -0.0000
        6 O1     2py        0.0000    0.0000   -0.0000   -0.0096    0.0000   -0.0000    0.0000    0.1657    0.0001   -0.0000
        7 O1     3py        0.0000   -0.0000   -0.0000   -0.0002    0.0000    0.0000   -0.0000   -0.0007    0.0001    0.0000
        8 O1     2pz        0.0000   -0.0007   -0.0000   -0.0000   -0.0002    0.0002    0.0098   -0.0000    0.0000    0.0054
        9 O1     3pz        0.0000    0.0001   -0.0000   -0.0000   -0.0012    0.0000    0.0017   -0.0000   -0.0000   -0.0034
       10 O1     3d2-      -0.0000    0.0000    0.0000    0.0000    0.0000   -0.0000    0.0000   -0.0000   -0.0000   -0.0000
       11 O1     3d1-      -0.0000   -0.0000    0.0000    0.0004   -0.0000    0.0000   -0.0000   -0.0055   -0.0000    0.0000
       12 O1     3d0       -0.0000    0.0000    0.0000    0.0000    0.0005    0.0000   -0.0011    0.0000   -0.0000    0.0017
       13 O1     3d1+       0.0000    0.0000    0.0001   -0.0000    0.0000   -0.0000    0.0000    0.0004   -0.0005   -0.0000
       14 O1     3d2+      -0.0000    0.0000    0.0000    0.0000    0.0002   -0.0001    0.0001   -0.0000    0.0000   -0.0004
       15 FE2    1s         1.0000   -0.0000    0.0000    0.0000    0.0000    0.0001    0.0001   -0.0000   -0.0000   -0.0001
       16 FE2    2s         0.0000    0.9969   -0.0000   -0.0000   -0.0142   -0.0067   -0.0774    0.0000   -0.0000    0.0020
       17 FE2    3s         0.0001   -0.0767    0.0000    0.0000    0.0571    0.0091   -0.9916    0.0000    0.0000    0.0569
       18 FE2    4s         0.0000    0.0007   -0.0000   -0.0000   -0.0007   -0.0010    0.0010    0.0000   -0.0000   -0.0115
       19 FE2    5s        -0.0000   -0.0004    0.0000    0.0000    0.0002    0.0004   -0.0026   -0.0000    0.0000    0.0038
       20 FE2    2px        0.0000    0.0000    0.9824   -0.0644   -0.0000    0.0000   -0.0000   -0.0120    0.1748   -0.0000
       21 FE2    3px       -0.0000   -0.0000   -0.1748    0.0121    0.0000   -0.0000   -0.0000   -0.0632    0.9822   -0.0000
       22 FE2    4px       -0.0000    0.0000    0.0024   -0.0001   -0.0000    0.0000   -0.0000    0.0002   -0.0137    0.0000
       23 FE2    5px       -0.0000   -0.0000   -0.0013    0.0001    0.0000   -0.0000   -0.0000   -0.0005    0.0084   -0.0000
       24 FE2    2py       -0.0000   -0.0000    0.0645    0.9807   -0.0000    0.0000    0.0000    0.1827    0.0115    0.0000
       25 FE2    3py        0.0000    0.0000   -0.0115   -0.1838    0.0000   -0.0000    0.0000    0.9634    0.0645    0.0000
       26 FE2    4py        0.0000    0.0000    0.0002    0.0020   -0.0000    0.0000    0.0000   -0.0035   -0.0009   -0.0000
       27 FE2    5py        0.0000    0.0000   -0.0001   -0.0014    0.0000   -0.0000    0.0000    0.0076    0.0005    0.0000
       28 FE2    2pz        0.0001   -0.0105   -0.0000   -0.0000   -0.1904   -0.9746   -0.0119   -0.0000    0.0000    0.1166
       29 FE2    3pz       -0.0000    0.0036    0.0000    0.0000    0.0313    0.1117    0.0673   -0.0000    0.0000    0.9769
       30 FE2    4pz        0.0000    0.0003   -0.0000   -0.0000   -0.0002   -0.0018   -0.0003    0.0000   -0.0000   -0.0149
       31 FE2    5pz        0.0000   -0.0001    0.0000    0.0000    0.0002    0.0008   -0.0008   -0.0000    0.0000    0.0072
       32 FE2    3d2-       0.0000   -0.0000   -0.0000    0.0000    0.0000    0.0000   -0.0000   -0.0000    0.0000    0.0000
       33 FE2    4d2-      -0.0000   -0.0000   -0.0000   -0.0000   -0.0000    0.0000    0.0000    0.0000   -0.0000   -0.0000
       34 FE2    3d1-       0.0000    0.0000    0.0001    0.0001   -0.0000   -0.0000    0.0000    0.0153   -0.0005   -0.0000
       35 FE2    4d1-       0.0000    0.0000    0.0000   -0.0001    0.0000   -0.0000    0.0000    0.0036   -0.0000   -0.0000
       36 FE2    3d0        0.0000    0.0010   -0.0000   -0.0000   -0.0006   -0.0030   -0.0010    0.0000   -0.0000   -0.0295
       37 FE2    4d0        0.0000    0.0000    0.0000    0.0000    0.0004    0.0000   -0.0007    0.0000    0.0000    0.0018
       38 FE2    3d1+      -0.0000   -0.0000    0.0012   -0.0000   -0.0000    0.0000   -0.0000   -0.0010   -0.0073    0.0000
       39 FE2    4d1+      -0.0000   -0.0000    0.0001    0.0000   -0.0000    0.0000   -0.0000   -0.0002   -0.0005    0.0000
       40 FE2    3d2+       0.0000   -0.0000    0.0000    0.0000    0.0000    0.0000   -0.0002   -0.0000   -0.0000    0.0002
       41 FE2    4d2+      -0.0000   -0.0000   -0.0000   -0.0000   -0.0000    0.0000    0.0000    0.0000    0.0000   -0.0001
       42 FE2    4f3-       0.0000    0.0000   -0.0000   -0.0000    0.0000   -0.0000    0.0000    0.0001    0.0000    0.0000
       43 FE2    4f2-       0.0000   -0.0000    0.0000   -0.0000   -0.0000    0.0000   -0.0000    0.0000   -0.0000    0.0000
       44 FE2    4f1-       0.0000    0.0000    0.0000    0.0003   -0.0000    0.0000    0.0000   -0.0011   -0.0001   -0.0000
       45 FE2    4f0        0.0000    0.0000    0.0000    0.0000    0.0001   -0.0001    0.0001    0.0000    0.0000    0.0005
       46 FE2    4f1+       0.0000    0.0000    0.0003   -0.0000   -0.0000    0.0000   -0.0000    0.0001   -0.0022    0.0000
       47 FE2    4f2+       0.0000   -0.0000   -0.0000   -0.0000   -0.0000    0.0000   -0.0000    0.0000    0.0000    0.0000
       48 FE2    4f3+      -0.0000   -0.0000   -0.0000    0.0000    0.0000   -0.0000   -0.0000   -0.0000    0.0001   -0.0000
 
          Orbital           11        12        13        14        15        16        17        18        19        20    
          Energy           -1.1154   -1.7740   -1.0960   -0.9300   -1.0277   -1.0277   -1.0052   -0.9566   -0.8077   -0.3898
          Occ. No.          1.9993    1.9984    1.9698    1.1241    1.0000    1.0000    1.0000    1.0000    0.8759    0.0302
 
        1 O1     1s         0.0000   -0.0271   -0.0201    0.0000    0.0000    0.0001   -0.0000   -0.0062   -0.0000   -0.0047
        2 O1     2s         0.0000   -0.9843   -0.2001    0.0000    0.0000    0.0013   -0.0000   -0.0459   -0.0000   -0.0969
        3 O1     3s        -0.0000    0.0051   -0.0287    0.0000    0.0000    0.0002   -0.0000    0.0012   -0.0000   -0.0474
        4 O1     2px       -0.0621   -0.0000    0.0000    0.6520    0.0000   -0.0000   -0.0113    0.0000   -0.7370   -0.0000
        5 O1     3px        0.0008    0.0000   -0.0000   -0.0433    0.0000   -0.0000   -0.0008    0.0000    0.0332    0.0000
        6 O1     2py        0.9463    0.0000   -0.0000    0.0428   -0.0000    0.0000    0.1720   -0.0000   -0.0484    0.0000
        7 O1     3py       -0.0120   -0.0000    0.0000   -0.0028   -0.0000    0.0000    0.0116   -0.0000    0.0022   -0.0000
        8 O1     2pz       -0.0000    0.0036   -0.6586    0.0000    0.0000    0.0062   -0.0000   -0.3737    0.0000    0.5229
        9 O1     3pz       -0.0000    0.0194    0.0019   -0.0000    0.0000    0.0002   -0.0000   -0.0212    0.0000    0.0015
       10 O1     3d2-      -0.0000    0.0003   -0.0001   -0.0000   -0.0005    0.0001   -0.0000   -0.0000    0.0000    0.0026
       11 O1     3d1-      -0.0286   -0.0000    0.0000   -0.0013    0.0000   -0.0000   -0.0055    0.0000    0.0015    0.0000
       12 O1     3d0        0.0000   -0.0086    0.0344   -0.0000   -0.0000   -0.0004    0.0000    0.0162   -0.0000   -0.0629
       13 O1     3d1+       0.0019    0.0000   -0.0000   -0.0193   -0.0000    0.0000    0.0004   -0.0000    0.0229    0.0000
       14 O1     3d2+      -0.0000    0.0021   -0.0006    0.0000    0.0001    0.0005   -0.0000   -0.0001   -0.0000    0.0199
       15 FE2    1s        -0.0000    0.0005   -0.0010    0.0000    0.0000    0.0000   -0.0000   -0.0007    0.0000    0.0011
       16 FE2    2s        -0.0000    0.0053   -0.0090   -0.0000    0.0000    0.0001   -0.0000   -0.0055    0.0000    0.0080
       17 FE2    3s         0.0000    0.0514   -0.0435    0.0000    0.0000    0.0007   -0.0000   -0.0327    0.0000    0.0488
       18 FE2    4s         0.0000    0.0082    0.3225   -0.0000   -0.0000   -0.0061    0.0000    0.2999   -0.0000    0.8084
       19 FE2    5s        -0.0000    0.0051   -0.1281    0.0000    0.0000    0.0028   -0.0000   -0.1276    0.0000   -0.2998
       20 FE2    2px        0.0015    0.0000   -0.0000   -0.0003   -0.0000    0.0000    0.0000   -0.0000    0.0005   -0.0000
       21 FE2    3px        0.0120    0.0000   -0.0000   -0.0029   -0.0000    0.0000    0.0007   -0.0000    0.0148   -0.0000
       22 FE2    4px       -0.0040   -0.0000    0.0000    0.0198    0.0000   -0.0000   -0.0011    0.0000   -0.0233    0.0000
       23 FE2    5px        0.0004    0.0000   -0.0000    0.0016   -0.0000    0.0000    0.0005   -0.0000    0.0066   -0.0000
       24 FE2    2py       -0.0228   -0.0000    0.0000   -0.0000    0.0000   -0.0000   -0.0003    0.0000    0.0000    0.0000
       25 FE2    3py       -0.1826   -0.0000    0.0000   -0.0002    0.0000   -0.0000   -0.0109    0.0000    0.0010    0.0000
       26 FE2    4py        0.0605    0.0000   -0.0000    0.0013   -0.0000    0.0000    0.0168   -0.0000   -0.0015   -0.0000
       27 FE2    5py       -0.0058   -0.0000    0.0000    0.0001    0.0000   -0.0000   -0.0075    0.0000    0.0004    0.0000
       28 FE2    2pz       -0.0000    0.0111   -0.0009    0.0000    0.0000    0.0000   -0.0000   -0.0015   -0.0000    0.0020
       29 FE2    3pz       -0.0000    0.1635   -0.0038    0.0000    0.0000    0.0008   -0.0000   -0.0409    0.0000    0.0476
       30 FE2    4pz        0.0000   -0.0152    0.1304   -0.0000   -0.0000   -0.0021    0.0000    0.0872   -0.0000    0.0515
       31 FE2    5pz       -0.0000    0.0080   -0.0065    0.0000    0.0000    0.0004   -0.0000   -0.0139    0.0000    0.0198
       32 FE2    3d2-      -0.0000   -0.0000   -0.0000    0.0000    0.9840   -0.1297    0.0000   -0.0023   -0.0000   -0.0001
       33 FE2    4d2-      -0.0000    0.0001    0.0001   -0.0000   -0.1209    0.0159   -0.0000    0.0003   -0.0000   -0.0001
       34 FE2    3d1-       0.1357    0.0000    0.0000    0.0470    0.0000   -0.0000   -0.9828    0.0000    0.0450   -0.0000
       35 FE2    4d1-       0.0243    0.0000   -0.0000   -0.0042   -0.0000    0.0000    0.1252   -0.0000   -0.0071   -0.0000
       36 FE2    3d0        0.0000   -0.0157    0.5212    0.0000    0.0000    0.0146   -0.0000   -0.8414    0.0000    0.1069
       37 FE2    4d0        0.0000   -0.0075    0.0163   -0.0000   -0.0000   -0.0020    0.0000    0.1138   -0.0000   -0.4148
       38 FE2    3d1+      -0.0089   -0.0000    0.0000    0.7165   -0.0000    0.0000    0.0645   -0.0000    0.6863    0.0000
       39 FE2    4d1+      -0.0016   -0.0000    0.0000   -0.0635    0.0000   -0.0000   -0.0082    0.0000   -0.1076    0.0000
       40 FE2    3d2+      -0.0000   -0.0000   -0.0002    0.0000   -0.1297   -0.9839    0.0000   -0.0174    0.0000   -0.0011
       41 FE2    4d2+      -0.0000    0.0008    0.0007   -0.0000    0.0159    0.1209   -0.0000    0.0026   -0.0000   -0.0008
       42 FE2    4f3-       0.0000    0.0000   -0.0000    0.0000    0.0000   -0.0000   -0.0001    0.0000    0.0000    0.0000
       43 FE2    4f2-      -0.0000    0.0000    0.0000    0.0000   -0.0035    0.0005   -0.0000    0.0000    0.0000    0.0000
       44 FE2    4f1-       0.0057    0.0000   -0.0000    0.0001   -0.0000    0.0000    0.0049   -0.0000   -0.0004   -0.0000
       45 FE2    4f0        0.0000   -0.0036    0.0050   -0.0000   -0.0000   -0.0001    0.0000    0.0061   -0.0000   -0.0194
       46 FE2    4f1+      -0.0004   -0.0000    0.0000    0.0008    0.0000   -0.0000   -0.0003    0.0000   -0.0064    0.0000
       47 FE2    4f2+      -0.0000    0.0001    0.0001   -0.0000    0.0005    0.0035   -0.0000    0.0001   -0.0000    0.0003
       48 FE2    4f3+      -0.0000   -0.0000   -0.0000    0.0001   -0.0000    0.0000    0.0000   -0.0000    0.0000   -0.0000
 
          Orbital           21        22        23        24        25        26        27        28        29        30    
          Energy            1.2893   -0.0830    1.4024    0.9560    1.1979    0.4087    1.4679    0.4700    1.3286    0.7539
          Occ. No.          0.0016    0.0007    0.0002    0.0001    0.0001    0.0000    0.0000    0.0000    0.0000    0.0000
 
        1 O1     1s        -0.0123   -0.0000   -0.0281    0.0000    0.0000   -0.0687   -0.0829   -0.0000   -0.0978   -0.0000
        2 O1     2s        -0.1115   -0.0000   -0.3115    0.0000    0.0000   -0.5833   -0.6665   -0.0000   -0.8747   -0.0000
        3 O1     3s         0.3273   -0.0000   -0.2610    0.0000    0.0000   -0.5184   -0.4764   -0.0000   -1.5455   -0.0000
        4 O1     2px       -0.0000   -0.0002    0.0000    0.0455   -0.0056   -0.0000    0.0000   -0.2307   -0.0000    0.0232
        5 O1     3px        0.0000    0.0293   -0.0000   -0.0120   -0.0159   -0.0000    0.0000   -0.4089   -0.0000    0.0524
        6 O1     2py       -0.0000    0.0025   -0.0000    0.0030    0.0851    0.0000   -0.0000   -0.0151    0.0000   -0.3529
        7 O1     3py       -0.0000   -0.4468    0.0000   -0.0008    0.2423    0.0000    0.0000   -0.0268    0.0000   -0.7985
        8 O1     2pz        0.1760    0.0000    0.3707   -0.0000   -0.0000    0.5891    0.2588    0.0000    0.4391    0.0000
        9 O1     3pz       -0.0157   -0.0000    0.1369   -0.0000    0.0000    0.3827   -0.1852    0.0000    0.8050    0.0000
       10 O1     3d2-      -0.0991    0.0000    0.0385    0.0000   -0.0000    0.0200    0.0334   -0.0000   -0.0395   -0.0000
       11 O1     3d1-      -0.0000   -0.0790    0.0000   -0.0005    0.0371    0.0000    0.0000    0.0001    0.0000   -0.0560
       12 O1     3d0        0.4030   -0.0000   -0.1257    0.0000    0.0000   -0.0535    0.1981   -0.0000   -0.2336   -0.0000
       13 O1     3d1+       0.0000    0.0052   -0.0000   -0.0081   -0.0024   -0.0000   -0.0000    0.0015   -0.0000    0.0037
       14 O1     3d2+      -0.7517    0.0000    0.2922   -0.0000   -0.0000    0.1516    0.2531   -0.0000   -0.2994   -0.0000
       15 FE2    1s        -0.0010   -0.0000    0.0024   -0.0000    0.0000    0.0049    0.0003    0.0000    0.0101    0.0000
       16 FE2    2s        -0.0077   -0.0000    0.0172   -0.0000    0.0000    0.0355    0.0024    0.0000    0.0729    0.0000
       17 FE2    3s        -0.0413    0.0000    0.0915   -0.0000   -0.0000    0.1818    0.0217    0.0000    0.3642    0.0000
       18 FE2    4s        -0.0431    0.0000    0.2250   -0.0000   -0.0000    0.6145    0.2503    0.0000    1.1248    0.0000
       19 FE2    5s        -0.0284   -0.0000   -0.0664   -0.0000    0.0000   -0.6795    0.0467   -0.0000   -0.0764    0.0000
       20 FE2    2px       -0.0000   -0.0001    0.0000   -0.0002    0.0001    0.0000   -0.0000    0.0012    0.0000   -0.0002
       21 FE2    3px       -0.0000   -0.0007   -0.0000   -0.0145    0.0016    0.0000   -0.0000    0.0298    0.0000   -0.0033
       22 FE2    4px        0.0000    0.0421   -0.0000   -0.5555    0.0189   -0.0000   -0.0000    0.9081    0.0000   -0.0544
       23 FE2    5px       -0.0000   -0.0067    0.0000    0.8164   -0.0574   -0.0000   -0.0000    0.6168    0.0000   -0.0343
       24 FE2    2py        0.0000    0.0011   -0.0000   -0.0000   -0.0008   -0.0000   -0.0000    0.0001   -0.0000    0.0023
       25 FE2    3py        0.0000    0.0110    0.0000   -0.0010   -0.0240   -0.0000    0.0000    0.0020   -0.0000    0.0498
       26 FE2    4py       -0.0000   -0.6410    0.0000   -0.0365   -0.2876    0.0000    0.0000    0.0596   -0.0000    0.8288
       27 FE2    5py        0.0000    0.1014   -0.0000    0.0536    0.8752    0.0000    0.0000    0.0405   -0.0000    0.5230
       28 FE2    2pz       -0.0022    0.0000    0.0038    0.0000   -0.0000    0.0069    0.0015    0.0000    0.0141    0.0000
       29 FE2    3pz       -0.0342    0.0000    0.0856   -0.0000   -0.0000    0.1328    0.0434    0.0000    0.2608    0.0000
       30 FE2    4pz        0.2365    0.0000    0.7355    0.0000    0.0000    0.3550    0.8628    0.0000    1.1561    0.0000
       31 FE2    5pz       -0.0801   -0.0000   -0.7632    0.0000   -0.0000   -0.0507    0.7258    0.0000    0.0705    0.0000
       32 FE2    3d2-       0.0012   -0.0000   -0.0007    0.0000    0.0000   -0.0004   -0.0009   -0.0000   -0.0014   -0.0000
       33 FE2    4d2-      -0.0021    0.0000   -0.0004    0.0000   -0.0000   -0.0004   -0.0034   -0.0000   -0.0163   -0.0000
       34 FE2    3d1-       0.0000    0.0789   -0.0000   -0.0003   -0.0588   -0.0000   -0.0000    0.0034   -0.0000    0.1371
       35 FE2    4d1-       0.0000    0.5517   -0.0000    0.0012   -0.3067   -0.0000   -0.0000    0.0088   -0.0000    0.6176
       36 FE2    3d0       -0.0020    0.0000    0.0956   -0.0000   -0.0000    0.2390    0.1138    0.0000    0.2248    0.0000
       37 FE2    4d0        0.1133    0.0000    0.0999   -0.0000   -0.0000    0.9118    0.3485   -0.0000    0.3096    0.0000
       38 FE2    3d1+      -0.0000   -0.0052    0.0000   -0.0048    0.0039    0.0000    0.0000    0.0519    0.0000   -0.0090
       39 FE2    4d1+      -0.0000   -0.0362    0.0000    0.0189    0.0201    0.0000    0.0000    0.1347    0.0000   -0.0405
       40 FE2    3d2+       0.0089   -0.0000   -0.0050    0.0000    0.0000   -0.0028   -0.0070   -0.0000   -0.0110   -0.0000
       41 FE2    4d2+      -0.0163    0.0000   -0.0034    0.0000   -0.0000   -0.0031   -0.0256   -0.0000   -0.1236   -0.0000
       42 FE2    4f3-       0.0000    0.0008   -0.0000   -0.0001   -0.0011   -0.0000   -0.0000   -0.0000   -0.0000    0.0005
       43 FE2    4f2-      -0.0002   -0.0000   -0.0007    0.0000   -0.0000    0.0018   -0.0022   -0.0000   -0.0057   -0.0000
       44 FE2    4f1-       0.0000    0.0236    0.0000    0.0092    0.1292    0.0000    0.0000   -0.0180    0.0000   -0.2850
       45 FE2    4f0        0.0105    0.0000    0.2980   -0.0000   -0.0000   -0.1600    0.4262   -0.0000   -0.0765   -0.0000
       46 FE2    4f1+      -0.0000   -0.0016   -0.0000    0.1405   -0.0085   -0.0000   -0.0000   -0.2746   -0.0000    0.0187
       47 FE2    4f2+      -0.0018   -0.0000   -0.0054   -0.0000   -0.0000    0.0137   -0.0167   -0.0000   -0.0436   -0.0000
       48 FE2    4f3+      -0.0000   -0.0002    0.0000   -0.0006    0.0002    0.0000    0.0000   -0.0002   -0.0000   -0.0001
 
          Orbital           31        32        33        34        35        36        37        38        39        40    
[...]
        5 O1     3px       -0.0000   -0.0000    0.7810    0.0375    0.5393   -0.0399   -0.0108   -0.0000   -0.0000   -0.0000
        6 O1     2py       -0.0000   -0.0000    0.0013    0.1917   -0.0007    0.1292   -0.0010    0.0001    0.0000   -0.0002
        7 O1     3py       -0.0000   -0.0000    0.0517   -0.5512    0.0420    0.5131   -0.0076    0.0002    0.0001    0.0002
        8 O1     2pz       -0.0936   -0.0975   -0.0000    0.0000    0.0000    0.0002    0.0011   -0.3268    0.0322    0.0124
        9 O1     3pz        0.2785   -0.2642   -0.0000    0.0001    0.0003    0.0006    0.0041   -0.9648   -0.5385   -0.0469
       10 O1     3d2-      -0.0099    0.0159   -0.0000    0.0001   -0.0009   -0.0001   -0.0296   -0.0067   -0.0430   -0.0140
       11 O1     3d1-      -0.0000    0.0000   -0.0010    0.0866    0.0023    0.1658   -0.0016   -0.0001   -0.0000    0.0001
       12 O1     3d0       -0.0312   -0.0606   -0.0000    0.0000   -0.0001   -0.0001   -0.0020    0.5230   -0.7216    0.1259
       13 O1     3d1+      -0.0000   -0.0000   -0.0144   -0.0056    0.0176   -0.0112   -0.0006    0.0001    0.0004    0.0045
       14 O1     3d2+      -0.0752    0.1210    0.0000   -0.0001    0.0003    0.0001    0.0049   -0.0492   -0.3284   -0.1087
       15 FE2    1s         0.0011   -0.0024   -0.0000    0.0000    0.0000    0.0000    0.0000   -0.0076   -0.0024    0.0001
       16 FE2    2s         0.0075   -0.0170   -0.0000    0.0000    0.0000    0.0000    0.0002   -0.0550   -0.0166    0.0005
       17 FE2    3s         0.0293   -0.0810   -0.0000    0.0000    0.0001    0.0002    0.0010   -0.2640   -0.0629    0.0036
       18 FE2    4s        -0.4714   -0.3880   -0.0000    0.0001    0.0001    0.0004    0.0023   -0.6880   -0.1928    0.0583
       19 FE2    5s        -0.7853   -0.0270   -0.0000    0.0000   -0.0000   -0.0000   -0.0006    0.1320   -0.0737    0.0365
       20 FE2    2px        0.0000    0.0000   -0.0021   -0.0001   -0.0015    0.0001    0.0000    0.0000    0.0000    0.0000
       21 FE2    3px        0.0000    0.0000   -0.0375   -0.0017   -0.0295    0.0022    0.0006    0.0000    0.0000    0.0001
       22 FE2    4px       -0.0000    0.0000    0.0809   -0.0018   -0.2548    0.0252    0.0050    0.0000    0.0001    0.0006
       23 FE2    5px       -0.0000    0.0000    0.0439    0.0001   -0.0376    0.0039    0.0007    0.0000    0.0000    0.0001
       24 FE2    2py        0.0000    0.0000   -0.0001    0.0015   -0.0001   -0.0014    0.0000   -0.0000   -0.0000   -0.0000
       25 FE2    3py        0.0000    0.0000   -0.0025    0.0254   -0.0023   -0.0289    0.0004   -0.0000   -0.0000   -0.0000
       26 FE2    4py       -0.0000    0.0000    0.0053    0.0230   -0.0207   -0.3380    0.0041   -0.0002   -0.0001    0.0001
       27 FE2    5py        0.0000    0.0000    0.0029   -0.0018   -0.0031   -0.0528    0.0006   -0.0000   -0.0000    0.0000
       28 FE2    2pz        0.0003   -0.0027   -0.0000    0.0000    0.0000    0.0000    0.0000   -0.0089   -0.0006    0.0003
       29 FE2    3pz       -0.0059   -0.0416   -0.0000    0.0000    0.0000    0.0001    0.0005   -0.1588    0.0083    0.0059
       30 FE2    4pz       -0.1139    0.3231   -0.0000    0.0001    0.0000    0.0003    0.0017   -0.5721    0.0521    0.0617
       31 FE2    5pz       -0.0118    0.0983   -0.0000    0.0000   -0.0000    0.0000    0.0000   -0.0348    0.0119    0.0143
       32 FE2    3d2-       0.0005    0.0002   -0.0000    0.0003   -0.0022   -0.0013   -0.1202   -0.0032    0.0013    0.0152
       33 FE2    4d2-       0.0029    0.0038   -0.0002    0.0023   -0.0183   -0.0104   -0.9817   -0.0271    0.0065    0.1216
       34 FE2    3d1-       0.0000    0.0000   -0.0045   -0.0500    0.0020   -0.0270    0.0002   -0.0000   -0.0000    0.0001
       35 FE2    4d1-       0.0000    0.0000   -0.0130   -0.5985    0.0368    0.0205   -0.0022   -0.0001   -0.0000    0.0004
       36 FE2    3d0       -0.1029   -0.0487   -0.0000    0.0000    0.0000    0.0001    0.0004   -0.1393    0.0904    0.0053
       37 FE2    4d0       -0.5387   -0.1918   -0.0000    0.0000   -0.0000    0.0001    0.0006   -0.2322    0.2438    0.0135
       38 FE2    3d1+       0.0000    0.0000   -0.0693    0.0033    0.0361    0.0014   -0.0004    0.0000    0.0000    0.0004
       39 FE2    4d1+       0.0000    0.0000   -0.2044    0.0397    0.5494   -0.0075   -0.0084    0.0001    0.0002    0.0011
       40 FE2    3d2+       0.0038    0.0019   -0.0000    0.0000    0.0002    0.0002    0.0153   -0.0209    0.0108    0.1196
       41 FE2    4d2+       0.0224    0.0286   -0.0001    0.0003    0.0015    0.0018    0.1252   -0.1781    0.0550    0.9603
       42 FE2    4f3-       0.0000   -0.0000   -0.0000   -0.0006   -0.0002   -0.0009   -0.0000   -0.0000   -0.0000   -0.0003
       43 FE2    4f2-       0.0009    0.0095   -0.0000   -0.0000    0.0000    0.0000    0.0024    0.0122   -0.0348    0.0044
       44 FE2    4f1-      -0.0000    0.0000    0.0386   -0.3192   -0.0448   -0.8660    0.0094   -0.0005   -0.0002    0.0005
       45 FE2    4f0        0.1987   -0.7912    0.0000   -0.0000    0.0000    0.0000    0.0004   -0.1265    0.1936   -0.0153
       46 FE2    4f1+      -0.0000    0.0000    0.5840    0.0207   -0.5372    0.0631    0.0101    0.0000   -0.0000   -0.0001
       47 FE2    4f2+       0.0070    0.0721   -0.0000    0.0000    0.0000    0.0000   -0.0005    0.0911   -0.2663    0.0129
       48 FE2    4f3+       0.0000   -0.0000   -0.0001   -0.0004   -0.0011    0.0014   -0.0002   -0.0001   -0.0002   -0.0017
 
          Orbital           41        42        43        44        45        46        47    
          Energy            1.3012    3.0719    2.0465    3.0997    1.9723    3.1524    3.1731
          Occ. No.          0.0000    0.0000    0.0000    0.0000    0.0000    0.0000    0.0000
 
        1 O1     1s        -0.0000    0.0000    0.0000   -0.0147    0.0000    0.0000   -0.0000
        2 O1     2s        -0.0001    0.0000    0.0001   -0.1221    0.0002    0.0000   -0.0001
        3 O1     3s        -0.0003    0.0004   -0.0000   -0.0943    0.0009   -0.0000   -0.0006
        4 O1     2px       -0.3354   -0.0741   -0.0040    0.0000   -0.1215    0.0000   -0.0000
        5 O1     3px       -0.6322   -0.1440   -0.0037    0.0000   -0.2733    0.0001   -0.0000
        6 O1     2py       -0.0168   -0.0023   -0.1429    0.0000   -0.0080   -0.0006   -0.0000
        7 O1     3py       -0.0300   -0.0030   -0.3231    0.0000   -0.0179   -0.0016   -0.0000
        8 O1     2pz        0.0000    0.0000   -0.0000    0.0671   -0.0000   -0.0000   -0.0000
        9 O1     3pz       -0.0001    0.0004   -0.0002   -0.0109    0.0005   -0.0000   -0.0005
       10 O1     3d2-      -0.0015    0.0941    0.0191   -0.0185    0.0699   -0.0000    0.0967
       11 O1     3d1-      -0.0466   -0.0143    1.0157   -0.0000    0.0672    0.0004    0.0000
       12 O1     3d0        0.0001   -0.0001    0.0000   -0.2565   -0.0003    0.0000    0.0002
       13 O1     3d1+      -0.1400    0.0520   -0.0723    0.0000    1.0250   -0.0000   -0.0000
       14 O1     3d2+       0.0000   -0.0121   -0.0026   -0.1419   -0.0086   -0.0000   -0.0131
       15 FE2    1s        -0.0000    0.0000   -0.0000    0.0006    0.0000   -0.0000   -0.0000
       16 FE2    2s        -0.0000    0.0000   -0.0000    0.0048    0.0000   -0.0000   -0.0000
       17 FE2    3s         0.0000    0.0000   -0.0000    0.0285    0.0000   -0.0000   -0.0001
       18 FE2    4s         0.0001    0.0000   -0.0001    0.0923   -0.0001   -0.0000   -0.0000
       19 FE2    5s         0.0000   -0.0001    0.0000   -0.0193   -0.0001    0.0000    0.0001
       20 FE2    2px        0.0019    0.0005   -0.0001   -0.0000    0.0019   -0.0000    0.0000
       21 FE2    3px        0.0383    0.0110   -0.0016   -0.0000    0.0445   -0.0000    0.0000
       22 FE2    4px        0.3158    0.0819   -0.0066   -0.0000    0.2645   -0.0001    0.0000
       23 FE2    5px        0.0468    0.0113   -0.0006   -0.0000    0.0359    0.0000    0.0000
       24 FE2    2py        0.0000   -0.0000    0.0021   -0.0000    0.0001    0.0000    0.0000
       25 FE2    3py        0.0008   -0.0002    0.0476   -0.0000    0.0029    0.0003    0.0000
       26 FE2    4py        0.0102   -0.0001    0.2896   -0.0000    0.0173    0.0008    0.0000
       27 FE2    5py        0.0017    0.0000    0.0371   -0.0000    0.0024   -0.0006    0.0000
       28 FE2    2pz        0.0000    0.0000   -0.0000    0.0015   -0.0000   -0.0000   -0.0000
       29 FE2    3pz        0.0000    0.0000   -0.0000    0.0319   -0.0000   -0.0000   -0.0000
       30 FE2    4pz        0.0001   -0.0001   -0.0001    0.1130   -0.0002   -0.0000    0.0001
       31 FE2    5pz        0.0000   -0.0000   -0.0000    0.0114   -0.0001   -0.0000    0.0000
       32 FE2    3d2-       0.0003   -0.0025   -0.0005    0.0009   -0.0020    0.0000   -0.0062
       33 FE2    4d2-       0.0020   -0.0093   -0.0018    0.0017   -0.0078    0.0000   -0.0105
       34 FE2    3d1-       0.0050    0.0001    0.1412   -0.0000    0.0086    0.0004    0.0000
       35 FE2    4d1-       0.0432    0.0063    0.3890   -0.0000    0.0227    0.0017    0.0000
       36 FE2    3d0        0.0000   -0.0000   -0.0000    0.0526   -0.0000   -0.0000    0.0000
       37 FE2    4d0        0.0000   -0.0001   -0.0000    0.1173   -0.0001   -0.0000    0.0001
       38 FE2    3d1+       0.1544    0.0400   -0.0031   -0.0000    0.1318   -0.0000    0.0000
       39 FE2    4d1+       0.8762    0.1954    0.0097   -0.0000    0.3459   -0.0001    0.0000
       40 FE2    3d2+       0.0001    0.0001    0.0001    0.0071   -0.0002    0.0000    0.0011
       41 FE2    4d2+       0.0010   -0.0006    0.0003    0.0129   -0.0030    0.0000    0.0039
       42 FE2    4f3-       0.0371   -0.1904   -0.0009    0.0000    0.0159   -0.9807   -0.0000
       43 FE2    4f2-      -0.0001    0.0059    0.0012    0.1249    0.0044   -0.0000   -0.9900
       44 FE2    4f1-       0.0235    0.0020    0.2505   -0.0000    0.0118    0.0011   -0.0000
       45 FE2    4f0       -0.0000   -0.0000   -0.0000    0.1336    0.0000    0.0000   -0.0000
       46 FE2    4f1+       0.4934    0.1098    0.0029   -0.0000    0.1792   -0.0001    0.0000
       47 FE2    4f2+       0.0000   -0.0008   -0.0002    0.9471   -0.0006   -0.0000    0.1305
       48 FE2    4f3+       0.1865   -0.9556   -0.0085    0.0000    0.0799    0.1953   -0.0000
--
 
 
++    Molecular properties:
      ---------------------
 
      Charge (e):
                      =    2.0000
      Dipole Moment (Debye):
      Origin of the operator (Ang)=    0.0000    0.0000    0.0000
                   X= -1.4438E-12               Y=  1.3018E-11               Z= -3.9593E+00           Total=  3.9593E+00
      Center of Charge (Ang)
                     X=   -0.00000000               Y=    0.00000000               Z=   -0.41215332
      Quadrupole Moment (Debye*Ang):
      Origin of the operator (Ang)=    0.0000    0.0000    0.2461
                  XX= -1.2782E+01              XY=  9.0319E-02              XZ=  2.3116E-12              YY= -1.4152E+01
                  YZ= -2.3401E-11              ZZ= -1.0628E+01
      In traceless form (Debye*Ang)
                  XX= -3.9160E-01              XY=  1.3548E-01              XZ=  3.4674E-12              YY= -2.4470E+00
                  YZ= -3.5101E-11              ZZ=  2.8386E+00
--
 
 
  Input file to MOLDEN was generated!
 
 ###############################################################################
 ###############################################################################
 ###                                                                         ###
 ###                                                                         ###
 ###    RunFile label BirthCertificate                                       ###
 ###    was used       49 times                                              ###
 ###                                                                         ###
 ###                                                                         ###
 ###############################################################################
 ###############################################################################
 ###############################################################################
 ###############################################################################
 ###                                                                         ###
 ###                                                                         ###
 ###    RunFile label nBas                                                   ###
 ###    was used       86 times                                              ###
 ###                                                                         ###
 ###                                                                         ###
 ###############################################################################
 ###############################################################################
--- Stop Module: scf at Sun Dec 22 16:34:20 2024 /rc=_RC_ALL_IS_WELL_ ---
*** files: 2.00.LprOrb 2.00.LoProp.molden 2.00.scf.molden 2.00.scf.h5 2.00.UhfOrb 2.00.UnaOrb xmldump
    saved to directory /home/grierjones/DDCASPT2/iron_oxo_DDCASPT2/cluster/2.00

>>> COPY /tmp/2.00/2.00.scf.h5 /home/grierjones/DDCASPT2/iron_oxo_DDCASPT2/cluster/2.00/

*** symbolic link created: INPORB -> 2.00.UnaOrb
--- Start Module: rasscf at Sun Dec 22 16:34:20 2024 ---
 
()()()()()()()()()()()()()()()()()()()()()()()()()()()()()()()()()()()()()()()()()()()()()()()()()()

                                              &RASSCF

                                   only a single process is used
                       available to each process: 2.0 GB of memory, 1 thread?
()()()()()()()()()()()()()()()()()()()()()()()()()()()()()()()()()()()()()()()()()()()()()()()()()()
 
 ###############################################################################
 ###############################################################################
 ###                                                                         ###
 ###                                                                         ###
 ###    LUMORB input error.                                                  ###
 ###                                                                         ###
 ###                                                                         ###
 ###############################################################################
 ###############################################################################
  Keyword LUMORB used with file name StartOrbFile=
 /home/grierjones/DDCASPT2/iron_oxo_DDCASPT2/cluster/1.98/1.98.RasOrb           
                                                  
  but that file cannot be used. Perhaps it does
  not exist?
 
 *************** WARNING ****************
 ###############################################################################
 ###############################################################################
 ###                                                                         ###
 ###                                                                         ###
 ###    Too many macro-iterations.                                           ###
 ###                                                                         ###
 ###                                                                         ###
 ###############################################################################
 ###############################################################################
 Too many macro-iterations requested.
 Reset to maximum, new MAXIT=     200
 ****************************************
 
 *************** WARNING ****************
 ###############################################################################
 ###############################################################################
 ###                                                                         ###
 ###                                                                         ###
 ###    Too many SX-iterations.                                              ###
 ###                                                                         ###
 ###                                                                         ###
 ###############################################################################
 ###############################################################################
 Too many SX-iterations requested.
 Reset to maximum, new ITMAX=     100
 ****************************************
 
      Header of the ONEINT file:
      --------------------------
      
      Integrals generated by seward 4.2.0  , Sun Dec 22 16:34:18 2024
 
 
      OrdInt status: non-squared
 
 
      Cartesian coordinates in Angstrom:
      -----------------------------------------------------
      No.  Label        X            Y            Z        
      -----------------------------------------------------
       1   O1         0.00000000   0.00000000   1.79760000
       2   FE2        0.00000000   0.00000000  -0.19760000
      -----------------------------------------------------
      Nuclear repulsion energy =   55.16683030
 
++    Wave function specifications:
      -----------------------------
 
      Number of closed shell electrons          22
      Number of electrons in active shells      10
      Max number of holes in RAS1 space          0
      Max nr of electrons in RAS3 space          0
      Number of inactive orbitals               11
      Number of active orbitals                 14
      Number of secondary orbitals              23
      Spin quantum number                      2.0
      State symmetry                             1
--
 
++    Orbital specifications:
      -----------------------
 
      Symmetry species                           1
                                                 a
      Frozen orbitals                            0
      Inactive orbitals                         11
      Active orbitals                           14
      RAS1 orbitals                              0
      RAS2 orbitals                             14
      RAS3 orbitals                              0
      Secondary orbitals                        23
      Deleted orbitals                           0
      Number of basis functions                 48
--
 
++    CI expansion specifications:
      ----------------------------
 
      Number of CSFs                        975975
      Number of determinants               1249248
      Number of root(s) required                 1
      Root chosen for geometry opt.              1
      CI root used                               1
         
      highest root included in the CI            1
      max. size of the explicit Hamiltonian    200
--
 
++    Optimization specifications:
      ----------------------------
 
      RASSCF algorithm: Conventional
      Maximum number of macro iterations       200
      Maximum number of SX iterations          100
      Threshold for RASSCF energy            0.100E-07
      Threshold for max MO rotation          0.100E+00
      Threshold for max BLB element          0.100E-03
      Level shift parameter                  0.500E+00
      Make Quasi-Newton update
--
 
 RdVec: File 
 /home/grierjones/DDCASPT2/iron_oxo_DDCASPT2/cluster/1.98/1.98.RasOrb 
  not found!
[ process      0]: xquit (rc =    128): _INTERNAL_ERROR_
abort: 
--- Stop Module: rasscf at Sun Dec 22 16:34:20 2024 /rc=_RC_FLOATING_EXCEPTION_ ---
*** files: xmldump
    saved to directory /home/grierjones/DDCASPT2/iron_oxo_DDCASPT2/cluster/2.00

.########################.
.# Non-zero return code #.
.########################.

    Timing: Wall=2.20 User=1.92 System=0.28
************************************
*** WorkDir at /tmp/2.00 cleaned ***
************************************
