[Molden Format]
[N_Atoms]
                     2
[Atoms] (AU)
B1          1      5           0.00000000      0.00000000      0.00000000
BE2         2      4           0.00000000      0.00000000      1.51178090
[Charge] (Mulliken)
 -0.421000680257357     
  0.421000680257334     
[GTO] (AU)
   1
   s  14
  3.336021700E+04  1.039699991E-04
  4.972095200E+03  5.254399956E-04
  1.125641700E+03  2.509059979E-03
  3.164913600E+02  1.031887991E-02
  1.020072600E+02  3.636632969E-02
  3.629587300E+01  1.064607991E-01
  1.397141000E+01  2.403999880E-01
  5.741156000E+00  3.748581168E-01
  2.494268000E+00  3.100066974E-01
  1.114202000E+00  7.922455933E-02
  4.215490000E-01 -4.947589958E-03
  1.696330000E-01 -7.737119935E-03
  6.853500000E-02 -1.501079987E-03
  2.398700000E-02 -1.333299989E-04
   s  14
  3.336021700E+04 -2.030000008E-05
  4.972095200E+03 -1.025700004E-04
  1.125641700E+03 -4.911300020E-04
  3.164913600E+02 -2.026570008E-03
  1.020072600E+02 -7.261010030E-03
  3.629587300E+01 -2.197722009E-02
  1.397141000E+01 -5.408428022E-02
  5.741156000E+00 -1.022402604E-01
  2.494268000E+00 -1.423595206E-01
  1.114202000E+00 -4.658690019E-02
  4.215490000E-01  3.799402916E-01
  1.696330000E-01  5.890463624E-01
  6.853500000E-02  1.749075107E-01
  2.398700000E-02 -1.142030005E-03
   p   9
  5.500000000E+01  1.229800005E-03
  1.336610100E+01  8.827380035E-03
  4.135394000E+00  3.843340015E-02
  1.481256000E+00  1.150031805E-01
  6.021360000E-01  2.733674011E-01
  2.556360000E-01  4.061972116E-01
  1.111510000E-01  3.014967912E-01
  4.764800000E-02  7.684809030E-02
  1.667700000E-02 -8.170000032E-06
 
   2
   s  14
  2.262859900E+04  8.443999941E-05
  3.372318100E+03  4.601499968E-04
  7.603504000E+02  2.285389984E-03
  2.117404800E+02  9.648129932E-03
  6.722346800E+01  3.494469975E-02
  2.337217700E+01  1.061099893E-01
  8.721373000E+00  2.458240383E-01
  3.468091000E+00  3.862428773E-01
  1.452144000E+00  3.105526078E-01
  6.086150000E-01  6.415933955E-02
  2.576860000E-01 -2.265049984E-03
  1.041760000E-01 -5.217499963E-04
  4.242700000E-02 -8.757499938E-04
  1.484900000E-02  1.242199991E-04
   s  14
  2.262859900E+04 -1.586999994E-05
  3.372318100E+03 -8.656999968E-05
  7.603504000E+02 -4.302199984E-04
  2.117404800E+02 -1.825079993E-03
  6.722346800E+01 -6.682749976E-03
  2.337217700E+01 -2.095119992E-02
  8.721373000E+00 -5.200308981E-02
  3.468091000E+00 -9.849176964E-02
  1.452144000E+00 -1.355800695E-01
  6.086150000E-01 -6.429875976E-02
  2.576860000E-01  3.125414989E-01
  1.041760000E-01  6.270468577E-01
  4.242700000E-02  2.110231492E-01
  1.484900000E-02 -4.104669985E-03
   p   9
  3.371018400E+01  1.069960000E-03
  8.057649500E+00  6.828550001E-03
  2.836471400E+00  2.119065000E-02
  1.099965700E+00  5.843696001E-02
  4.433964000E-01  2.020920800E-01
  1.822264000E-01  4.582953101E-01
  7.572410000E-02  3.691239601E-01
  3.168540000E-02  6.611471001E-02
  1.108990000E-02  1.405160000E-03
 
[MO]
Sym=     1a  
Ene=    -8.0399
Spin= Alpha
Occup=    1.00000
   1         0.99768175
   2         0.01797901
   3        -0.00000000
   4        -0.00000000
   5         0.01198359
   6         0.02513245
   7        -0.00561368
   8        -0.00000000
   9         0.00000000
  10        -0.00593712
Sym=     1a  
Ene=    -8.0276
Spin= Beta
Occup=    1.00000
   1         0.99741359
   2         0.01419103
   3         0.00000000
   4        -0.00000000
   5         0.01090780
   6         0.02590913
   7        -0.00379843
   8         0.00000000
   9         0.00000000
  10        -0.00614184
Sym=     2a  
Ene=    -5.2396
Spin= Alpha
Occup=    1.00000
   1        -0.08080487
   2        -0.00422863
   3        -0.00000000
   4         0.00000000
   5         0.01787594
   6         0.99513230
   7        -0.00001260
   8         0.00000000
   9        -0.00000000
  10        -0.01967576
Sym=     2a  
Ene=    -5.2323
Spin= Beta
Occup=    1.00000
   1        -0.08024344
   2        -0.00680649
   3        -0.00000000
   4         0.00000000
   5         0.01615019
   6         0.99642452
   7         0.00051047
   8         0.00000000
   9        -0.00000000
  10        -0.01933228
Sym=     3a  
Ene=    -0.6549
Spin= Alpha
Occup=    1.00000
   1        -0.08098557
   2         0.71077823
   3         0.00000000
   4         0.00000000
   5         0.13888291
   6        -0.22891185
   7         0.27628542
   8         0.00000000
   9         0.00000000
  10        -0.17763202
Sym=     3a  
Ene=    -0.5576
Spin= Beta
Occup=    1.00000
   1        -0.07415570
   2         0.70728833
   3        -0.00000000
   4         0.00000000
   5         0.08390955
   6        -0.20579086
   7         0.30622259
   8         0.00000000
   9         0.00000000
  10        -0.13311812
Sym=     4a  
Ene=    -0.4933
Spin= Alpha
Occup=    1.00000
   1         0.00000000
   2         0.00000000
   3         0.66191141
   4         0.29134356
   5        -0.00000000
   6        -0.00000000
   7        -0.00000000
   8         0.30719626
   9         0.13521394
  10        -0.00000000
Sym=     4a  
Ene=    -0.4277
Spin= Beta
Occup=    1.00000
   1        -0.00000000
   2        -0.00000000
   3        -0.27482910
   4         0.62439176
   5        -0.00000000
   6         0.00000000
   7         0.00000000
   8        -0.15333173
   9         0.34835856
  10        -0.00000000
Sym=     5a  
Ene=    -0.4512
Spin= Alpha
Occup=    1.00000
   1        -0.00000000
   2        -0.00000000
   3        -0.28247787
   4         0.64176922
   5        -0.00000000
   6         0.00000000
   7         0.00000000
   8        -0.14499326
   9         0.32941416
  10        -0.00000000
Sym=     5a  
Ene=    -0.0826
Spin= Beta
Occup=    0.00000
   1        -0.00000000
   2         0.00000000
   3         0.49540490
   4         0.21805490
   5        -0.00000000
   6        -0.00000000
   7        -0.00000000
   8         0.48290015
   9         0.21255087
  10        -0.00000000
Sym=     6a  
Ene=    -0.0420
Spin= Alpha
Occup=    0.00000
   1         0.05864818
   2        -0.27240967
   3        -0.00000000
   4         0.00000000
   5         0.14158075
   6         0.02121738
   7         0.64775707
   8         0.00000000
   9        -0.00000000
  10         0.67511706
Sym=     6a  
Ene=    -0.0306
Spin= Beta
Occup=    0.00000
   1         0.07190608
   2        -0.23858837
   3        -0.00000000
   4         0.00000000
   5         0.13246380
   6         0.01595280
   7         0.60485208
   8         0.00000000
   9        -0.00000000
  10         0.70940947
Sym=     7a  
Ene=     0.1731
Spin= Alpha
Occup=    0.00000
   1         0.19921410
   2         0.56338965
   3         0.00000000
   4        -0.00000000
   5        -1.14624126
   6         0.26993125
   7        -0.06589989
   8        -0.00000000
   9         0.00000000
  10         0.91176727
Sym=     7a  
Ene=     0.1953
Spin= Beta
Occup=    0.00000
   1         0.21295237
   2         0.58223773
   3         0.00000000
   4        -0.00000000
   5        -1.14362411
   6         0.26290500
   7        -0.13019643
   8        -0.00000000
   9         0.00000000
  10         0.93278716
Sym=     8a  
Ene=     0.3051
Spin= Alpha
Occup=    0.00000
   1        -0.00000000
   2        -0.00000000
   3        -1.21652744
   4        -0.53546052
   5        -0.00000000
   6         0.00000000
   7         0.00000000
   8         1.35044296
   9         0.59440410
  10        -0.00000000
Sym=     8a  
Ene=     0.3443
Spin= Beta
Occup=    0.00000
   1         0.00000000
   2         0.00000000
   3         0.54412132
   4        -1.23620413
   5         0.00000000
   6        -0.00000000
   7        -0.00000000
   8        -0.58999019
   9         1.34041488
  10        -0.00000000
Sym=     9a  
Ene=     0.3350
Spin= Alpha
Occup=    0.00000
   1         0.00000000
   2         0.00000000
   3         0.54019005
   4        -1.22727259
   5         0.00000000
   6        -0.00000000
   7        -0.00000000
   8        -0.59209458
   9         1.34519591
  10         0.00000000
Sym=     9a  
Ene=     0.3894
Spin= Beta
Occup=    0.00000
   1        -0.00000000
   2        -0.00000000
   3        -1.29330573
   4        -0.56925487
   5        -0.00000000
   6         0.00000000
   7         0.00000000
   8         1.29802665
   9         0.57133280
  10        -0.00000000
Sym=    10a  
Ene=     0.7469
Spin= Alpha
Occup=    0.00000
   1        -0.93741998
   2        -3.99863157
   3         0.00000000
   4        -0.00000000
   5        -0.78631300
   6         1.30932271
   7         3.53741977
   8        -0.00000000
   9        -0.00000000
  10        -1.90390008
Sym=    10a  
Ene=     0.7681
Spin= Beta
Occup=    0.00000
   1        -0.93437032
   2        -3.99872311
   3         0.00000000
   4        -0.00000000
   5        -0.79944387
   6         1.31366018
   7         3.54076992
   8        -0.00000000
   9        -0.00000000
  10        -1.88478860
