[Molden Format]
[N_Atoms]
                     2
[Atoms] (AU)
C1          1      6           0.00000000      0.00000000      0.00000000
LI2         2      3           0.00000000      0.00000000      3.96842486
[Charge] (Mulliken)
 -0.264678264058990     
  0.264678264058952     
[GTO] (AU)
   1
   s  14
  5.055750100E+04  1.128874000E-04
  7.524785600E+03  5.295373000E-04
  1.694327600E+03  2.450038300E-03
  4.728227900E+02  1.005398470E-02
  1.517107500E+02  3.545398060E-02
  5.391874600E+01  1.044071086E-01
  2.065931100E+01  2.412894918E-01
  8.383976000E+00  3.834225483E-01
  3.577015000E+00  3.078514393E-01
  1.547118000E+00  6.872442990E-02
  6.130130000E-01  2.224445000E-04
  2.460680000E-01  1.976748900E-03
  9.908700000E-02  2.057859400E-03
  3.468000000E-02  4.182020000E-04
   s  14
  5.055750100E+04 -2.507420000E-05
  7.524785600E+03 -1.175945000E-04
  1.694327600E+03 -5.456275000E-04
  4.728227900E+02 -2.245077100E-03
  1.517107500E+02 -8.043471800E-03
  5.391874600E+01 -2.442588710E-02
  2.065931100E+01 -6.136791180E-02
  8.383976000E+00 -1.177767835E-01
  3.577015000E+00 -1.550487783E-01
  1.547118000E+00 -1.933316860E-02
  6.130130000E-01  3.996930678E-01
  2.460680000E-01  5.589420949E-01
  9.908700000E-02  1.711195023E-01
  3.468000000E-02  7.456244600E-03
   p   9
  8.333315500E+01  1.344656000E-03
  1.955761100E+01  1.023555500E-02
  6.080365000E+00  4.520067100E-02
  2.179317000E+00  1.410756198E-01
  8.651500000E-01  3.047388085E-01
  3.619440000E-01  3.995281011E-01
  1.547400000E-01  2.719163432E-01
  6.542900000E-02  5.857669330E-02
  2.290000000E-02 -1.263813000E-04
 
   2
   s  14
  9.497934400E+03  9.668999974E-05
  1.416811200E+03  6.087099984E-04
  3.214599400E+02  3.101519992E-03
  9.112416300E+01  1.266904997E-02
  2.999989100E+01  4.248012989E-02
  1.101763100E+01  1.150183297E-01
  4.372801000E+00  2.398650094E-01
  1.831256000E+00  3.584300090E-01
  8.022610000E-01  3.048527792E-01
  3.626480000E-01  8.824261976E-02
  1.139950000E-01 -8.445899977E-04
  5.123700000E-02 -7.943959979E-03
  2.246800000E-02 -3.764419990E-03
  7.860000000E-03 -8.868999976E-05
   s  14
  9.497934400E+03 -1.244999993E-05
  1.416811200E+03 -7.838999954E-05
  3.214599400E+02 -4.007099976E-04
  9.112416300E+01 -1.645249990E-03
  2.999989100E+01 -5.634599967E-03
  1.101763100E+01 -1.590780991E-02
  4.372801000E+00 -3.612581979E-02
  1.831256000E+00 -6.459927962E-02
  8.022610000E-01 -1.008321794E-01
  3.626480000E-01 -9.757613942E-02
  1.139950000E-01  2.301215886E-01
  5.123700000E-02  6.102389764E-01
  2.246800000E-02  2.849406083E-01
  7.860000000E-03  4.026899976E-03
   p   9
  1.311950400E+01  1.524940000E-03
  3.077424200E+00  8.314830000E-03
  1.098800500E+00  1.933203000E-02
  4.357784000E-01  4.934293000E-02
  1.802432000E-01  1.623554000E-01
  7.613330000E-02  3.847505400E-01
  3.254650000E-02  4.336100400E-01
  1.401820000E-02  1.287005900E-01
  4.906400000E-03 -1.018520000E-03
 
[MO]
Sym=     1a  
Ene=   -11.1280
Spin= Alpha
Occup=    1.00000
   1         1.00017143
   2         0.00044185
   3        -0.00000000
   4        -0.00000000
   5         0.00166360
   6        -0.00038448
   7        -0.00169291
   8         0.00000000
   9        -0.00000000
  10         0.00170825
Sym=     1a  
Ene=   -11.1080
Spin= Beta
Occup=    1.00000
   1         1.00012344
   2        -0.00185670
   3        -0.00000000
   4        -0.00000000
   5         0.00147189
   6        -0.00030250
   7        -0.00130571
   8         0.00000000
   9         0.00000000
  10         0.00123393
Sym=     2a  
Ene=    -2.4709
Spin= Alpha
Occup=    1.00000
   1        -0.00010893
   2         0.00298728
   3         0.00000000
   4        -0.00000000
   5         0.00166046
   6         0.99969282
   7         0.01254230
   8         0.00000000
   9        -0.00000000
  10         0.00182126
Sym=     2a  
Ene=    -2.4692
Spin= Beta
Occup=    1.00000
   1        -0.00009077
   2         0.00271493
   3         0.00000000
   4        -0.00000000
   5         0.00182889
   6         0.99969087
   7         0.01249176
   8         0.00000000
   9        -0.00000000
  10         0.00192091
Sym=     3a  
Ene=    -0.6700
Spin= Alpha
Occup=    1.00000
   1        -0.00625265
   2         0.93580873
   3         0.00000000
   4         0.00000000
   5         0.06082589
   6        -0.03982468
   7         0.07725712
   8         0.00000000
   9        -0.00000000
  10        -0.06668548
Sym=     3a  
Ene=    -0.5666
Spin= Beta
Occup=    1.00000
   1        -0.00787889
   2         0.90292609
   3        -0.00000000
   4        -0.00000000
   5         0.06044493
   6        -0.03871432
   7         0.11033515
   8         0.00000000
   9         0.00000000
  10        -0.10236365
Sym=     4a  
Ene=    -0.2999
Spin= Alpha
Occup=    1.00000
   1         0.00000000
   2         0.00000000
   3         0.93756488
   4         0.02600612
   5        -0.00000000
   6        -0.00000000
   7        -0.00000000
   8         0.19620133
   9         0.00544222
  10         0.00000000
Sym=     4a  
Ene=    -0.2181
Spin= Beta
Occup=    1.00000
   1        -0.02317804
   2        -0.30751867
   3        -0.00000000
   4         0.00000000
   5         0.83814714
   6        -0.05678950
   7         0.40547295
   8         0.00000000
   9         0.00000000
  10        -0.09802306
Sym=     5a  
Ene=    -0.2118
Spin= Alpha
Occup=    1.00000
   1        -0.02653666
   2        -0.32389908
   3         0.00000000
   4        -0.00000000
   5         0.76659011
   6        -0.05243125
   7         0.52908688
   8         0.00000000
   9        -0.00000000
  10        -0.08129651
Sym=     5a  
Ene=     0.0229
Spin= Beta
Occup=    0.00000
   1         0.01034903
   2         0.04136974
   3         0.00000000
   4        -0.00000000
   5        -0.32955205
   6         0.01255579
   7         0.74028132
   8        -0.00000000
   9        -0.00000000
  10         0.62545745
Sym=     6a  
Ene=     0.0179
Spin= Alpha
Occup=    0.00000
   1         0.01380343
   2         0.08174229
   3         0.00000000
   4         0.00000000
   5        -0.41830060
   6         0.01846841
   7         0.68149201
   8        -0.00000000
   9         0.00000000
  10         0.64257656
Sym=     6a  
Ene=     0.0501
Spin= Beta
Occup=    0.00000
   1         0.00000000
   2         0.00000000
   3        -0.00573422
   4         0.20672828
   5        -0.00000000
   6         0.00000000
   7         0.00000000
   8        -0.02588421
   9         0.93316981
  10         0.00000000
Sym=     7a  
Ene=     0.0419
Spin= Alpha
Occup=    0.00000
   1        -0.00000000
   2        -0.00000000
   3        -0.00662751
   4         0.23893285
   5         0.00000000
   6        -0.00000000
   7        -0.00000000
   8        -0.02549185
   9         0.91902450
  10        -0.00000000
Sym=     7a  
Ene=     0.0594
Spin= Beta
Occup=    0.00000
   1         0.00000000
   2         0.00000000
   3         0.14606005
   4         0.00405141
   5        -0.00000000
   6         0.00000000
   7         0.00000000
   8         0.95698020
   9         0.02654466
  10         0.00000000
Sym=     8a  
Ene=     0.0839
Spin= Alpha
Occup=    0.00000
   1        -0.00000000
   2        -0.00000000
   3        -0.41478607
   4        -0.01150531
   5        -0.00000000
   6         0.00000000
   7         0.00000000
   8         1.00627055
   9         0.02791188
  10        -0.00000000
Sym=     8a  
Ene=     0.2335
Spin= Beta
Occup=    0.00000
   1         0.08939711
   2         0.80275942
   3         0.00000000
   4         0.00000000
   5         0.51619189
   6        -0.05798799
   7        -0.72789173
   8        -0.00000000
   9        -0.00000000
  10         0.98622709
Sym=     9a  
Ene=     0.2203
Spin= Alpha
Occup=    0.00000
   1         0.08756952
   2         0.75408799
   3         0.00000000
   4        -0.00000000
   5         0.56113033
   6        -0.05969948
   7        -0.70999268
   8         0.00000000
   9         0.00000000
  10         0.97977855
Sym=     9a  
Ene=     0.2587
Spin= Beta
Occup=    0.00000
   1        -0.00000000
   2        -0.00000000
   3        -0.02785335
   4         1.00416074
   5        -0.00000000
   6         0.00000000
   7         0.00000000
   8         0.01177702
   9        -0.42458155
  10        -0.00000000
Sym=    10a  
Ene=     0.2328
Spin= Alpha
Occup=    0.00000
   1        -0.00000000
   2        -0.00000000
   3         0.02765442
   4        -0.99698870
   5        -0.00000000
   6         0.00000000
   7         0.00000000
   8        -0.01260382
   9         0.45438898
  10        -0.00000000
Sym=    10a  
Ene=     0.3129
Spin= Beta
Occup=    0.00000
   1        -0.00000000
   2        -0.00000000
   3         1.01476196
   4         0.02814741
   5        -0.00000000
   6         0.00000000
   7         0.00000000
   8        -0.36778291
   9        -0.01020154
  10        -0.00000000
