[Molden Format]
[N_Atoms]
                     2
[Atoms] (AU)
N1          1      7           0.00000000      0.00000000      0.00000000
O2          2      8           0.00000000      0.00000000      4.72431531
[Charge] (Mulliken)
  5.965807075129703E-002
 -5.965807075134322E-002
[GTO] (AU)
   1
   s  14
  7.476171500E+04  1.182599996E-04
  1.112365400E+04  5.172899983E-04
  2.512685700E+03  2.266659992E-03
  7.037772900E+02  9.145289970E-03
  2.254787900E+02  3.239342989E-02
  7.961581000E+01  9.770792967E-02
  3.023728300E+01  2.317036792E-01
  1.226362200E+01  3.768898887E-01
  5.265086000E+00  3.177420689E-01
  2.333471000E+00  8.211308973E-02
  9.018560000E-01  3.312089989E-03
  3.583360000E-01  3.720819988E-03
  1.410930000E-01  3.165419989E-03
  4.938300000E-02  4.595799985E-04
   s  14
  7.476171500E+04 -2.707000010E-05
  1.112365400E+04 -1.183700004E-04
  2.512685700E+03 -5.203800020E-04
  7.037772900E+02 -2.102930008E-03
  2.254787900E+02 -7.568200028E-03
  7.961581000E+01 -2.346767009E-02
  3.023728300E+01 -6.042901023E-02
  1.226362200E+01 -1.170549104E-01
  5.265086000E+00 -1.555321506E-01
  2.333471000E+00 -2.468935009E-02
  9.018560000E-01  3.625054514E-01
  3.583360000E-01  5.550845021E-01
  1.410930000E-01  2.148376908E-01
  4.938300000E-02  8.983850034E-03
   p   9
  1.266665700E+02  1.233630000E-03
  2.983738900E+01  9.493409996E-03
  9.394038000E+00  4.293961998E-02
  3.405104000E+00  1.362925399E-01
  1.350000000E+00  2.921362499E-01
  5.576960000E-01  3.887887598E-01
  2.324490000E-01  2.946801399E-01
  9.426400000E-02  8.012875997E-02
  3.299200000E-02  5.405199998E-04
 
   2
   s  14
  1.053749500E+05  1.238600013E-04
  1.567924000E+04  5.120100053E-04
  3.534544700E+03  2.152910022E-03
  9.873651600E+02  8.528440089E-03
  3.159787500E+02  3.018049031E-02
  1.116542800E+02  9.099702095E-02
  4.269945100E+01  2.177936423E-01
  1.739559600E+01  3.686245738E-01
  7.438309000E+00  3.366707335E-01
  3.222862000E+00  9.657630101E-02
  1.253877000E+00  2.144520022E-03
  4.951550000E-01  1.194350012E-03
  1.916650000E-01  5.390200056E-04
  6.708300000E-02  2.103400022E-04
   s  14
  1.053749500E+05 -2.815000008E-05
  1.567924000E+04 -1.163000003E-04
  3.534544700E+03 -4.909200013E-04
  9.873651600E+02 -1.946160005E-03
  3.159787500E+02 -7.005300019E-03
  1.116542800E+02 -2.167814006E-02
  4.269945100E+01 -5.641213015E-02
  1.739559600E+01 -1.127053003E-01
  7.438309000E+00 -1.589119704E-01
  3.222862000E+00 -3.355083009E-02
  1.253877000E+00  3.531902810E-01
  4.951550000E-01  5.534199315E-01
  1.916650000E-01  2.301839106E-01
  6.708300000E-02  1.127267003E-02
   p   9
  2.000000000E+02  9.173000030E-04
  4.653336700E+01  7.377140024E-03
  1.462180900E+01  3.483515011E-02
  5.313064000E+00  1.144397004E-01
  2.102525000E+00  2.554966408E-01
  8.502230000E-01  3.722557412E-01
  3.375970000E-01  3.323314911E-01
  1.288920000E-01  1.400847905E-01
  4.511200000E-02  2.395784008E-02
 
[MO]
Sym=     1a  
Ene=   -20.6710
Spin= Alpha
Occup=    1.00000
   1        -0.00000567
   2        -0.00007732
   3        -0.00000000
   4        -0.00000000
   5        -0.00007982
   6         1.00000039
   7        -0.00022914
   8        -0.00000000
   9         0.00000000
  10        -0.00007198
Sym=     1a  
Ene=   -20.6710
Spin= Beta
Occup=    1.00000
   1        -0.00000443
   2        -0.00007313
   3        -0.00000000
   4        -0.00000000
   5        -0.00007400
   6         1.00000036
   7        -0.00021185
   8        -0.00000000
   9        -0.00000000
  10        -0.00006705
Sym=     2a  
Ene=   -15.6310
Spin= Alpha
Occup=    1.00000
   1         0.99999079
   2        -0.00467526
   3        -0.00000000
   4         0.00000000
   5         0.00013954
   6        -0.00001982
   7        -0.00025285
   8        -0.00000000
   9         0.00000000
  10         0.00027927
Sym=     2a  
Ene=   -15.5990
Spin= Beta
Occup=    1.00000
   1         0.99997696
   2        -0.00693813
   3         0.00000000
   4        -0.00000000
   5         0.00011835
   6        -0.00001790
   7        -0.00018726
   8        -0.00000000
   9         0.00000000
  10         0.00016648
Sym=     3a  
Ene=    -1.2315
Spin= Alpha
Occup=    1.00000
   1        -0.00062060
   2         0.05335145
   3         0.00000000
   4         0.00000000
   5         0.01687153
   6         0.00009941
   7         0.99560861
   8        -0.00000000
   9         0.00000000
  10         0.00122176
Sym=     3a  
Ene=    -1.2330
Spin= Beta
Occup=    1.00000
   1        -0.00063770
   2         0.03010095
   3         0.00000000
   4         0.00000000
   5         0.01666874
   6         0.00011389
   7         0.99736880
   8        -0.00000000
   9         0.00000000
  10         0.00417743
Sym=     4a  
Ene=    -1.0263
Spin= Alpha
Occup=    1.00000
   1         0.00469575
   2         0.99785564
   3         0.00000000
   4        -0.00000000
   5         0.00888707
   6        -0.00139066
   7        -0.08710494
   8        -0.00000000
   9         0.00000000
  10        -0.01462501
Sym=     4a  
Ene=    -0.8848
Spin= Beta
Occup=    1.00000
   1         0.00685381
   2         0.99754737
   3         0.00000000
   4        -0.00000000
   5         0.00622618
   6        -0.00137837
   7        -0.06333212
   8         0.00000000
   9        -0.00000000
  10        -0.02776808
Sym=     5a  
Ene=    -0.5608
Spin= Alpha
Occup=    1.00000
   1         0.00000000
   2         0.00000000
   3         0.54758143
   4         0.22621692
   5        -0.00000000
   6         0.00000000
   7        -0.00000000
   8         0.72949996
   9         0.30137113
  10         0.00000000
Sym=     5a  
Ene=    -0.5545
Spin= Beta
Occup=    1.00000
   1         0.00000000
   2         0.00000000
   3        -0.00444599
   4         0.01076198
   5        -0.00000000
   6         0.00000000
   7         0.00000000
   8        -0.38167129
   9         0.92387480
  10         0.00000000
Sym=     6a  
Ene=    -0.5541
Spin= Alpha
Occup=    1.00000
   1        -0.00000000
   2        -0.00000000
   3        -0.00506174
   4         0.01225245
   5         0.00000000
   6        -0.00000000
   7        -0.00000000
   8        -0.38164652
   9         0.92381485
  10        -0.00000000
Sym=     6a  
Ene=    -0.5540
Spin= Beta
Occup=    1.00000
   1         0.00000000
   2         0.00000000
   3         0.00836117
   4         0.00345417
   5         0.00000000
   6         0.00000000
   7         0.00000000
   8         0.92396632
   9         0.38170910
  10         0.00000000
Sym=     7a  
Ene=    -0.5418
Spin= Alpha
Occup=    1.00000
   1        -0.00000000
   2        -0.00000000
   3         0.74500166
   4         0.30777519
   5         0.00000000
   6        -0.00000000
   7        -0.00000000
   8        -0.56806927
   9        -0.23468086
  10        -0.00000000
Sym=     7a  
Ene=    -0.4336
Spin= Beta
Occup=    1.00000
   1        -0.00092255
   2        -0.02238450
   3        -0.00000000
   4         0.00000000
   5         0.97749662
   6        -0.00376628
   7        -0.07577730
   8        -0.00000000
   9         0.00000000
  10        -0.14651564
Sym=     8a  
Ene=    -0.4753
Spin= Alpha
Occup=    1.00000
   1        -0.00069312
   2        -0.01917214
   3         0.00000000
   4        -0.00000000
   5         0.98518657
   6        -0.00379423
   7        -0.07711752
   8         0.00000000
   9        -0.00000000
  10        -0.11180998
Sym=     8a  
Ene=     0.0513
Spin= Beta
Occup=    0.00000
   1         0.00577278
   2         0.10288531
   3        -0.00000000
   4         0.00000000
   5         0.23866367
   6        -0.00101041
   7        -0.02566934
   8         0.00000000
   9        -0.00000000
  10         0.99625480
Sym=     9a  
Ene=     0.0554
Spin= Alpha
Occup=    0.00000
   1         0.00556676
   2         0.09049715
   3         0.00000000
   4        -0.00000000
   5         0.20450033
   6        -0.00085493
   7        -0.01963812
   8        -0.00000000
   9         0.00000000
  10         1.00103050
Sym=     9a  
Ene=     0.1068
Spin= Beta
Occup=    0.00000
   1        -0.00000000
   2        -0.00000000
   3        -0.38194226
   4         0.92453073
   5        -0.00000000
   6         0.00000000
   7         0.00000000
   8         0.01505622
   9        -0.03644513
  10        -0.00000000
Sym=    10a  
Ene=     0.0692
Spin= Alpha
Occup=    0.00000
   1        -0.00000000
   2        -0.00000000
   3         0.38193460
   4        -0.92451218
   5        -0.00000000
   6         0.00000000
   7         0.00000000
   8        -0.01567151
   9         0.03793451
  10        -0.00000000
Sym=    10a  
Ene=     0.1805
Spin= Beta
Occup=    0.00000
   1         0.00000000
   2        -0.00000000
   3         0.92455556
   4         0.38195252
   5         0.00000000
   6        -0.00000000
   7        -0.00000000
   8        -0.03404593
   9        -0.01406506
  10         0.00000000
