[Molden Format]
[N_Atoms]
                     2
[Atoms] (AU)
BE1         1      4           0.00000000      0.00000000      0.00000000
F2          2      9           0.00000000      0.00000000      4.91328792
[Charge] (Mulliken)
  0.117225189967160     
 -0.117225189967201     
[GTO] (AU)
   1
   s  14
  2.262859900E+04  8.443999941E-05
  3.372318100E+03  4.601499968E-04
  7.603504000E+02  2.285389984E-03
  2.117404800E+02  9.648129932E-03
  6.722346800E+01  3.494469975E-02
  2.337217700E+01  1.061099893E-01
  8.721373000E+00  2.458240383E-01
  3.468091000E+00  3.862428773E-01
  1.452144000E+00  3.105526078E-01
  6.086150000E-01  6.415933955E-02
  2.576860000E-01 -2.265049984E-03
  1.041760000E-01 -5.217499963E-04
  4.242700000E-02 -8.757499938E-04
  1.484900000E-02  1.242199991E-04
   s  14
  2.262859900E+04 -1.586999994E-05
  3.372318100E+03 -8.656999968E-05
  7.603504000E+02 -4.302199984E-04
  2.117404800E+02 -1.825079993E-03
  6.722346800E+01 -6.682749976E-03
  2.337217700E+01 -2.095119992E-02
  8.721373000E+00 -5.200308981E-02
  3.468091000E+00 -9.849176964E-02
  1.452144000E+00 -1.355800695E-01
  6.086150000E-01 -6.429875976E-02
  2.576860000E-01  3.125414989E-01
  1.041760000E-01  6.270468577E-01
  4.242700000E-02  2.110231492E-01
  1.484900000E-02 -4.104669985E-03
   p   9
  3.371018400E+01  1.069960000E-03
  8.057649500E+00  6.828550001E-03
  2.836471400E+00  2.119065000E-02
  1.099965700E+00  5.843696001E-02
  4.433964000E-01  2.020920800E-01
  1.822264000E-01  4.582953101E-01
  7.572410000E-02  3.691239601E-01
  3.168540000E-02  6.611471001E-02
  1.108990000E-02  1.405160000E-03
 
   2
   s  14
  1.031094600E+05  1.713099991E-04
  1.528100700E+04  7.123999962E-04
  3.441539200E+03  2.990479984E-03
  9.670948300E+02  1.164036994E-02
  3.140353400E+02  3.968642979E-02
  1.134423000E+02  1.128546094E-01
  4.464472700E+01  2.473650687E-01
  1.894287400E+01  3.672702681E-01
  8.532743000E+00  2.896286985E-01
  3.919401000E+00  7.786681959E-02
  1.568157000E+00  4.562139976E-03
  6.232900000E-01  2.468879987E-03
  2.408610000E-01  1.106309994E-03
  8.430100000E-02  1.739699991E-04
   s  14
  1.031094600E+05 -4.044999995E-05
  1.528100700E+04 -1.682299998E-04
  3.441539200E+03 -7.084299991E-04
  9.670948300E+02 -2.767999996E-03
  3.140353400E+02 -9.611379987E-03
  1.134423000E+02 -2.833957996E-02
  4.464472700E+01 -6.839343991E-02
  1.894287400E+01 -1.237379298E-01
  8.532743000E+00 -1.512859698E-01
  3.919401000E+00 -9.099909988E-03
  1.568157000E+00  3.716257695E-01
  6.232900000E-01  5.500214393E-01
  2.408610000E-01  2.092318697E-01
  8.430100000E-02  8.074639989E-03
   p   9
  2.453302900E+02  1.024860004E-03
  5.691900500E+01  8.344290032E-03
  1.760456800E+01  4.078927016E-02
  6.274995000E+00  1.351370605E-01
  2.447030000E+00  2.798830811E-01
  9.950600000E-01  3.597966414E-01
  4.039730000E-01  3.055347412E-01
  1.548100000E-01  1.354703905E-01
  5.418400000E-02  2.804449011E-02
 
[MO]
Sym=     1a  
Ene=   -26.3630
Spin= Alpha
Occup=    1.00000
   1        -0.00000734
   2        -0.00013579
   3        -0.00000000
   4        -0.00000000
   5        -0.00019042
   6         1.00000087
   7        -0.00238152
   8         0.00000000
   9         0.00000000
  10        -0.00014257
Sym=     1a  
Ene=   -26.3250
Spin= Beta
Occup=    1.00000
   1        -0.00000554
   2        -0.00004560
   3        -0.00000000
   4         0.00000000
   5        -0.00006604
   6         0.99999331
   7        -0.00398771
   8        -0.00000000
   9         0.00000000
  10        -0.00009635
Sym=     2a  
Ene=    -4.7433
Spin= Alpha
Occup=    1.00000
   1         0.99999653
   2         0.00216620
   3         0.00000000
   4         0.00000000
   5        -0.00060265
   6         0.00000839
   7         0.00012153
   8        -0.00000000
   9         0.00000000
  10        -0.00010057
Sym=     2a  
Ene=    -4.7398
Spin= Beta
Occup=    1.00000
   1         0.99999635
   2         0.00237251
   3         0.00000000
   4         0.00000000
   5         0.00063234
   6        -0.00001135
   7        -0.00003681
   8        -0.00000000
   9         0.00000000
  10        -0.00007812
Sym=     3a  
Ene=    -1.6217
Spin= Alpha
Occup=    1.00000
   1        -0.00101865
   2        -0.00017233
   3        -0.00000000
   4        -0.00000000
   5        -0.00027729
   6         0.00242722
   7         0.99995886
   8        -0.00000000
   9         0.00000000
  10        -0.01401569
Sym=     3a  
Ene=    -1.4648
Spin= Beta
Occup=    1.00000
   1        -0.00094521
   2         0.01195881
   3        -0.00000000
   4        -0.00000000
   5         0.00956165
   6         0.00377220
   7         0.99732235
   8        -0.00000000
   9         0.00000000
  10         0.00494308
Sym=     4a  
Ene=    -0.7728
Spin= Alpha
Occup=    1.00000
   1         0.00843756
   2         0.00150278
   3         0.00000000
   4         0.00000000
   5         0.00365566
   6         0.00006935
   7         0.01324155
   8        -0.00000000
   9         0.00000000
  10         1.00061701
Sym=     4a  
Ene=    -0.6474
Spin= Beta
Occup=    1.00000
   1        -0.00000000
   2        -0.00000000
   3        -0.00060233
   4         0.00512175
   5         0.00000000
   6        -0.00000000
   7        -0.00000000
   8        -0.11675775
   9         0.99282550
  10        -0.00000000
Sym=     5a  
Ene=    -0.6873
Spin= Alpha
Occup=    1.00000
   1         0.00000000
   2         0.00000000
   3        -0.00164048
   4         0.00001082
   5         0.00000000
   6        -0.00000000
   7        -0.00000000
   8         1.00007851
   9        -0.00659550
  10         0.00000000
Sym=     5a  
Ene=    -0.6474
Spin= Beta
Occup=    1.00000
   1         0.00000000
   2        -0.00000000
   3        -0.00512175
   4        -0.00060233
   5        -0.00000000
   6         0.00000000
   7         0.00000000
   8        -0.99282550
   9        -0.11675775
  10         0.00000000
Sym=     6a  
Ene=    -0.6873
Spin= Alpha
Occup=    1.00000
   1        -0.00000000
   2        -0.00000000
   3        -0.00001082
   4        -0.00164048
   5         0.00000000
   6        -0.00000000
   7        -0.00000000
   8         0.00659550
   9         1.00007851
  10        -0.00000000
Sym=     6a  
Ene=    -0.3325
Spin= Beta
Occup=    1.00000
   1         0.00455820
   2        -0.87417352
   3         0.00000000
   4         0.00000000
   5        -0.30562231
   6         0.01102676
   7         0.13632576
   8         0.00000000
   9        -0.00000000
  10         0.28010831
Sym=     7a  
Ene=    -0.3357
Spin= Alpha
Occup=    1.00000
   1        -0.00169426
   2         0.95451750
   3         0.00000000
   4         0.00000000
   5        -0.30688696
   6        -0.00238870
   7        -0.03448681
   8        -0.00000000
   9        -0.00000000
  10         0.06369694
Sym=     7a  
Ene=     0.0439
Spin= Beta
Occup=    0.00000
   1         0.00502075
   2         0.50686923
   3         0.00000000
   4         0.00000000
   5        -0.50075839
   6         0.00377166
   7         0.03218926
   8         0.00000000
   9         0.00000000
  10         0.68870159
Sym=     8a  
Ene=     0.0888
Spin= Alpha
Occup=    0.00000
   1        -0.00000000
   2        -0.00000000
   3         0.03643350
   4         1.00125931
   5        -0.00000000
   6         0.00000000
   7         0.00000000
   8        -0.00219685
   9        -0.06037342
  10        -0.00000000
Sym=     8a  
Ene=     0.0981
Spin= Beta
Occup=    0.00000
   1         0.00000000
   2        -0.00000000
   3         1.00190824
   4         0.00189570
   5         0.00000000
   6        -0.00000000
   7        -0.00000000
   8        -0.06719703
   9        -0.00012714
  10         0.00000000
Sym=     9a  
Ene=     0.0888
Spin= Alpha
Occup=    0.00000
   1        -0.00000000
   2         0.00000000
   3         1.00125931
   4        -0.03643350
   5         0.00000000
   6        -0.00000000
   7        -0.00000000
   8        -0.06037342
   9         0.00219685
  10         0.00000000
Sym=     9a  
Ene=     0.0981
Spin= Beta
Occup=    0.00000
   1         0.00000000
   2        -0.00000000
   3         0.00189570
   4        -1.00190824
   5        -0.00000000
   6         0.00000000
   7         0.00000000
   8        -0.00012714
   9         0.06719703
  10         0.00000000
Sym=    10a  
Ene=     0.1268
Spin= Alpha
Occup=    0.00000
   1         0.00144902
   2         0.33259912
   3        -0.00000000
   4         0.00000000
   5         0.97696292
   6        -0.01680955
   7        -0.18351719
   8        -0.00000000
   9        -0.00000000
  10         0.17234371
Sym=    10a  
Ene=     0.1793
Spin= Beta
Occup=    0.00000
   1         0.00553811
   2         0.02210048
   3        -0.00000000
   4         0.00000000
   5         0.83928196
   6        -0.01261960
   7        -0.14379850
   8         0.00000000
   9         0.00000000
  10         0.69454700
