[Molden Format]
[N_Atoms]
                     2
[Atoms] (AU)
BE1         1      4           0.00000000      0.00000000      0.00000000
BE2         2      4           0.00000000      0.00000000      1.32280829
[Charge] (Mulliken)
 -1.580957587066223E-013
  1.287858708565182E-013
[GTO] (AU)
   1
   s  14
  2.262859900E+04  8.443999941E-05
  3.372318100E+03  4.601499968E-04
  7.603504000E+02  2.285389984E-03
  2.117404800E+02  9.648129932E-03
  6.722346800E+01  3.494469975E-02
  2.337217700E+01  1.061099893E-01
  8.721373000E+00  2.458240383E-01
  3.468091000E+00  3.862428773E-01
  1.452144000E+00  3.105526078E-01
  6.086150000E-01  6.415933955E-02
  2.576860000E-01 -2.265049984E-03
  1.041760000E-01 -5.217499963E-04
  4.242700000E-02 -8.757499938E-04
  1.484900000E-02  1.242199991E-04
   s  14
  2.262859900E+04 -1.586999994E-05
  3.372318100E+03 -8.656999968E-05
  7.603504000E+02 -4.302199984E-04
  2.117404800E+02 -1.825079993E-03
  6.722346800E+01 -6.682749976E-03
  2.337217700E+01 -2.095119992E-02
  8.721373000E+00 -5.200308981E-02
  3.468091000E+00 -9.849176964E-02
  1.452144000E+00 -1.355800695E-01
  6.086150000E-01 -6.429875976E-02
  2.576860000E-01  3.125414989E-01
  1.041760000E-01  6.270468577E-01
  4.242700000E-02  2.110231492E-01
  1.484900000E-02 -4.104669985E-03
   p   9
  3.371018400E+01  1.069960000E-03
  8.057649500E+00  6.828550001E-03
  2.836471400E+00  2.119065000E-02
  1.099965700E+00  5.843696001E-02
  4.433964000E-01  2.020920800E-01
  1.822264000E-01  4.582953101E-01
  7.572410000E-02  3.691239601E-01
  3.168540000E-02  6.611471001E-02
  1.108990000E-02  1.405160000E-03
 
   2
   s  14
  2.262859900E+04  8.443999941E-05
  3.372318100E+03  4.601499968E-04
  7.603504000E+02  2.285389984E-03
  2.117404800E+02  9.648129932E-03
  6.722346800E+01  3.494469975E-02
  2.337217700E+01  1.061099893E-01
  8.721373000E+00  2.458240383E-01
  3.468091000E+00  3.862428773E-01
  1.452144000E+00  3.105526078E-01
  6.086150000E-01  6.415933955E-02
  2.576860000E-01 -2.265049984E-03
  1.041760000E-01 -5.217499963E-04
  4.242700000E-02 -8.757499938E-04
  1.484900000E-02  1.242199991E-04
   s  14
  2.262859900E+04 -1.586999994E-05
  3.372318100E+03 -8.656999968E-05
  7.603504000E+02 -4.302199984E-04
  2.117404800E+02 -1.825079993E-03
  6.722346800E+01 -6.682749976E-03
  2.337217700E+01 -2.095119992E-02
  8.721373000E+00 -5.200308981E-02
  3.468091000E+00 -9.849176964E-02
  1.452144000E+00 -1.355800695E-01
  6.086150000E-01 -6.429875976E-02
  2.576860000E-01  3.125414989E-01
  1.041760000E-01  6.270468577E-01
  4.242700000E-02  2.110231492E-01
  1.484900000E-02 -4.104669985E-03
   p   9
  3.371018400E+01  1.069960000E-03
  8.057649500E+00  6.828550001E-03
  2.836471400E+00  2.119065000E-02
  1.099965700E+00  5.843696001E-02
  4.433964000E-01  2.020920800E-01
  1.822264000E-01  4.582953101E-01
  7.572410000E-02  3.691239601E-01
  3.168540000E-02  6.611471001E-02
  1.108990000E-02  1.405160000E-03
 
[MO]
Sym=     1a  
Ene=    -5.6892
Spin= Alpha
Occup=    2.00000
   1         0.66537626
   2        -0.00704016
   3         0.00000000
   4         0.00000000
   5         0.01731777
   6         0.66537626
   7        -0.00704016
   8        -0.00000000
   9        -0.00000000
  10        -0.01731777
Sym=     2a  
Ene=    -5.0587
Spin= Alpha
Occup=    2.00000
   1        -0.75336816
   2        -0.00012077
   3        -0.00000000
   4         0.00000000
   5        -0.00125250
   6         0.75336816
   7         0.00012077
   8        -0.00000000
   9         0.00000000
  10        -0.00125250
Sym=     3a  
Ene=    -0.4872
Spin= Alpha
Occup=    2.00000
   1        -0.10085570
   2         0.51388839
   3         0.00000000
   4        -0.00000000
   5         0.06157011
   6        -0.10085570
   7         0.51388839
   8        -0.00000000
   9         0.00000000
  10        -0.06157011
Sym=     4a  
Ene=    -0.0203
Spin= Alpha
Occup=    0.01042
   1        -0.00661432
   2        -0.64120667
   3        -0.00000000
   4         0.00000000
   5         0.41572193
   6         0.00661432
   7         0.64120667
   8        -0.00000000
   9         0.00000000
  10         0.41572193
Sym=     5a  
Ene=     0.0000
Spin= Alpha
Occup=    1.98958
   1        -0.00000000
   2        -0.00000000
   3         0.49733538
   4         0.14512476
   5        -0.00000000
   6         0.00000000
   7         0.00000000
   8         0.49733538
   9         0.14512476
  10        -0.00000000
Sym=     6a  
Ene=    -0.1289
Spin= Alpha
Occup=    0.00000
   1        -0.00000000
   2         0.00000000
   3        -0.14512476
   4         0.49733538
   5        -0.00000000
   6         0.00000000
   7        -0.00000000
   8        -0.14512476
   9         0.49733538
  10        -0.00000000
Sym=     7a  
Ene=     0.2774
Spin= Alpha
Occup=    0.00000
   1         0.32768744
   2         0.21396816
   3        -0.00000000
   4         0.00000000
   5        -1.36364829
   6         0.32768744
   7         0.21396816
   8         0.00000000
   9        -0.00000000
  10         1.36364829
Sym=     8a  
Ene=     0.3327
Spin= Alpha
Occup=    0.00000
   1         0.00000000
   2        -0.00000000
   3        -1.83301962
   4        -0.53488359
   5        -0.00000000
   6         0.00000000
   7        -0.00000000
   8         1.83301962
   9         0.53488359
  10         0.00000000
Sym=     9a  
Ene=     0.3330
Spin= Alpha
Occup=    0.00000
   1         0.00000000
   2        -0.00000000
   3         0.53488359
   4        -1.83301962
   5        -0.00000000
   6         0.00000000
   7        -0.00000000
   8        -0.53488359
   9         1.83301962
  10         0.00000000
Sym=    10a  
Ene=     3.8628
Spin= Alpha
Occup=    0.00000
   1        -3.72547670
   2       -12.23910945
   3         0.00000000
   4        -0.00000000
   5        -3.01742721
   6         3.72547670
   7        12.23910945
   8         0.00000000
   9        -0.00000000
  10        -3.01742721
