[Molden Format]
[N_Atoms]
                     2
[Atoms] (AU)
N1          1      7           0.00000000      0.00000000      0.00000000
O2          2      8           0.00000000      0.00000000      5.10226054
[Charge] (Mulliken)
  3.374817868324520E-002
 -3.374817868329316E-002
[GTO] (AU)
   1
   s  14
  7.476171500E+04  1.182599996E-04
  1.112365400E+04  5.172899983E-04
  2.512685700E+03  2.266659992E-03
  7.037772900E+02  9.145289970E-03
  2.254787900E+02  3.239342989E-02
  7.961581000E+01  9.770792967E-02
  3.023728300E+01  2.317036792E-01
  1.226362200E+01  3.768898887E-01
  5.265086000E+00  3.177420689E-01
  2.333471000E+00  8.211308973E-02
  9.018560000E-01  3.312089989E-03
  3.583360000E-01  3.720819988E-03
  1.410930000E-01  3.165419989E-03
  4.938300000E-02  4.595799985E-04
   s  14
  7.476171500E+04 -2.707000010E-05
  1.112365400E+04 -1.183700004E-04
  2.512685700E+03 -5.203800020E-04
  7.037772900E+02 -2.102930008E-03
  2.254787900E+02 -7.568200028E-03
  7.961581000E+01 -2.346767009E-02
  3.023728300E+01 -6.042901023E-02
  1.226362200E+01 -1.170549104E-01
  5.265086000E+00 -1.555321506E-01
  2.333471000E+00 -2.468935009E-02
  9.018560000E-01  3.625054514E-01
  3.583360000E-01  5.550845021E-01
  1.410930000E-01  2.148376908E-01
  4.938300000E-02  8.983850034E-03
   p   9
  1.266665700E+02  1.233630000E-03
  2.983738900E+01  9.493409996E-03
  9.394038000E+00  4.293961998E-02
  3.405104000E+00  1.362925399E-01
  1.350000000E+00  2.921362499E-01
  5.576960000E-01  3.887887598E-01
  2.324490000E-01  2.946801399E-01
  9.426400000E-02  8.012875997E-02
  3.299200000E-02  5.405199998E-04
 
   2
   s  14
  1.053749500E+05  1.238600013E-04
  1.567924000E+04  5.120100053E-04
  3.534544700E+03  2.152910022E-03
  9.873651600E+02  8.528440089E-03
  3.159787500E+02  3.018049031E-02
  1.116542800E+02  9.099702095E-02
  4.269945100E+01  2.177936423E-01
  1.739559600E+01  3.686245738E-01
  7.438309000E+00  3.366707335E-01
  3.222862000E+00  9.657630101E-02
  1.253877000E+00  2.144520022E-03
  4.951550000E-01  1.194350012E-03
  1.916650000E-01  5.390200056E-04
  6.708300000E-02  2.103400022E-04
   s  14
  1.053749500E+05 -2.815000008E-05
  1.567924000E+04 -1.163000003E-04
  3.534544700E+03 -4.909200013E-04
  9.873651600E+02 -1.946160005E-03
  3.159787500E+02 -7.005300019E-03
  1.116542800E+02 -2.167814006E-02
  4.269945100E+01 -5.641213015E-02
  1.739559600E+01 -1.127053003E-01
  7.438309000E+00 -1.589119704E-01
  3.222862000E+00 -3.355083009E-02
  1.253877000E+00  3.531902810E-01
  4.951550000E-01  5.534199315E-01
  1.916650000E-01  2.301839106E-01
  6.708300000E-02  1.127267003E-02
   p   9
  2.000000000E+02  9.173000030E-04
  4.653336700E+01  7.377140024E-03
  1.462180900E+01  3.483515011E-02
  5.313064000E+00  1.144397004E-01
  2.102525000E+00  2.554966408E-01
  8.502230000E-01  3.722557412E-01
  3.375970000E-01  3.323314911E-01
  1.288920000E-01  1.400847905E-01
  4.511200000E-02  2.395784008E-02
 
[MO]
Sym=     1a  
Ene=   -20.6910
Spin= Alpha
Occup=    1.00000
   1        -0.00000426
   2        -0.00005699
   3        -0.00000000
   4        -0.00000000
   5        -0.00006282
   6         1.00000018
   7        -0.00025837
   8        -0.00000000
   9         0.00000000
  10        -0.00003969
Sym=     1a  
Ene=   -20.6910
Spin= Beta
Occup=    1.00000
   1        -0.00000351
   2        -0.00005451
   3         0.00000000
   4        -0.00000000
   5        -0.00005930
   6         1.00000017
   7        -0.00024945
   8        -0.00000000
   9         0.00000000
  10        -0.00003725
Sym=     2a  
Ene=   -15.6070
Spin= Alpha
Occup=    1.00000
   1         0.99999023
   2        -0.00463692
   3        -0.00000000
   4        -0.00000000
   5         0.00008912
   6        -0.00001324
   7        -0.00018891
   8        -0.00000000
   9        -0.00000000
  10         0.00023465
Sym=     2a  
Ene=   -15.5760
Spin= Beta
Occup=    1.00000
   1         0.99997694
   2        -0.00688251
   3        -0.00000000
   4        -0.00000000
   5         0.00007727
   6        -0.00001209
   7        -0.00014513
   8         0.00000000
   9         0.00000000
  10         0.00015081
Sym=     3a  
Ene=    -1.2425
Spin= Alpha
Occup=    1.00000
   1        -0.00036691
   2         0.02733554
   3        -0.00000000
   4        -0.00000000
   5         0.00939326
   6         0.00021595
   7         0.99856077
   8         0.00000000
   9         0.00000000
  10         0.00226419
Sym=     3a  
Ene=    -1.2433
Spin= Beta
Occup=    1.00000
   1        -0.00037092
   2         0.01621214
   3         0.00000000
   4         0.00000000
   5         0.00944921
   6         0.00021588
   7         0.99904313
   8        -0.00000000
   9        -0.00000000
  10         0.00371951
Sym=     4a  
Ene=    -1.0132
Spin= Alpha
Occup=    1.00000
   1         0.00464200
   2         0.99925893
   3         0.00000000
   4         0.00000000
   5         0.00799498
   6        -0.00085183
   7        -0.04977420
   8         0.00000000
   9         0.00000000
  10        -0.00931777
Sym=     4a  
Ene=    -0.8725
Spin= Beta
Occup=    1.00000
   1         0.00683921
   2         0.99883881
   3         0.00000000
   4        -0.00000000
   5         0.00705271
   6        -0.00084864
   7        -0.03846794
   8        -0.00000000
   9        -0.00000000
  10        -0.01850551
Sym=     5a  
Ene=    -0.5669
Spin= Alpha
Occup=    1.00000
   1         0.00000000
   2         0.00000000
   3        -0.09149201
   4         0.15008292
   5        -0.00000000
   6         0.00000000
   7         0.00000000
   8        -0.51061657
   9         0.83761222
  10         0.00000000
Sym=     5a  
Ene=    -0.5662
Spin= Beta
Occup=    1.00000
   1         0.00000000
   2         0.00000000
   3         0.00516321
   4         0.00314754
   5        -0.00000000
   6         0.00000000
   7         0.00000000
   8         0.85373459
   9         0.52044493
  10         0.00000000
Sym=     6a  
Ene=    -0.5660
Spin= Alpha
Occup=    1.00000
   1        -0.00000000
   2        -0.00000000
   3         0.00587776
   4         0.00358314
   5         0.00000000
   6        -0.00000000
   7        -0.00000000
   8         0.85371592
   9         0.52043355
  10        -0.00000000
Sym=     6a  
Ene=    -0.5659
Spin= Beta
Occup=    1.00000
   1        -0.00000000
   2        -0.00000000
   3        -0.00241983
   4         0.00396948
   5         0.00000000
   6        -0.00000000
   7        -0.00000000
   8        -0.52046313
   9         0.85376444
  10        -0.00000000
Sym=     7a  
Ene=    -0.5341
Spin= Alpha
Occup=    1.00000
   1         0.00000000
   2         0.00000000
   3         0.51251464
   4        -0.84072579
   5        -0.00000000
   6         0.00000000
   7         0.00000000
   8        -0.10155174
   9         0.16658483
  10         0.00000000
Sym=     7a  
Ene=    -0.4226
Spin= Beta
Occup=    1.00000
   1        -0.00052679
   2        -0.01566293
   3         0.00000000
   4         0.00000000
   5         0.98728196
   6        -0.00250852
   7        -0.05215877
   8         0.00000000
   9         0.00000000
  10        -0.10816461
Sym=     8a  
Ene=    -0.4622
Spin= Alpha
Occup=    1.00000
   1        -0.00040285
   2        -0.01347131
   3        -0.00000000
   4        -0.00000000
   5         0.99134048
   6        -0.00251698
   7        -0.05257538
   8        -0.00000000
   9        -0.00000000
  10        -0.08403789
Sym=     8a  
Ene=     0.0374
Spin= Beta
Occup=    0.00000
   1         0.00406856
   2         0.07459983
   3         0.00000000
   4         0.00000000
   5         0.17992540
   6        -0.00049174
   7        -0.01461711
   8        -0.00000000
   9        -0.00000000
  10         0.99824363
Sym=     9a  
Ene=     0.0397
Spin= Alpha
Occup=    0.00000
   1         0.00391412
   2         0.06581040
   3        -0.00000000
   4        -0.00000000
   5         0.15597991
   6        -0.00042025
   7        -0.01165679
   8         0.00000000
   9         0.00000000
  10         1.00069569
Sym=     9a  
Ene=     0.1198
Spin= Beta
Occup=    0.00000
   1        -0.00000000
   2        -0.00000000
   3         0.85400121
   4         0.52060747
   5        -0.00000000
   6         0.00000000
   7         0.00000000
   8        -0.02195417
   9        -0.01338348
  10        -0.00000000
Sym=    10a  
Ene=     0.0826
Spin= Alpha
Occup=    0.00000
   1         0.00000000
   2         0.00000000
   3         0.85399659
   4         0.52060465
   5         0.00000000
   6        -0.00000000
   7        -0.00000000
   8        -0.02266849
   9        -0.01381893
  10         0.00000000
Sym=    10a  
Ene=     0.1934
Spin= Beta
Occup=    0.00000
   1         0.00000000
   2         0.00000000
   3        -0.52061136
   4         0.85400760
   5         0.00000000
   6        -0.00000000
   7        -0.00000000
   8         0.01265598
   9        -0.02076080
  10         0.00000000
