[Molden Format]
[N_Atoms]
                     2
[Atoms] (AU)
B1          1      5           0.00000000      0.00000000      0.00000000
O2          2      8           0.00000000      0.00000000      2.83458919
[Charge] (Mulliken)
  0.391793845201183     
 -0.391793845201207     
[GTO] (AU)
   1
   s  14
  3.336021700E+04  1.039699991E-04
  4.972095200E+03  5.254399956E-04
  1.125641700E+03  2.509059979E-03
  3.164913600E+02  1.031887991E-02
  1.020072600E+02  3.636632969E-02
  3.629587300E+01  1.064607991E-01
  1.397141000E+01  2.403999880E-01
  5.741156000E+00  3.748581168E-01
  2.494268000E+00  3.100066974E-01
  1.114202000E+00  7.922455933E-02
  4.215490000E-01 -4.947589958E-03
  1.696330000E-01 -7.737119935E-03
  6.853500000E-02 -1.501079987E-03
  2.398700000E-02 -1.333299989E-04
   s  14
  3.336021700E+04 -2.030000008E-05
  4.972095200E+03 -1.025700004E-04
  1.125641700E+03 -4.911300020E-04
  3.164913600E+02 -2.026570008E-03
  1.020072600E+02 -7.261010030E-03
  3.629587300E+01 -2.197722009E-02
  1.397141000E+01 -5.408428022E-02
  5.741156000E+00 -1.022402604E-01
  2.494268000E+00 -1.423595206E-01
  1.114202000E+00 -4.658690019E-02
  4.215490000E-01  3.799402916E-01
  1.696330000E-01  5.890463624E-01
  6.853500000E-02  1.749075107E-01
  2.398700000E-02 -1.142030005E-03
   p   9
  5.500000000E+01  1.229800005E-03
  1.336610100E+01  8.827380035E-03
  4.135394000E+00  3.843340015E-02
  1.481256000E+00  1.150031805E-01
  6.021360000E-01  2.733674011E-01
  2.556360000E-01  4.061972116E-01
  1.111510000E-01  3.014967912E-01
  4.764800000E-02  7.684809030E-02
  1.667700000E-02 -8.170000032E-06
 
   2
   s  14
  1.053749500E+05  1.238600013E-04
  1.567924000E+04  5.120100053E-04
  3.534544700E+03  2.152910022E-03
  9.873651600E+02  8.528440089E-03
  3.159787500E+02  3.018049031E-02
  1.116542800E+02  9.099702095E-02
  4.269945100E+01  2.177936423E-01
  1.739559600E+01  3.686245738E-01
  7.438309000E+00  3.366707335E-01
  3.222862000E+00  9.657630101E-02
  1.253877000E+00  2.144520022E-03
  4.951550000E-01  1.194350012E-03
  1.916650000E-01  5.390200056E-04
  6.708300000E-02  2.103400022E-04
   s  14
  1.053749500E+05 -2.815000008E-05
  1.567924000E+04 -1.163000003E-04
  3.534544700E+03 -4.909200013E-04
  9.873651600E+02 -1.946160005E-03
  3.159787500E+02 -7.005300019E-03
  1.116542800E+02 -2.167814006E-02
  4.269945100E+01 -5.641213015E-02
  1.739559600E+01 -1.127053003E-01
  7.438309000E+00 -1.589119704E-01
  3.222862000E+00 -3.355083009E-02
  1.253877000E+00  3.531902810E-01
  4.951550000E-01  5.534199315E-01
  1.916650000E-01  2.301839106E-01
  6.708300000E-02  1.127267003E-02
   p   9
  2.000000000E+02  9.173000030E-04
  4.653336700E+01  7.377140024E-03
  1.462180900E+01  3.483515011E-02
  5.313064000E+00  1.144397004E-01
  2.102525000E+00  2.554966408E-01
  8.502230000E-01  3.722557412E-01
  3.375970000E-01  3.323314911E-01
  1.288920000E-01  1.400847905E-01
  4.511200000E-02  2.395784008E-02
 
[MO]
Sym=     1a  
Ene=   -20.6310
Spin= Alpha
Occup=    1.00000
   1        -0.00008894
   2        -0.00042802
   3         0.00000000
   4         0.00000000
   5        -0.00025480
   6         1.00002644
   7        -0.00068082
   8        -0.00000000
   9        -0.00000000
  10        -0.00119988
Sym=     1a  
Ene=   -20.6700
Spin= Beta
Occup=    1.00000
   1        -0.00017698
   2        -0.00095624
   3         0.00000000
   4         0.00000000
   5        -0.00084786
   6         1.00007551
   7         0.00163226
   8        -0.00000000
   9        -0.00000000
  10        -0.00150591
Sym=     2a  
Ene=    -7.8158
Spin= Alpha
Occup=    1.00000
   1         0.99980990
   2         0.01601139
   3        -0.00000000
   4        -0.00000000
   5         0.00033290
   6        -0.00018868
   7         0.00022586
   8         0.00000000
   9         0.00000000
  10        -0.00087512
Sym=     2a  
Ene=    -7.7700
Spin= Beta
Occup=    1.00000
   1         0.99986025
   2         0.01345297
   3        -0.00000000
   4        -0.00000000
   5         0.00082735
   6        -0.00012239
   7         0.00018085
   8         0.00000000
   9         0.00000000
  10        -0.00070120
Sym=     3a  
Ene=    -1.2410
Spin= Alpha
Occup=    1.00000
   1        -0.03423335
   2         0.16884267
   3        -0.00000000
   4        -0.00000000
   5         0.11556891
   6        -0.01094407
   7         0.86372614
   8         0.00000000
   9        -0.00000000
  10        -0.12570836
Sym=     3a  
Ene=    -1.3688
Spin= Beta
Occup=    1.00000
   1        -0.03256684
   2         0.06143258
   3        -0.00000000
   4         0.00000000
   5         0.06964026
   6        -0.00683820
   7         0.93821683
   8         0.00000000
   9         0.00000000
  10        -0.10893785
Sym=     4a  
Ene=    -0.6790
Spin= Alpha
Occup=    1.00000
   1         0.03415485
   2        -0.69554192
   3         0.00000000
   4         0.00000000
   5         0.07683372
   6         0.01790446
   7         0.41467082
   8         0.00000000
   9         0.00000000
  10         0.53006581
Sym=     4a  
Ene=    -0.6304
Spin= Beta
Occup=    1.00000
   1         0.04683921
   2        -0.28980953
   3        -0.00000000
   4        -0.00000000
   5        -0.20535770
   6         0.02100421
   7         0.33514670
   8        -0.00000000
   9        -0.00000000
  10         0.81279149
Sym=     5a  
Ene=    -0.5174
Spin= Alpha
Occup=    1.00000
   1         0.02676140
   2         0.56529921
   3         0.00000000
   4         0.00000000
   5        -0.58540756
   6         0.01615521
   7         0.16415761
   8         0.00000000
   9         0.00000000
  10         0.62422613
Sym=     5a  
Ene=    -0.6131
Spin= Beta
Occup=    1.00000
   1         0.00000000
   2        -0.00000000
   3        -0.04747459
   4         0.08888437
   5        -0.00000000
   6         0.00000000
   7         0.00000000
   8        -0.45771256
   9         0.85695291
  10         0.00000000
Sym=     6a  
Ene=    -0.4251
Spin= Alpha
Occup=    1.00000
   1        -0.00000000
   2        -0.00000000
   3         0.54952834
   4         0.33869641
   5         0.00000000
   6        -0.00000000
   7        -0.00000000
   8         0.53381396
   9         0.32901101
  10        -0.00000000
Sym=     6a  
Ene=    -0.6131
Spin= Beta
Occup=    1.00000
   1         0.00000000
   2        -0.00000000
   3         0.08888437
   4         0.04747459
   5        -0.00000000
   6         0.00000000
   7         0.00000000
   8         0.85695291
   9         0.45771256
  10         0.00000000
Sym=     7a  
Ene=    -0.4251
Spin= Alpha
Occup=    1.00000
   1        -0.00000000
   2        -0.00000000
   3        -0.33869641
   4         0.54952834
   5         0.00000000
   6        -0.00000000
   7         0.00000000
   8        -0.32901101
   9         0.53381396
  10        -0.00000000
Sym=     7a  
Ene=     0.0186
Spin= Beta
Occup=    0.00000
   1         0.01179093
   2         0.92424147
   3        -0.00000000
   4         0.00000000
   5        -0.41773525
   6        -0.00458503
   7        -0.10462233
   8         0.00000000
   9        -0.00000000
  10         0.33584663
Sym=     8a  
Ene=     0.0808
Spin= Alpha
Occup=    0.00000
   1         0.00000000
   2         0.00000000
   3        -0.70054842
   4        -0.38844735
   5         0.00000000
   6        -0.00000000
   7        -0.00000000
   8         0.71325664
   9         0.39549394
  10         0.00000000
Sym=     8a  
Ene=     0.1653
Spin= Beta
Occup=    0.00000
   1         0.00000000
   2        -0.00000000
   3        -0.86605673
   4        -0.54602890
   5         0.00000000
   6        -0.00000000
   7        -0.00000000
   8         0.28622132
   9         0.18045598
  10         0.00000000
Sym=     9a  
Ene=     0.0808
Spin= Alpha
Occup=    0.00000
   1         0.00000000
   2        -0.00000000
   3        -0.38844735
   4         0.70054842
   5         0.00000000
   6        -0.00000000
   7        -0.00000000
   8         0.39549394
   9        -0.71325664
  10         0.00000000
Sym=     9a  
Ene=     0.1653
Spin= Beta
Occup=    0.00000
   1         0.00000000
   2        -0.00000000
   3        -0.54602890
   4         0.86605673
   5         0.00000000
   6         0.00000000
   7        -0.00000000
   8         0.18045598
   9        -0.28622132
  10        -0.00000000
Sym=    10a  
Ene=     0.3961
Spin= Alpha
Occup=    0.00000
   1         0.05646459
   2         0.71225363
   3         0.00000000
   4         0.00000000
   5         1.02801523
   6        -0.07901634
   7        -0.74165171
   8        -0.00000000
   9        -0.00000000
  10         0.75871624
Sym=    10a  
Ene=     0.4441
Spin= Beta
Occup=    0.00000
   1         0.05242764
   2         0.63027270
   3         0.00000000
   4         0.00000000
   5         1.09418983
   6        -0.07961058
   7        -0.70103322
   8        -0.00000000
   9         0.00000000
  10         0.69049980
