[Molden Format]
[N_Atoms]
                     2
[Atoms] (AU)
LI1         1      3           0.00000000      0.00000000      0.00000000
O2          2      8           0.00000000      0.00000000      3.02356180
[Charge] (Mulliken)
  0.633625424404871     
 -0.633625424404880     
[GTO] (AU)
   1
   s  14
  9.497934400E+03  9.668999974E-05
  1.416811200E+03  6.087099984E-04
  3.214599400E+02  3.101519992E-03
  9.112416300E+01  1.266904997E-02
  2.999989100E+01  4.248012989E-02
  1.101763100E+01  1.150183297E-01
  4.372801000E+00  2.398650094E-01
  1.831256000E+00  3.584300090E-01
  8.022610000E-01  3.048527792E-01
  3.626480000E-01  8.824261976E-02
  1.139950000E-01 -8.445899977E-04
  5.123700000E-02 -7.943959979E-03
  2.246800000E-02 -3.764419990E-03
  7.860000000E-03 -8.868999976E-05
   s  14
  9.497934400E+03 -1.244999993E-05
  1.416811200E+03 -7.838999954E-05
  3.214599400E+02 -4.007099976E-04
  9.112416300E+01 -1.645249990E-03
  2.999989100E+01 -5.634599967E-03
  1.101763100E+01 -1.590780991E-02
  4.372801000E+00 -3.612581979E-02
  1.831256000E+00 -6.459927962E-02
  8.022610000E-01 -1.008321794E-01
  3.626480000E-01 -9.757613942E-02
  1.139950000E-01  2.301215886E-01
  5.123700000E-02  6.102389764E-01
  2.246800000E-02  2.849406083E-01
  7.860000000E-03  4.026899976E-03
   p   9
  1.311950400E+01  1.524940000E-03
  3.077424200E+00  8.314830000E-03
  1.098800500E+00  1.933203000E-02
  4.357784000E-01  4.934293000E-02
  1.802432000E-01  1.623554000E-01
  7.613330000E-02  3.847505400E-01
  3.254650000E-02  4.336100400E-01
  1.401820000E-02  1.287005900E-01
  4.906400000E-03 -1.018520000E-03
 
   2
   s  14
  1.053749500E+05  1.238600013E-04
  1.567924000E+04  5.120100053E-04
  3.534544700E+03  2.152910022E-03
  9.873651600E+02  8.528440089E-03
  3.159787500E+02  3.018049031E-02
  1.116542800E+02  9.099702095E-02
  4.269945100E+01  2.177936423E-01
  1.739559600E+01  3.686245738E-01
  7.438309000E+00  3.366707335E-01
  3.222862000E+00  9.657630101E-02
  1.253877000E+00  2.144520022E-03
  4.951550000E-01  1.194350012E-03
  1.916650000E-01  5.390200056E-04
  6.708300000E-02  2.103400022E-04
   s  14
  1.053749500E+05 -2.815000008E-05
  1.567924000E+04 -1.163000003E-04
  3.534544700E+03 -4.909200013E-04
  9.873651600E+02 -1.946160005E-03
  3.159787500E+02 -7.005300019E-03
  1.116542800E+02 -2.167814006E-02
  4.269945100E+01 -5.641213015E-02
  1.739559600E+01 -1.127053003E-01
  7.438309000E+00 -1.589119704E-01
  3.222862000E+00 -3.355083009E-02
  1.253877000E+00  3.531902810E-01
  4.951550000E-01  5.534199315E-01
  1.916650000E-01  2.301839106E-01
  6.708300000E-02  1.127267003E-02
   p   9
  2.000000000E+02  9.173000030E-04
  4.653336700E+01  7.377140024E-03
  1.462180900E+01  3.483515011E-02
  5.313064000E+00  1.144397004E-01
  2.102525000E+00  2.554966408E-01
  8.502230000E-01  3.722557412E-01
  3.375970000E-01  3.323314911E-01
  1.288920000E-01  1.400847905E-01
  4.511200000E-02  2.395784008E-02
 
[MO]
Sym=     1a  
Ene=   -20.3490
Spin= Alpha
Occup=    1.00000
   1        -0.00022851
   2        -0.00070200
   3         0.00000000
   4         0.00000000
   5        -0.00074667
   6         1.00006023
   7         0.00226179
   8         0.00000000
   9        -0.00000000
  10        -0.00014391
Sym=     1a  
Ene=   -20.3060
Spin= Beta
Occup=    1.00000
   1        -0.00013413
   2        -0.00032492
   3         0.00000000
   4         0.00000000
   5        -0.00031485
   6         1.00002705
   7        -0.00015501
   8         0.00000000
   9        -0.00000000
  10        -0.00019096
Sym=     2a  
Ene=    -2.4986
Spin= Alpha
Occup=    1.00000
   1         0.99768342
   2         0.01150645
   3         0.00000000
   4        -0.00000000
   5        -0.00214644
   6        -0.00096527
   7         0.01556555
   8         0.00000000
   9         0.00000000
  10        -0.01016130
Sym=     2a  
Ene=    -2.4923
Spin= Beta
Occup=    1.00000
   1         0.99857581
   2         0.01271233
   3         0.00000000
   4         0.00000000
   5        -0.00209828
   6        -0.00094932
   7         0.01230048
   8         0.00000000
   9         0.00000000
  10        -0.00477220
Sym=     3a  
Ene=    -1.1619
Spin= Alpha
Occup=    1.00000
   1        -0.07453129
   2         0.01647563
   3        -0.00000000
   4        -0.00000000
   5         0.02792860
   6        -0.00362609
   7         0.98346902
   8        -0.00000000
   9         0.00000000
  10        -0.03782738
Sym=     3a  
Ene=    -0.9858
Spin= Beta
Occup=    1.00000
   1        -0.07613908
   2         0.04336834
   3        -0.00000000
   4         0.00000000
   5         0.05673581
   6        -0.00390814
   7         0.95865691
   8        -0.00000000
   9         0.00000000
  10        -0.08375542
Sym=     4a  
Ene=    -0.5020
Spin= Alpha
Occup=    1.00000
   1         0.12623488
   2        -0.02088864
   3         0.00000000
   4         0.00000000
   5        -0.06414018
   6         0.00378341
   7         0.06873305
   8         0.00000000
   9        -0.00000000
  10         1.00068960
Sym=     4a  
Ene=    -0.3210
Spin= Beta
Occup=    1.00000
   1        -0.00000000
   2        -0.00000000
   3        -0.06706692
   4         0.22294732
   5         0.00000000
   6        -0.00000000
   7        -0.00000000
   8        -0.26501142
   9         0.88096463
  10        -0.00000000
Sym=     5a  
Ene=    -0.3946
Spin= Alpha
Occup=    1.00000
   1         0.00000000
   2        -0.00000000
   3        -0.00822520
   4         0.13184076
   5         0.00000000
   6        -0.00000000
   7        -0.00000000
   8        -0.05984029
   9         0.95917330
  10         0.00000000
Sym=     5a  
Ene=    -0.3210
Spin= Beta
Occup=    1.00000
   1         0.00000000
   2         0.00000000
   3         0.22294732
   4         0.06706692
   5         0.00000000
   6        -0.00000000
   7        -0.00000000
   8         0.88096463
   9         0.26501142
  10         0.00000000
Sym=     6a  
Ene=    -0.3946
Spin= Alpha
Occup=    1.00000
   1        -0.00000000
   2         0.00000000
   3         0.13184076
   4         0.00822520
   5         0.00000000
   6        -0.00000000
   7        -0.00000000
   8         0.95917330
   9         0.05984029
  10        -0.00000000
Sym=     6a  
Ene=     0.0031
Spin= Beta
Occup=    0.00000
   1         0.01101920
   2        -0.84414920
   3         0.00000000
   4        -0.00000000
   5         0.53430468
   6         0.00236856
   7         0.06564304
   8         0.00000000
   9        -0.00000000
  10         0.02012088
Sym=     7a  
Ene=     0.0072
Spin= Alpha
Occup=    0.00000
   1        -0.00041221
   2        -0.84136526
   3         0.00000000
   4        -0.00000000
   5         0.55003204
   6         0.00141290
   7         0.04297571
   8         0.00000000
   9        -0.00000000
  10        -0.07588279
Sym=     7a  
Ene=     0.1096
Spin= Beta
Occup=    0.00000
   1         0.00000000
   2        -0.00000000
   3        -0.05670889
   4         0.99978541
   5        -0.00000000
   6         0.00000000
   7         0.00000000
   8         0.02599192
   9        -0.45824113
  10         0.00000000
Sym=     8a  
Ene=     0.1008
Spin= Alpha
Occup=    0.00000
   1        -0.00000000
   2        -0.00000000
   3        -0.05029092
   4         1.01833758
   5        -0.00000000
   6         0.00000000
   7         0.00000000
   8         0.01801524
   9        -0.36478954
  10        -0.00000000
Sym=     8a  
Ene=     0.1096
Spin= Beta
Occup=    0.00000
   1        -0.00000000
   2        -0.00000000
   3        -0.99978541
   4        -0.05670889
   5        -0.00000000
   6         0.00000000
   7         0.00000000
   8         0.45824113
   9         0.02599192
  10        -0.00000000
Sym=     9a  
Ene=     0.1008
Spin= Alpha
Occup=    0.00000
   1        -0.00000000
   2        -0.00000000
   3        -1.01833758
   4        -0.05029092
   5        -0.00000000
   6         0.00000000
   7         0.00000000
   8         0.36478954
   9         0.01801524
  10         0.00000000
Sym=     9a  
Ene=     0.2144
Spin= Beta
Occup=    0.00000
   1        -0.00950955
   2        -0.60986706
   3         0.00000000
   4        -0.00000000
   5        -0.95103584
   6         0.06873514
   7         0.66787904
   8        -0.00000000
   9         0.00000000
  10         0.17804437
Sym=    10a  
Ene=     0.2137
Spin= Alpha
Occup=    0.00000
   1         0.04963032
   2         0.67543870
   3        -0.00000000
   4         0.00000000
   5         0.96446337
   6        -0.07110082
   7        -0.63915421
   8         0.00000000
   9        -0.00000000
  10         0.15961572
Sym=    10a  
Ene=     0.3258
Spin= Beta
Occup=    0.00000
   1         0.12713411
   2         0.27997390
   3        -0.00000000
   4        -0.00000000
   5         0.21083136
   6        -0.02014376
   7        -0.11402684
   8        -0.00000000
   9         0.00000000
  10         0.99750027
