[Molden Format]
[N_Atoms]
                     2
[Atoms] (AU)
F1          1      9           0.00000000      0.00000000      0.00000000
N2          2      7           0.00000000      0.00000000      2.83458919
[Charge] (Mulliken)
 -0.273938580392446     
  0.273938580392430     
[GTO] (AU)
   1
   s  14
  1.031094600E+05  1.713099991E-04
  1.528100700E+04  7.123999962E-04
  3.441539200E+03  2.990479984E-03
  9.670948300E+02  1.164036994E-02
  3.140353400E+02  3.968642979E-02
  1.134423000E+02  1.128546094E-01
  4.464472700E+01  2.473650687E-01
  1.894287400E+01  3.672702681E-01
  8.532743000E+00  2.896286985E-01
  3.919401000E+00  7.786681959E-02
  1.568157000E+00  4.562139976E-03
  6.232900000E-01  2.468879987E-03
  2.408610000E-01  1.106309994E-03
  8.430100000E-02  1.739699991E-04
   s  14
  1.031094600E+05 -4.044999995E-05
  1.528100700E+04 -1.682299998E-04
  3.441539200E+03 -7.084299991E-04
  9.670948300E+02 -2.767999996E-03
  3.140353400E+02 -9.611379987E-03
  1.134423000E+02 -2.833957996E-02
  4.464472700E+01 -6.839343991E-02
  1.894287400E+01 -1.237379298E-01
  8.532743000E+00 -1.512859698E-01
  3.919401000E+00 -9.099909988E-03
  1.568157000E+00  3.716257695E-01
  6.232900000E-01  5.500214393E-01
  2.408610000E-01  2.092318697E-01
  8.430100000E-02  8.074639989E-03
   p   9
  2.453302900E+02  1.024860004E-03
  5.691900500E+01  8.344290032E-03
  1.760456800E+01  4.078927016E-02
  6.274995000E+00  1.351370605E-01
  2.447030000E+00  2.798830811E-01
  9.950600000E-01  3.597966414E-01
  4.039730000E-01  3.055347412E-01
  1.548100000E-01  1.354703905E-01
  5.418400000E-02  2.804449011E-02
 
   2
   s  14
  7.476171500E+04  1.182599996E-04
  1.112365400E+04  5.172899983E-04
  2.512685700E+03  2.266659992E-03
  7.037772900E+02  9.145289970E-03
  2.254787900E+02  3.239342989E-02
  7.961581000E+01  9.770792967E-02
  3.023728300E+01  2.317036792E-01
  1.226362200E+01  3.768898887E-01
  5.265086000E+00  3.177420689E-01
  2.333471000E+00  8.211308973E-02
  9.018560000E-01  3.312089989E-03
  3.583360000E-01  3.720819988E-03
  1.410930000E-01  3.165419989E-03
  4.938300000E-02  4.595799985E-04
   s  14
  7.476171500E+04 -2.707000010E-05
  1.112365400E+04 -1.183700004E-04
  2.512685700E+03 -5.203800020E-04
  7.037772900E+02 -2.102930008E-03
  2.254787900E+02 -7.568200028E-03
  7.961581000E+01 -2.346767009E-02
  3.023728300E+01 -6.042901023E-02
  1.226362200E+01 -1.170549104E-01
  5.265086000E+00 -1.555321506E-01
  2.333471000E+00 -2.468935009E-02
  9.018560000E-01  3.625054514E-01
  3.583360000E-01  5.550845021E-01
  1.410930000E-01  2.148376908E-01
  4.938300000E-02  8.983850034E-03
   p   9
  1.266665700E+02  1.233630000E-03
  2.983738900E+01  9.493409996E-03
  9.394038000E+00  4.293961998E-02
  3.405104000E+00  1.362925399E-01
  1.350000000E+00  2.921362499E-01
  5.576960000E-01  3.887887598E-01
  2.324490000E-01  2.946801399E-01
  9.426400000E-02  8.012875997E-02
  3.299200000E-02  5.405199998E-04
 
[MO]
Sym=     1a  
Ene=   -26.3060
Spin= Alpha
Occup=    1.00000
   1         1.00000674
   2        -0.00287116
   3        -0.00000000
   4         0.00000000
   5         0.00082268
   6        -0.00004044
   7        -0.00035583
   8         0.00000000
   9        -0.00000000
  10         0.00022602
Sym=     1a  
Ene=   -26.3060
Spin= Beta
Occup=    1.00000
   1         1.00000674
   2        -0.00287116
   3        -0.00000000
   4         0.00000000
   5         0.00082268
   6        -0.00004044
   7        -0.00035583
   8         0.00000000
   9        -0.00000000
  10         0.00022602
Sym=     2a  
Ene=   -15.7740
Spin= Alpha
Occup=    1.00000
   1        -0.00013037
   2        -0.00079324
   3         0.00000000
   4        -0.00000000
   5        -0.00028134
   6         0.99999712
   7        -0.00602675
   8        -0.00000000
   9        -0.00000000
  10        -0.00143018
Sym=     2a  
Ene=   -15.7740
Spin= Beta
Occup=    1.00000
   1        -0.00013037
   2        -0.00079324
   3         0.00000000
   4        -0.00000000
   5        -0.00028134
   6         0.99999712
   7        -0.00602675
   8        -0.00000000
   9        -0.00000000
  10        -0.00143018
Sym=     3a  
Ene=    -1.6079
Spin= Alpha
Occup=    1.00000
   1        -0.00202182
   2         0.92221809
   3         0.00000000
   4        -0.00000000
   5         0.07634141
   6        -0.01010660
   7         0.16589317
   8         0.00000000
   9        -0.00000000
  10        -0.08941316
Sym=     3a  
Ene=    -1.6079
Spin= Beta
Occup=    1.00000
   1        -0.00202182
   2         0.92221809
   3         0.00000000
   4        -0.00000000
   5         0.07634141
   6        -0.01010660
   7         0.16589317
   8         0.00000000
   9        -0.00000000
  10        -0.08941316
Sym=     4a  
Ene=    -1.0365
Spin= Alpha
Occup=    1.00000
   1        -0.01357387
   2        -0.36218390
   3         0.00000000
   4        -0.00000000
   5         0.26974076
   6         0.00092524
   7         0.88952890
   8         0.00000000
   9        -0.00000000
  10        -0.00719523
Sym=     4a  
Ene=    -1.0365
Spin= Beta
Occup=    1.00000
   1        -0.01357387
   2        -0.36218390
   3         0.00000000
   4        -0.00000000
   5         0.26974076
   6         0.00092524
   7         0.88952890
   8         0.00000000
   9        -0.00000000
  10        -0.00719523
Sym=     5a  
Ene=    -0.6995
Spin= Alpha
Occup=    1.00000
   1        -0.00000000
   2        -0.00000000
   3         0.07560886
   4         0.89146887
   5         0.00000000
   6         0.00000000
   7         0.00000000
   8         0.02891651
   9         0.34094105
  10         0.00000000
Sym=     5a  
Ene=    -0.6995
Spin= Beta
Occup=    1.00000
   1        -0.00000000
   2        -0.00000000
   3         0.07560886
   4         0.89146887
   5         0.00000000
   6         0.00000000
   7         0.00000000
   8         0.02891651
   9         0.34094105
  10         0.00000000
Sym=     6a  
Ene=    -0.6679
Spin= Alpha
Occup=    1.00000
   1        -0.00000000
   2        -0.00000000
   3         0.96412423
   4        -0.08177104
   5         0.00000000
   6        -0.00000000
   7        -0.00000000
   8         0.15329069
   9        -0.01300117
  10        -0.00000000
Sym=     6a  
Ene=    -0.6679
Spin= Beta
Occup=    1.00000
   1        -0.00000000
   2        -0.00000000
   3         0.96412423
   4        -0.08177104
   5         0.00000000
   6        -0.00000000
   7        -0.00000000
   8         0.15329069
   9        -0.01300117
  10        -0.00000000
Sym=     7a  
Ene=    -0.6257
Spin= Alpha
Occup=    1.00000
   1        -0.00912854
   2        -0.13196233
   3        -0.00000000
   4         0.00000000
   5         0.74243387
   6        -0.02418952
   7        -0.42760077
   8        -0.00000000
   9         0.00000000
  10        -0.50733885
Sym=     7a  
Ene=    -0.6257
Spin= Beta
Occup=    1.00000
   1        -0.00912854
   2        -0.13196233
   3        -0.00000000
   4         0.00000000
   5         0.74243387
   6        -0.02418952
   7        -0.42760077
   8        -0.00000000
   9         0.00000000
  10        -0.50733885
Sym=     8a  
Ene=    -0.4999
Spin= Alpha
Occup=    1.00000
   1         0.00000000
   2         0.00000000
   3        -0.03946326
   4        -0.46529296
   5        -0.00000000
   6         0.00000000
   7        -0.00000000
   8         0.08023643
   9         0.94603038
  10         0.00000000
Sym=     8a  
Ene=    -0.4999
Spin= Beta
Occup=    1.00000
   1         0.00000000
   2         0.00000000
   3        -0.03946326
   4        -0.46529296
   5        -0.00000000
   6         0.00000000
   7        -0.00000000
   8         0.08023643
   9         0.94603038
  10         0.00000000
Sym=     9a  
Ene=     0.0247
Spin= Alpha
Occup=    0.00000
   1        -0.00000000
   2        -0.00000000
   3        -0.28579495
   4         0.02423936
   5        -0.00000000
   6         0.00000000
   7         0.00000000
   8         0.99383914
   9        -0.08429127
  10        -0.00000000
Sym=     9a  
Ene=     0.0247
Spin= Beta
Occup=    0.00000
   1        -0.00000000
   2        -0.00000000
   3        -0.28579495
   4         0.02423936
   5        -0.00000000
   6         0.00000000
   7         0.00000000
   8         0.99383914
   9        -0.08429127
  10        -0.00000000
Sym=    10a  
Ene=     0.2013
Spin= Alpha
Occup=    0.00000
   1         0.03144655
   2         0.36128610
   3        -0.00000000
   4        -0.00000000
   5         0.71919872
   6        -0.02602477
   7        -0.35035554
   8         0.00000000
   9         0.00000000
  10         0.94165846
Sym=    10a  
Ene=     0.2013
Spin= Beta
Occup=    0.00000
   1         0.03144655
   2         0.36128610
   3        -0.00000000
   4        -0.00000000
   5         0.71919872
   6        -0.02602477
   7        -0.35035554
   8         0.00000000
   9         0.00000000
  10         0.94165846
