   This run of MOLCAS is using the pymolcas driver

                             OPE
                             OPE          NMOL  CASOP  ENMOLC A   SO
                 OPE        NMOLC        AS  OP EN  MO LC     AS  OP
                OPENM       OL CA        SO  PE NM  OL CA     SOP EN
                OP EN      MO   LC       AS  OP ENMOL  CASO   PENMOL
                OP  EN     MO   LC       AS  OP EN     MO     LC ASO
               OP   E  NMOL  C  AS       OP  EN MO     LC     AS  OP
               OP  E   NMO   LC AS        OPEN  MO     LCASOP EN   M
               O  PEN   MO  LCA  SO
            OPE   NMO   L   CAS    OP
        OPENMOL  CASOP     ENMOL   CASOPE
     OPENMOLCA   SOPENMOLCASOPEN   MOLCASOPE
    OPENMOLCAS   OP           EN   MOL    CAS
    OPENMOLCAS       OP  ENM        O     LCA
    OPENMOLCAS    OPEN  MOLCASO     P  E  NMO
    OPENMOLCAS     OP               E  N  MOL
    OPENMOLCA   SO           PENM   O  L  CAS    OPEN    MO    LCAS
    OPENMOLCA   SOP           ENM   O  L  CAS   OP  EN  MOLC  AS   O
    OPENMOLCA   SOPE           NM      O  LCA   S      OP  EN MO
    OPENMOLC                AS         O  PEN   M      OL  CA  SOPE
    OPENMO        LCASOPE  NMOL        C  ASO   P      ENMOLC     AS
    OPE     NMO      LCA  SO     P     E   NM   OL  CA SO  PE N   MO
          OPENMOLCA            SOPE   NMO        LCAS  O    P  ENMO
     OPENMOLCASOPENMOLCASOPENMOLCASOPENMOLCA
        OPENMOLCASOPENMOLCASOPENMOLCASOPE
            OPENMOLCASOPENMOLCASOPENM
               OPENMOLCASOPENMOLCA        version: f37762c57
                   OPENMOLCASO
                       OPE                tag:

 OpenMolcas is free software; you can redistribute it and/or modify it
 under the terms of the GNU Lesser General Public License version 2.1.
 OpenMolcas is distributed in the hope that it will be useful, but it
 is provided "as is" and without any express or implied warranties.
 For more details see the full text of the license in the file
 LICENSE or in <http://www.gnu.org/licenses/>.

                 Copyright (C) The OpenMolcas Authors
           For the author list and the recommended citation,
                   consult the file CONTRIBUTORS.md

           *************************************************
           * pymolcas version py2.28                       *
           *   build c4a6d18ded8cb6cad61d2372a9abd97c      *
           *   (after the EMIL interpreter by V. Veryazov) *
           *************************************************

configuration info
------------------
C Compiler ID: Intel
C flags: -std=gnu99 -gcc-sys
Fortran Compiler ID: IntelLLVM
Fortran flags: -standard-semantics -fltconsistency -fpp -i8 -heap-arrays
Definitions: _MOLCAS_;_I8_;_LINUX_
Parallel: OFF (GA=OFF)


   ------------------------------------------------------------------------------------
  |
  |              Project: 2.16
  |       Submitted from: /home/grierjones/DDCASPT2/iron_oxo_DDCASPT2/MScaspt2iron/2.16
  |         Scratch area: /tmp/2.16
  |      Save outputs to: /home/grierjones/DDCASPT2/iron_oxo_DDCASPT2/MScaspt2iron/2.16
  |               Molcas: /home/grierjones/Test/build
  |
  | Scratch area is empty
  |
  |       MOLCAS_DRIVER = /usr/local/pymolcas
  | MOLCAS_KEEP_WORKDIR = NO
  |  MOLCAS_NEW_WORKDIR = YES
  |       MOLCAS_NPROCS = 1
  |        MOLCAS_PRINT = NORMAL
  |       MOLCAS_SOURCE = /home/grierjones/Test
  |    MOLCAS_STRUCTURE = 0
  |
   ------------------------------------------------------------------------------------

++ ---------   Input file   ---------

&GATEWAY
coord=2.16.xyz
Basis = ANO-RCC-VTZP
Group = nosymm
End of Input

&SEWARD
End of Input

&SCF
UHF
charge
2
spin
5
FileOrb
/home/grierjones/DDCASPT2/iron_oxo_DDCASPT2/MScaspt2iron/2.14/2.14.UhfOrb

>>> COPY $WorkDir/2.16.scf.h5 $CurrDir/

&RASSCF
Title= RASSCF
FileOrb
/home/grierjones/DDCASPT2/iron_oxo_DDCASPT2/MScaspt2iron/2.14/2.14.RasOrb
CIROOT
3 3 1
NACTEL
10 0 0
RAS2
14
Symmetry
1
Spin
5
charge
2
orblisting
all

>>> COPY $WorkDir/2.16.rasscf.h5 $CurrDir/

>>> COPY $WorkDir/GMJ_Fock_MO.csv $CurrDir/2.16.GMJ_Fock_MO.csv

&MOTRA
Frozen=0
LUMORB

>>> COPY $WorkDir/GMJ_one_int_indx.csv $CurrDir/2.16.GMJ_one_int_indx.csv

>>> COPY $WorkDir/GMJ_one_int.csv $CurrDir/2.16.GMJ_one_int.csv

>>> COPY $WorkDir/GMJ_two_int_indx.csv $CurrDir/2.16.GMJ_two_int_indx.csv

>>> COPY $WorkDir/GMJ_two_int.csv $CurrDir/2.16.GMJ_two_int.csv

&CASPT2

Imaginary Shift
0.2
IPEA
0.25

Frozen
0

MAXITER
50

>>> FOREACH k IN (1,2,3)

  >>> FOREACH i IN (B,E,F,G,H)

    >>> FOREACH j IN (P,M)

      >>> IF (-FILE GMJ_e2_${i}_${j}_${k}_.csv)

        >>> COPY $WorkDir/GMJ_RHS_${i}_${j}_${k}_.csv $CurrDir/GMJ_RHS_${i}_${j}_${k}_.csv

        >>> COPY $WorkDir/GMJ_IVECW_${i}_${j}_${k}_.csv $CurrDir/GMJ_IVECW_${i}_${j}_${k}_.csv

        >>> COPY $WorkDir/GMJ_IVECX_${i}_${j}_${k}_.csv $CurrDir/GMJ_IVECX_${i}_${j}_${k}_.csv

        >>> COPY $WorkDir/GMJ_IVECC2_${i}_${j}_${k}_.csv $CurrDir/GMJ_IVECC2_${i}_${j}_${k}_.csv

        >>> COPY $WorkDir/GMJ_e2_${i}_${j}_${k}_.csv $CurrDir/GMJ_e2_${i}_${j}_${k}_.csv

      >>> END IF

    >>> END FOREACH

  >>> END FOREACH

>>> END FOREACH

>>> FOREACH j IN (1,2,3)

  >>> FOREACH i IN (A,C,D)

    >>> IF (-FILE GMJ_e2_${i}_${j}_.csv)

      >>> COPY $WorkDir/GMJ_RHS_${i}_${j}_.csv $CurrDir/GMJ_RHS_${i}_${j}_.csv

      >>> COPY $WorkDir/GMJ_IVECW_${i}_${j}_.csv $CurrDir/GMJ_IVECW_${i}_${j}_.csv

      >>> COPY $WorkDir/GMJ_IVECX_${i}_${j}_.csv $CurrDir/GMJ_IVECX_${i}_${j}_.csv

      >>> COPY $WorkDir/GMJ_IVECC2_${i}_${j}_.csv $CurrDir/GMJ_IVECC2_${i}_${j}_.csv

      >>> COPY $WorkDir/GMJ_e2_${i}_${j}_.csv $CurrDir/GMJ_e2_${i}_${j}_.csv

    >>> END IF

  >>> END FOREACH

>>> END FOREACH

-- ----------------------------------

--- Start Module: gateway at Thu Apr 17 21:23:57 2025 ---
 
()()()()()()()()()()()()()()()()()()()()()()()()()()()()()()()()()()()()()()()()()()()()()()()()()()

                                              &GATEWAY

                                   only a single process is used
                       available to each process: 2.0 GB of memory, 1 thread?
()()()()()()()()()()()()()()()()()()()()()()()()()()()()()()()()()()()()()()()()()()()()()()()()()()
 
 
++    Symmetry information:
      ---------------------
 
                    Character Table for C1 
 
                             E  
                    a        1  x, y, xy, Rz, z, xz, Ry, yz, Rx, I
--
 
 
++    Basis set information:
      ----------------------
 
 
      Basis set label: O.ANO-RCC...4S3P2D1F.
 
      Electronic valence basis set:
      ------------------
      Associated Effective Charge   8.000000 au
      Associated Actual Charge      8.000000 au
      Nuclear Model: Point charge
 
      Shell  nPrim  nBasis  Cartesian Spherical Contaminant
         s      14       4        X                  
         p       9       3        X                  
         d       4       2                 X         
         f       3       1                 X         
 
 
      Basis set label: FE.ANO-RCC...6S5P3D2F1G.
 
      Electronic valence basis set:
      ------------------
      Associated Effective Charge  26.000000 au
      Associated Actual Charge     26.000000 au
      Nuclear Model: Point charge
 
      Shell  nPrim  nBasis  Cartesian Spherical Contaminant
         s      21       6        X                  
         p      15       5        X                  
         d      10       3                 X         
         f       6       2                 X         
         g       4       1                 X         
--
 
 
++    Molecular structure info:
      -------------------------
 
                    ************************************************ 
                    **** Cartesian Coordinates / Bohr, Angstrom **** 
                    ************************************************ 
 
     Center  Label                x              y              z                     x              y              z
        1      O1               0.000000       0.000000       3.552685              0.000000       0.000000       1.880000
        2      FE2              0.000000       0.000000      -0.529123              0.000000       0.000000      -0.280000
--
 
 
            Nuclear Potential Energy             50.95780547 au
 
--- Stop Module: gateway at Thu Apr 17 21:23:57 2025 /rc=_RC_ALL_IS_WELL_ ---
*** files: xmldump
    saved to directory /home/grierjones/DDCASPT2/iron_oxo_DDCASPT2/MScaspt2iron/2.16

--- Start Module: seward at Thu Apr 17 21:23:57 2025 ---
 
()()()()()()()()()()()()()()()()()()()()()()()()()()()()()()()()()()()()()()()()()()()()()()()()()()

                                              &SEWARD

                                   only a single process is used
                       available to each process: 2.0 GB of memory, 1 thread?
()()()()()()()()()()()()()()()()()()()()()()()()()()()()()()()()()()()()()()()()()()()()()()()()()()
 
               SEWARD will generate:
                  Multipole Moment integrals up to order  2
                  Kinetic Energy integrals
                  Nuclear Attraction integrals (point charge)
                  One-Electron Hamiltonian integrals
                  Velocity integrals
                  Relativistic Douglas-Kroll-Hess integrals:
                    - Parametrization         : EXP
                    - DKH order of Hamiltonian: 2
                    - DKH order of Properties : 0
                         - multipole moment operators
                         - electric potential operators
                         - contact operators
                  Atomic mean-field integrals
                  Two-Electron Repulsion integrals
 
                   Integrals are discarded if absolute value <: 0.10E-13
                   Integral cutoff threshold is set to       <: 0.10E-15
 
            Nuclear Potential Energy             50.95780547 au
 
 
      Basis set specifications :
      Symmetry species         a  
      Basis functions           89
 
 
  Input file to MOLDEN was generated!
 
forrtl: warning (525): IEEE_DIVIDE_BY_ZERO is signaling
forrtl: warning (526): IEEE_INVALID is signaling
forrtl: warning (528): IEEE_UNDERFLOW is signaling
--- Stop Module: seward at Thu Apr 17 21:24:00 2025 /rc=_RC_ALL_IS_WELL_ ---
*** files: 2.16.GssOrb 2.16.guessorb.h5 2.16.guessorb.molden xmldump
    saved to directory /home/grierjones/DDCASPT2/iron_oxo_DDCASPT2/MScaspt2iron/2.16
--- Module seward spent 2 seconds ---

*** symbolic link created: INPORB -> 2.16.GssOrb
--- Start Module: scf at Thu Apr 17 21:24:00 2025 ---
 
()()()()()()()()()()()()()()()()()()()()()()()()()()()()()()()()()()()()()()()()()()()()()()()()()()

                                                &SCF

                                   only a single process is used
                       available to each process: 2.0 GB of memory, 1 thread?
()()()()()()()()()()()()()()()()()()()()()()()()()()()()()()()()()()()()()()()()()()()()()()()()()()
 
 *** Possible bug in opening file
 *** isFreeUnit resets the unit number
++    Input section:
      --------------
 
      Header of the integral files:
      
       Integrals generated by seward 4.2.0  , Thu Apr 17 21:23:58 2025
 
 
      Cartesian coordinates in Angstrom:
      -----------------------------------------------------
      No.  Label        X            Y            Z        
      -----------------------------------------------------
       1   O1         0.00000000   0.00000000   1.88000000
       2   FE2        0.00000000   0.00000000  -0.28000000
      -----------------------------------------------------
      Nuclear repulsion energy =   50.95780547
--
 
++    Orbital specifications:
      -----------------------
 
      Symmetry species               1
                                     a
      Frozen orbitals                0
      Occupied orbitals alpha       18
      Occupied orbitals beta        14
      Secondary orbitals alpha      71
      Secondary orbitals beta       75
      Deleted orbitals               0
      Total number of orbitals      89
      Number of basis functions     89
--
 
      Molecular charge                           2.000
 
++    Optimization specifications:
      ----------------------------
 
      SCF Algorithm: Conventional USCF
      D(i)-D(i-1) density differences are used
      Number of density matrices in core                5
      Maximum number of NDDO SCF iterations           400
      Maximum number of HF SCF iterations             400
      Threshold for SCF energy change            0.10E-08
      Threshold for density matrix               0.10E-03
      Threshold for Fock matrix                  0.15E-03
      Threshold for linear dependence            0.10E-08
      Threshold at which DIIS is turned on       0.15E+00
      Threshold at which QNR/C2DIIS is turned on 0.75E-01
      Threshold for Norm(delta) (QNR/C2DIIS)     0.20E-04
      DIIS extrapolation of the SCF procedure
      All orbitals punched on: UHFORB
--
 
      Input vectors read from INPORB
      Orbital file label: * UHF orbitals
 
 
++ Convergence information
                               UHF SCF        iterations: Energy and convergence statistics
 
Iter     Tot. SCF        One-elec.       Two-elec.     Energy      Max Dij or  Max Fij      DNorm      TNorm      AccCon     Time
         Energy          Energy          Energy        Change      Delta Norm                                                in Sec.
 
 The total and one-electron energies are shifted by a value of      1000. a.u.
 
   1  -345.219277181  -939.821240762   543.644158109   0.00E+00    0.11E-01*   0.18E-02*    0.81E+01   0.22E+03   None         0.
   2  -345.219306553  -939.920369760   543.743257735  -0.29E-04*   0.45E-02*   0.16E-02*    0.19E-01   0.22E+03   EDIIS        0.
   3  -345.219307628  -939.775286027   543.598172927  -0.11E-05*   0.38E-02*   0.10E-02*    0.13E-01   0.22E+03   c2DIIS       0.
   4  -345.219331292  -939.896604176   543.719467412  -0.24E-04*   0.45E-02*   0.52E-03*    0.71E-02   0.22E+03   QNRc2DIIS    0.
   5  -345.219337734  -939.897962970   543.720819764  -0.64E-05*   0.27E-01*   0.49E-03*    0.53E-02   0.22E+03   QNRc2DIIS    0.
   6  -345.219346618  -940.026699784   543.849547693  -0.89E-05*   0.66E-02*   0.80E-03*    0.29E-01   0.22E+03   QNRc2DIIS    0.
   7  -345.219349763  -939.977235993   543.800080758  -0.31E-05*   0.47E-03*   0.83E-04     0.69E-02   0.22E+03   QNRc2DIIS    0.
   8  -345.219349840  -939.973034157   543.795878845  -0.77E-07*   0.12E-02*   0.72E-04     0.57E-03   0.22E+03   QNRc2DIIS    0.
   9  -345.219350010  -939.969471607   543.792316125  -0.17E-06*   0.23E-02*   0.22E-03*    0.13E-02   0.22E+03   QNRc2DIIS    0.
  10  -345.219349803  -939.976048474   543.798893200   0.21E-06*   0.74E-03*   0.80E-04     0.24E-02   0.22E+03   QNRc2DIIS    0.
  11  -345.219349820  -939.974448021   543.797292730  -0.17E-07*   0.48E-04*   0.48E-05     0.86E-03   0.22E+03   QNRc2DIIS    0.
  12  -345.219349820  -939.974434742   543.797279450  -0.30E-09    0.70E-04*   0.37E-05     0.63E-04   0.22E+03   QNRc2DIIS    0.
  13  -345.219349820  -939.974679322   543.797524030  -0.34E-09    0.38E-04*   0.42E-05     0.98E-04   0.22E+03   QNRc2DIIS    0.
  14  -345.219349820  -939.974487135   543.797331842   0.69E-10    0.11E-04    0.38E-05     0.53E-04   0.22E+03   QNRc2DIIS    0.
 
       Convergence after 14 Macro Iterations
--
 
 *****************************************************************************************************************************
 *                                                                                                                           *
 *                                             SCF/KS-DFT Program, Final results                                             *
 *                                                                                                                           *
 *                                                                                                                           *
 *                                                                                                                           *
 *                                                       Final Results                                                       *
 *                                                                                                                           *
 *****************************************************************************************************************************
 
::    Total SCF energy                              -1345.2193498203
      One-electron energy                           -1939.9744871346
      Two-electron energy                             543.7973318423
      Nuclear repulsion energy                         50.9578054719
      Kinetic energy (interpolated)                  1398.8974647307
      Virial theorem                                    0.9616282706
      Total spin, S(S+1)                                7.1040329354
      Total spin, S                                     2.2118320257
      Max non-diagonal density matrix element           0.0000072623
      Max non-diagonal Fock matrix element              0.0000035780
 
 
      All orbitals with orbital energies smaller than  E(LUMO)+0.5 are printed
 
++    Molecular orbitals:
      -------------------
 
      Title: UHF orbitals (alpha)

      Molecular orbitals for symmetry species 1: a  
 
          Orbital            1         2         3         4         5         6         7         8         9        10    
          Energy         -264.3397  -33.1585  -28.2343  -28.2343  -28.2201  -21.3087   -5.0790   -3.6429   -3.6429   -3.6077
          Occ. No.          1.0000    1.0000    1.0000    1.0000    1.0000    1.0000    1.0000    1.0000    1.0000    1.0000
 
        1 O1     1s        -0.0000    0.0000   -0.0000    0.0000   -0.0000    1.0000    0.0000    0.0000   -0.0000    0.0002
        2 O1     2s        -0.0000    0.0001   -0.0000    0.0000   -0.0002    0.0003    0.0008    0.0000   -0.0000    0.0055
        3 O1     3s        -0.0000    0.0001   -0.0000    0.0000   -0.0002   -0.0003    0.0006    0.0000   -0.0000    0.0024
        4 O1     4s        -0.0000    0.0001   -0.0000    0.0000   -0.0001    0.0002    0.0002    0.0000   -0.0000    0.0007
        5 O1     2px        0.0000    0.0000   -0.0000   -0.0000   -0.0000   -0.0000    0.0000    0.0002    0.0000    0.0000
        6 O1     3px        0.0000    0.0000   -0.0000   -0.0000   -0.0000   -0.0000   -0.0000   -0.0006   -0.0000   -0.0000
        7 O1     4px        0.0000   -0.0000    0.0000    0.0000   -0.0000    0.0000   -0.0000   -0.0008   -0.0000   -0.0000
        8 O1     2py       -0.0000   -0.0000    0.0000   -0.0000    0.0000    0.0000   -0.0000   -0.0000    0.0002   -0.0000
        9 O1     3py       -0.0000   -0.0000    0.0000   -0.0000    0.0000    0.0000    0.0000    0.0000   -0.0006    0.0000
       10 O1     4py       -0.0000    0.0000   -0.0000    0.0000    0.0000   -0.0000    0.0000    0.0000   -0.0008    0.0000
       11 O1     2pz        0.0000   -0.0001    0.0000   -0.0000    0.0001   -0.0005   -0.0010   -0.0000    0.0000   -0.0042
       12 O1     3pz        0.0000   -0.0001    0.0000   -0.0000    0.0002   -0.0004   -0.0011   -0.0000    0.0000   -0.0032
       13 O1     4pz       -0.0000    0.0001   -0.0000    0.0000    0.0000   -0.0002   -0.0002   -0.0000    0.0000   -0.0003
       14 O1     3d2-       0.0000    0.0000   -0.0000    0.0000   -0.0000    0.0000    0.0000   -0.0000    0.0000    0.0000
       15 O1     4d2-       0.0000    0.0000   -0.0000    0.0000   -0.0000   -0.0000   -0.0000   -0.0000    0.0000    0.0000
       16 O1     3d1-      -0.0000    0.0000   -0.0000    0.0000   -0.0000    0.0000    0.0000    0.0000   -0.0005    0.0000
       17 O1     4d1-      -0.0000    0.0000   -0.0000    0.0000   -0.0000   -0.0000    0.0000    0.0000   -0.0004    0.0000
       18 O1     3d0       -0.0000    0.0000   -0.0000    0.0000   -0.0000   -0.0011    0.0004    0.0000   -0.0000    0.0009
       19 O1     4d0       -0.0000    0.0000   -0.0000    0.0000   -0.0000    0.0012    0.0003    0.0000   -0.0000    0.0007
       20 O1     3d1+       0.0000   -0.0000    0.0000    0.0000    0.0000   -0.0000   -0.0000   -0.0005   -0.0000   -0.0000
       21 O1     4d1+       0.0000   -0.0000    0.0000    0.0000    0.0000    0.0000   -0.0000   -0.0004   -0.0000   -0.0000
       22 O1     3d2+      -0.0000   -0.0000    0.0000    0.0000    0.0000   -0.0000   -0.0000    0.0000    0.0000   -0.0000
       23 O1     4d2+      -0.0000   -0.0000    0.0000    0.0000    0.0000    0.0000    0.0000    0.0000    0.0000   -0.0000
       24 O1     4f3-       0.0000   -0.0000   -0.0000    0.0000    0.0000   -0.0000   -0.0000    0.0000   -0.0000    0.0000
       25 O1     4f2-       0.0000    0.0000    0.0000   -0.0000    0.0000    0.0000   -0.0000    0.0000   -0.0000   -0.0000
       26 O1     4f1-       0.0000   -0.0000    0.0000   -0.0000    0.0000    0.0000   -0.0000   -0.0000    0.0001   -0.0000
       27 O1     4f0       -0.0000    0.0000    0.0000   -0.0000   -0.0000   -0.0000   -0.0001    0.0000   -0.0000   -0.0000
       28 O1     4f1+      -0.0000    0.0000   -0.0000   -0.0000   -0.0000   -0.0000    0.0000    0.0001    0.0000    0.0000
       29 O1     4f2+      -0.0000   -0.0000   -0.0000   -0.0000   -0.0000   -0.0000    0.0000   -0.0000   -0.0000    0.0000
       30 O1     4f3+       0.0000   -0.0000    0.0000    0.0000    0.0000   -0.0000    0.0000   -0.0000   -0.0000    0.0000
       31 FE2    1s         1.0000   -0.0000    0.0000   -0.0000    0.0000   -0.0000   -0.0000   -0.0000    0.0000   -0.0000
       32 FE2    2s         0.0000    1.0000    0.0000   -0.0000   -0.0005   -0.0001   -0.0030   -0.0000    0.0000   -0.0003
       33 FE2    3s         0.0000    0.0029    0.0000   -0.0000    0.0001   -0.0003    0.9996    0.0000   -0.0000   -0.0024
       34 FE2    4s         0.0000   -0.0004    0.0000   -0.0000    0.0002   -0.0006   -0.0019   -0.0000    0.0000   -0.0055
       35 FE2    5s        -0.0000    0.0002    0.0000   -0.0000   -0.0000    0.0002    0.0021    0.0000   -0.0000    0.0023
       36 FE2    6s         0.0000   -0.0001   -0.0000    0.0000   -0.0000    0.0000   -0.0005   -0.0000    0.0000   -0.0003
       37 FE2    2px       -0.0000   -0.0000    0.9999    0.0134   -0.0000    0.0000   -0.0000   -0.0027   -0.0000   -0.0000
       38 FE2    3px        0.0000    0.0000    0.0027    0.0000    0.0000    0.0000   -0.0000    0.9998    0.0135    0.0000
       39 FE2    4px       -0.0000   -0.0000   -0.0004   -0.0000   -0.0000    0.0000   -0.0000   -0.0106   -0.0001   -0.0000
       40 FE2    5px        0.0000    0.0000    0.0010    0.0000    0.0000    0.0000    0.0000    0.0083    0.0001    0.0000
       41 FE2    6px       -0.0000   -0.0000   -0.0005   -0.0000   -0.0000   -0.0000    0.0000    0.0034    0.0000    0.0000
       42 FE2    2py        0.0000    0.0000   -0.0134    0.9999    0.0000   -0.0000    0.0000    0.0000   -0.0027    0.0000
       43 FE2    3py       -0.0000   -0.0000   -0.0000    0.0027   -0.0000   -0.0000    0.0000   -0.0135    0.9998   -0.0000
       44 FE2    4py        0.0000    0.0000    0.0000   -0.0004    0.0000   -0.0000    0.0000    0.0001   -0.0106    0.0000
       45 FE2    5py       -0.0000   -0.0000   -0.0000    0.0010   -0.0000   -0.0000   -0.0000   -0.0001    0.0083   -0.0000
       46 FE2    6py        0.0000    0.0000    0.0000   -0.0005    0.0000    0.0000   -0.0000   -0.0000    0.0034   -0.0000
       47 FE2    2pz       -0.0000    0.0006    0.0000   -0.0000    1.0000   -0.0000   -0.0001    0.0000   -0.0000   -0.0025
       48 FE2    3pz        0.0000    0.0000    0.0000   -0.0000    0.0025   -0.0002    0.0009   -0.0000    0.0000    0.9990
       49 FE2    4pz        0.0000   -0.0002    0.0000   -0.0000   -0.0001   -0.0004   -0.0016   -0.0000    0.0000   -0.0136
       50 FE2    5pz       -0.0000    0.0000    0.0000   -0.0000    0.0008    0.0001    0.0013    0.0000   -0.0000    0.0076
       51 FE2    6pz       -0.0000   -0.0000   -0.0000    0.0000   -0.0005    0.0002    0.0002    0.0000   -0.0000    0.0034
       52 FE2    3d2-      -0.0000   -0.0000    0.0000   -0.0000    0.0000    0.0000   -0.0000    0.0000   -0.0000    0.0000
       53 FE2    4d2-       0.0000    0.0000   -0.0000    0.0000   -0.0000    0.0000    0.0000    0.0000   -0.0000   -0.0000
       54 FE2    5d2-      -0.0000   -0.0000    0.0000   -0.0000    0.0000    0.0000   -0.0000   -0.0000    0.0000    0.0000
       55 FE2    3d1-       0.0000   -0.0000   -0.0000    0.0001   -0.0000   -0.0000    0.0000   -0.0000    0.0004   -0.0000
       56 FE2    4d1-      -0.0000    0.0000    0.0000   -0.0000    0.0000   -0.0000    0.0000    0.0000   -0.0013    0.0000
       57 FE2    5d1-       0.0000   -0.0000   -0.0000    0.0000   -0.0000   -0.0000   -0.0000   -0.0000    0.0013   -0.0000
       58 FE2    3d0        0.0000   -0.0003    0.0000   -0.0000    0.0001   -0.0001   -0.0065    0.0000   -0.0000   -0.0016
       59 FE2    4d0        0.0000    0.0001    0.0000   -0.0000    0.0001   -0.0002    0.0018   -0.0000    0.0000   -0.0022
       60 FE2    5d0       -0.0000   -0.0002    0.0000   -0.0000    0.0001    0.0001   -0.0000    0.0000   -0.0000    0.0004
       61 FE2    3d1+      -0.0000    0.0000    0.0001    0.0000    0.0000    0.0000   -0.0000    0.0004    0.0000    0.0000
       62 FE2    4d1+       0.0000   -0.0000   -0.0000   -0.0000   -0.0000    0.0000   -0.0000   -0.0013   -0.0000   -0.0000
       63 FE2    5d1+      -0.0000    0.0000    0.0000    0.0000    0.0000    0.0000    0.0000    0.0013    0.0000    0.0000
       64 FE2    3d2+       0.0000    0.0000   -0.0000   -0.0000   -0.0000   -0.0000    0.0000   -0.0000   -0.0000   -0.0000
       65 FE2    4d2+      -0.0000   -0.0000    0.0000    0.0000   -0.0000   -0.0000   -0.0000   -0.0000   -0.0000    0.0000
       66 FE2    5d2+       0.0000    0.0000   -0.0000   -0.0000   -0.0000   -0.0000    0.0000    0.0000    0.0000   -0.0000
       67 FE2    4f3-       0.0000   -0.0000   -0.0000    0.0000    0.0000    0.0000   -0.0000   -0.0000    0.0000    0.0000
       68 FE2    5f3-      -0.0000    0.0000    0.0000   -0.0000   -0.0000    0.0000    0.0000    0.0000   -0.0000   -0.0000
       69 FE2    4f2-      -0.0000    0.0000   -0.0000    0.0000   -0.0000    0.0000    0.0000    0.0000   -0.0000   -0.0000
       70 FE2    5f2-      -0.0000   -0.0000    0.0000   -0.0000    0.0000    0.0000   -0.0000    0.0000   -0.0000    0.0000
       71 FE2    4f1-       0.0000   -0.0000    0.0000   -0.0001    0.0000   -0.0000   -0.0000    0.0001   -0.0040    0.0000
       72 FE2    5f1-      -0.0000    0.0000   -0.0000    0.0002   -0.0000   -0.0000    0.0000   -0.0000    0.0005    0.0000
       73 FE2    4f0        0.0000   -0.0000   -0.0000    0.0000   -0.0000   -0.0000   -0.0002   -0.0000    0.0000   -0.0013
       74 FE2    5f0        0.0000   -0.0000    0.0000   -0.0000    0.0001   -0.0001    0.0001    0.0000   -0.0000   -0.0003
       75 FE2    4f1+      -0.0000    0.0000   -0.0001   -0.0000   -0.0000    0.0000    0.0000   -0.0040   -0.0001   -0.0000
       76 FE2    5f1+       0.0000   -0.0000    0.0002    0.0000    0.0000    0.0000   -0.0000    0.0005    0.0000   -0.0000
       77 FE2    4f2+       0.0000   -0.0000    0.0000    0.0000    0.0000   -0.0000   -0.0000   -0.0000   -0.0000    0.0000
       78 FE2    5f2+       0.0000    0.0000   -0.0000   -0.0000   -0.0000   -0.0000    0.0000   -0.0000   -0.0000   -0.0000
       79 FE2    4f3+      -0.0000    0.0000    0.0000    0.0000   -0.0000   -0.0000    0.0000    0.0000    0.0000   -0.0000
       80 FE2    5f3+       0.0000   -0.0000   -0.0000   -0.0000    0.0000    0.0000   -0.0000   -0.0000   -0.0000    0.0000
       81 FE2    5g4-      -0.0000    0.0000   -0.0000   -0.0000   -0.0000   -0.0000    0.0000   -0.0000   -0.0000    0.0000
       82 FE2    5g3-      -0.0000    0.0000    0.0000   -0.0000   -0.0000    0.0000    0.0000    0.0000   -0.0000   -0.0000
       83 FE2    5g2-      -0.0000   -0.0000   -0.0000    0.0000    0.0000    0.0000   -0.0000   -0.0000    0.0000    0.0000
       84 FE2    5g1-      -0.0000    0.0000    0.0000   -0.0000   -0.0000   -0.0000    0.0000    0.0000   -0.0001    0.0000
       85 FE2    5g0        0.0000    0.0000   -0.0000    0.0000   -0.0000   -0.0000    0.0013   -0.0000    0.0000   -0.0001
       86 FE2    5g1+       0.0000   -0.0000   -0.0000   -0.0000    0.0000    0.0000   -0.0000   -0.0001   -0.0000   -0.0000
       87 FE2    5g2+       0.0000    0.0000    0.0000    0.0000   -0.0000   -0.0000    0.0000    0.0000    0.0000   -0.0000
       88 FE2    5g3+       0.0000   -0.0000   -0.0000   -0.0000    0.0000    0.0000   -0.0000   -0.0000   -0.0000    0.0000
       89 FE2    5g4+       0.0000   -0.0000   -0.0000    0.0000    0.0000    0.0000   -0.0000   -0.0000    0.0000   -0.0000
 
          Orbital           11        12        13        14        15        16        17        18        19        20    
          Energy           -1.8397   -1.3477   -1.3477   -1.3264   -1.3137   -1.3137   -1.1995   -1.1995   -0.5500   -0.4504
          Occ. No.          1.0000    1.0000    1.0000    1.0000    1.0000    1.0000    1.0000    1.0000    0.0000    0.0000
 
        1 O1     1s        -0.0005    0.0000   -0.0000   -0.0037   -0.0000    0.0000    0.0000    0.0000   -0.0160    0.0038
        2 O1     2s         0.9906    0.0000   -0.0000   -0.0970   -0.0000    0.0000    0.0000    0.0000   -0.2057    0.0615
        3 O1     3s        -0.0376    0.0000   -0.0000   -0.0058    0.0000   -0.0000   -0.0000   -0.0000   -0.0401    0.0126
        4 O1     4s        -0.0065    0.0000   -0.0000   -0.0010    0.0000   -0.0000    0.0000    0.0000   -0.0098    0.0035
        5 O1     2px       -0.0000   -0.0000   -0.0000    0.0000    0.1321    0.0018    0.0128   -0.9822   -0.0000    0.0000
        6 O1     3px        0.0000   -0.0000   -0.0000   -0.0000   -0.0048   -0.0001   -0.0012    0.0907   -0.0000    0.0000
        7 O1     4px        0.0000   -0.0000   -0.0000   -0.0000    0.0036    0.0000   -0.0002    0.0147    0.0000    0.0000
        8 O1     2py        0.0000    0.0000   -0.0000   -0.0001   -0.0018    0.1321    0.9822    0.0128    0.0002   -0.0002
        9 O1     3py       -0.0000    0.0000   -0.0000    0.0000    0.0001   -0.0048   -0.0907   -0.0012    0.0000   -0.0000
       10 O1     4py       -0.0000    0.0000   -0.0000    0.0000   -0.0000    0.0036   -0.0147   -0.0002   -0.0000   -0.0000
       11 O1     2pz       -0.0620    0.0000   -0.0000   -0.0179   -0.0000    0.0000    0.0003    0.0000   -0.4497    0.7271
       12 O1     3pz       -0.0002   -0.0000    0.0000    0.0193    0.0000   -0.0000   -0.0000   -0.0000   -0.0325    0.1262
       13 O1     4pz        0.0048   -0.0000    0.0000    0.0029    0.0000   -0.0000   -0.0000   -0.0000    0.0079    0.0049
       14 O1     3d2-       0.0000    0.0007    0.0000   -0.0000   -0.0000    0.0000   -0.0000   -0.0000   -0.0000    0.0000
       15 O1     4d2-      -0.0000    0.0003    0.0000   -0.0000    0.0000   -0.0000   -0.0000   -0.0000    0.0000    0.0000
       16 O1     3d1-       0.0000   -0.0000    0.0000   -0.0000    0.0000   -0.0036   -0.0207   -0.0003   -0.0000    0.0000
       17 O1     4d1-      -0.0000   -0.0000    0.0000    0.0000    0.0000   -0.0003   -0.0086   -0.0001   -0.0000    0.0000
       18 O1     3d0       -0.0344   -0.0000    0.0000    0.0041    0.0000   -0.0000   -0.0000   -0.0000    0.0192   -0.0208
       19 O1     4d0        0.0039    0.0000   -0.0000   -0.0020    0.0000   -0.0000   -0.0000   -0.0000    0.0055   -0.0088
       20 O1     3d1+      -0.0000    0.0000    0.0000    0.0000   -0.0036   -0.0000   -0.0003    0.0207    0.0000   -0.0000
       21 O1     4d1+       0.0000    0.0000    0.0000   -0.0000   -0.0003   -0.0000   -0.0001    0.0086    0.0000   -0.0000
       22 O1     3d2+      -0.0000    0.0000   -0.0007    0.0000    0.0000    0.0000   -0.0000    0.0000    0.0000   -0.0000
       23 O1     4d2+       0.0000    0.0000   -0.0003    0.0000   -0.0000   -0.0000   -0.0000    0.0000   -0.0000   -0.0000
       24 O1     4f3-       0.0000    0.0000    0.0000    0.0000    0.0000   -0.0000   -0.0000   -0.0000   -0.0000    0.0000
       25 O1     4f2-      -0.0000    0.0001    0.0000   -0.0000    0.0000   -0.0000   -0.0000   -0.0000   -0.0000    0.0000
       26 O1     4f1-      -0.0000    0.0000   -0.0000    0.0000    0.0000   -0.0005   -0.0045   -0.0001   -0.0000    0.0000
       27 O1     4f0       -0.0001   -0.0000    0.0000   -0.0000    0.0000   -0.0000   -0.0000   -0.0000    0.0027   -0.0041
       28 O1     4f1+       0.0000   -0.0000   -0.0000   -0.0000   -0.0005   -0.0000   -0.0001    0.0045    0.0000   -0.0000
       29 O1     4f2+       0.0000    0.0000   -0.0001    0.0000   -0.0000   -0.0000   -0.0000    0.0000    0.0000   -0.0000
       30 O1     4f3+      -0.0000    0.0000   -0.0000    0.0000   -0.0000   -0.0000   -0.0000    0.0000   -0.0000    0.0000
       31 FE2    1s        -0.0002   -0.0000    0.0000    0.0001   -0.0000    0.0000    0.0000    0.0000   -0.0005    0.0015
       32 FE2    2s        -0.0016   -0.0000    0.0000    0.0012   -0.0000    0.0000    0.0000    0.0000   -0.0038    0.0113
       33 FE2    3s        -0.0123   -0.0000    0.0000    0.0113    0.0000   -0.0000    0.0000    0.0000   -0.0202    0.0581
       34 FE2    4s         0.0070   -0.0000   -0.0000    0.0067   -0.0000    0.0000   -0.0000   -0.0000    0.7986    0.6046
       35 FE2    5s        -0.0055    0.0000    0.0000   -0.0023    0.0000   -0.0000    0.0000    0.0000   -0.1914   -0.0572
       36 FE2    6s         0.0014   -0.0000   -0.0000   -0.0019   -0.0000    0.0000   -0.0000   -0.0000    0.0121   -0.0137
       37 FE2    2px       -0.0000   -0.0000   -0.0000    0.0000   -0.0001   -0.0000   -0.0000    0.0002    0.0000   -0.0000
       38 FE2    3px       -0.0000   -0.0000   -0.0000   -0.0000   -0.0021   -0.0000   -0.0001    0.0069    0.0000   -0.0000
       39 FE2    4px        0.0000    0.0000    0.0000    0.0000   -0.0121   -0.0002    0.0003   -0.0202   -0.0000    0.0000
       40 FE2    5px       -0.0000   -0.0000   -0.0000   -0.0000    0.0024    0.0000   -0.0000    0.0018    0.0000    0.0000
       41 FE2    6px       -0.0000   -0.0000   -0.0000    0.0000    0.0000    0.0000   -0.0000    0.0019    0.0000   -0.0000
       42 FE2    2py        0.0000    0.0000   -0.0000   -0.0000    0.0000   -0.0001   -0.0002   -0.0000   -0.0000    0.0000
       43 FE2    3py        0.0000    0.0000   -0.0000    0.0000    0.0000   -0.0021   -0.0069   -0.0001   -0.0000    0.0000
       44 FE2    4py       -0.0000   -0.0000    0.0000   -0.0000    0.0002   -0.0121    0.0202    0.0003    0.0000   -0.0001
       45 FE2    5py        0.0000    0.0000   -0.0000    0.0000   -0.0000    0.0024   -0.0018   -0.0000   -0.0000   -0.0000
       46 FE2    6py        0.0000    0.0000   -0.0000   -0.0000   -0.0000    0.0000   -0.0019   -0.0000   -0.0000    0.0000
       47 FE2    2pz       -0.0006   -0.0000    0.0000    0.0001   -0.0000    0.0000    0.0000    0.0000   -0.0008    0.0019
       48 FE2    3pz       -0.0204   -0.0000    0.0000    0.0037   -0.0000    0.0000    0.0000    0.0000   -0.0154    0.0388
       49 FE2    4pz        0.0063   -0.0000    0.0000    0.0002   -0.0000    0.0000   -0.0000   -0.0000    0.0246   -0.4161
       50 FE2    5pz       -0.0048    0.0000    0.0000    0.0009    0.0000   -0.0000    0.0000    0.0000   -0.0073   -0.0046
       51 FE2    6pz       -0.0037    0.0000   -0.0000   -0.0025    0.0000   -0.0000    0.0000    0.0000   -0.0064    0.0159
       52 FE2    3d2-       0.0000    0.9945    0.0267   -0.0000    0.0000   -0.0000    0.0000    0.0000    0.0000   -0.0000
       53 FE2    4d2-      -0.0000   -0.0958   -0.0026    0.0000    0.0000   -0.0000    0.0000    0.0000   -0.0000   -0.0000
       54 FE2    5d2-      -0.0000   -0.0315   -0.0008    0.0000   -0.0000    0.0000   -0.0000   -0.0000   -0.0000   -0.0000
       55 FE2    3d1-       0.0000    0.0000   -0.0000    0.0002   -0.0131    0.9824   -0.1564   -0.0020   -0.0000    0.0000
       56 FE2    4d1-      -0.0000   -0.0000    0.0000   -0.0000    0.0012   -0.0911    0.0243    0.0003    0.0000   -0.0000
       57 FE2    5d1-       0.0000    0.0000   -0.0000   -0.0000    0.0004   -0.0335    0.0081    0.0001    0.0000   -0.0000
       58 FE2    3d0        0.0441   -0.0000    0.0000    0.9946    0.0000   -0.0002    0.0001    0.0000   -0.0332    0.0675
       59 FE2    4d0       -0.0017    0.0000   -0.0000   -0.0907   -0.0000    0.0000   -0.0000   -0.0000    0.0013   -0.0284
       60 FE2    5d0       -0.0029    0.0000   -0.0000   -0.0327   -0.0000    0.0000   -0.0000   -0.0000    0.0001   -0.0075
       61 FE2    3d1+      -0.0000   -0.0000   -0.0000   -0.0000    0.9824    0.0131   -0.0020    0.1564    0.0000   -0.0000
       62 FE2    4d1+       0.0000    0.0000    0.0000    0.0000   -0.0911   -0.0012    0.0003   -0.0243   -0.0000    0.0000
       63 FE2    5d1+      -0.0000   -0.0000   -0.0000    0.0000   -0.0335   -0.0004    0.0001   -0.0081   -0.0000    0.0000
       64 FE2    3d2+      -0.0000    0.0267   -0.9945    0.0000   -0.0000   -0.0000    0.0000   -0.0000   -0.0000    0.0000
       65 FE2    4d2+       0.0000   -0.0026    0.0958   -0.0000   -0.0000   -0.0000    0.0000   -0.0000    0.0000    0.0000
       66 FE2    5d2+       0.0000   -0.0008    0.0315   -0.0000    0.0000    0.0000   -0.0000    0.0000    0.0000    0.0000
       67 FE2    4f3-      -0.0000   -0.0000   -0.0000    0.0000    0.0000   -0.0000    0.0000    0.0000    0.0000   -0.0000
       68 FE2    5f3-       0.0000   -0.0000   -0.0000   -0.0000    0.0000   -0.0000    0.0000    0.0000    0.0000   -0.0000
       69 FE2    4f2-      -0.0000   -0.0021   -0.0001    0.0000    0.0000   -0.0000    0.0000    0.0000    0.0000    0.0000
       70 FE2    5f2-      -0.0000   -0.0021   -0.0001    0.0000    0.0000   -0.0000    0.0000    0.0000    0.0000    0.0000
       71 FE2    4f1-       0.0000    0.0000   -0.0000    0.0000    0.0000   -0.0021    0.0046    0.0001    0.0000   -0.0000
       72 FE2    5f1-       0.0000   -0.0000    0.0000    0.0000    0.0000   -0.0018    0.0037    0.0000    0.0000   -0.0000
       73 FE2    4f0        0.0027    0.0000   -0.0000   -0.0014    0.0000   -0.0000   -0.0000   -0.0000    0.0044   -0.0060
       74 FE2    5f0        0.0019    0.0000   -0.0000   -0.0010   -0.0000    0.0000   -0.0000   -0.0000    0.0031   -0.0037
       75 FE2    4f1+      -0.0000   -0.0000   -0.0000   -0.0000   -0.0021   -0.0000    0.0001   -0.0046   -0.0000    0.0000
       76 FE2    5f1+      -0.0000    0.0000    0.0000   -0.0000   -0.0018   -0.0000    0.0000   -0.0037   -0.0000    0.0000
       77 FE2    4f2+       0.0000   -0.0001    0.0021   -0.0000   -0.0000   -0.0000    0.0000   -0.0000   -0.0000   -0.0000
       78 FE2    5f2+       0.0000   -0.0001    0.0021   -0.0000   -0.0000   -0.0000    0.0000   -0.0000   -0.0000   -0.0000
       79 FE2    4f3+      -0.0000   -0.0000    0.0000    0.0000   -0.0000   -0.0000    0.0000   -0.0000   -0.0000   -0.0000
       80 FE2    5f3+      -0.0000   -0.0000    0.0000    0.0000   -0.0000   -0.0000    0.0000   -0.0000   -0.0000    0.0000
       81 FE2    5g4-      -0.0000    0.0000    0.0000   -0.0000    0.0000    0.0000   -0.0000    0.0000   -0.0000   -0.0000
       82 FE2    5g3-      -0.0000   -0.0000   -0.0000    0.0000   -0.0000    0.0000   -0.0000   -0.0000    0.0000    0.0000
       83 FE2    5g2-      -0.0000   -0.0029   -0.0001   -0.0000    0.0000   -0.0000    0.0000    0.0000   -0.0000   -0.0000
       84 FE2    5g1-       0.0000   -0.0000    0.0000    0.0000    0.0000   -0.0018    0.0008    0.0000    0.0000   -0.0000
       85 FE2    5g0        0.0003    0.0000    0.0000   -0.0011   -0.0000    0.0000   -0.0000   -0.0000    0.0005   -0.0004
       86 FE2    5g1+      -0.0000    0.0000    0.0000   -0.0000   -0.0018   -0.0000    0.0000   -0.0008   -0.0000    0.0000
       87 FE2    5g2+       0.0000   -0.0001    0.0029    0.0000   -0.0000   -0.0000    0.0000   -0.0000    0.0000    0.0000
       88 FE2    5g3+      -0.0000   -0.0000    0.0000    0.0000    0.0000    0.0000   -0.0000    0.0000   -0.0000   -0.0000
       89 FE2    5g4+       0.0000    0.0000   -0.0000    0.0000    0.0000   -0.0000    0.0000    0.0000    0.0000    0.0000
 
          Orbital           21        22        23        24        25        26        27        28        29        30    
          Energy           -0.3604   -0.3604   -0.2844   -0.2130   -0.1242   -0.1242   -0.1146   -0.1146   -0.1024   -0.0744
          Occ. No.          0.0000    0.0000    0.0000    0.0000    0.0000    0.0000    0.0000    0.0000    0.0000    0.0000
 
        1 O1     1s        -0.0000    0.0000   -0.0493   -0.0034    0.0000    0.0000   -0.0000    0.0000   -0.0563   -0.0762
        2 O1     2s        -0.0000    0.0000   -0.4385   -0.0290    0.0000    0.0000   -0.0002    0.0000   -0.4669   -0.6250
        3 O1     3s        -0.0000    0.0000   -0.1485   -0.0183    0.0000    0.0000   -0.0001    0.0000   -0.2162   -0.2817
        4 O1     4s        -0.0000    0.0000   -0.0334   -0.0054    0.0000    0.0000   -0.0000    0.0000   -0.0513   -0.0634
        5 O1     2px       -0.1334   -0.0014    0.0000   -0.0000   -0.0000    0.0000   -0.0017   -0.1131   -0.0000   -0.0000
        6 O1     3px       -0.0188   -0.0002    0.0000   -0.0000    0.0000   -0.0000    0.0060    0.4097    0.0000    0.0000
        7 O1     4px       -0.0036   -0.0000    0.0000   -0.0000    0.0000   -0.0000    0.0027    0.1841    0.0000    0.0000
        8 O1     2py        0.0014   -0.1334   -0.0001    0.0000    0.0000    0.0000   -0.1131    0.0017    0.0001    0.0001
        9 O1     3py        0.0002   -0.0188   -0.0000    0.0000   -0.0000   -0.0000    0.4097   -0.0060   -0.0001   -0.0000
       10 O1     4py        0.0000   -0.0036   -0.0000    0.0000   -0.0000   -0.0000    0.1841   -0.0027   -0.0001   -0.0000
       11 O1     2pz       -0.0000    0.0001    0.4609   -0.2524   -0.0000   -0.0000    0.0001   -0.0000    0.1798    0.0803
       12 O1     3pz       -0.0000    0.0000    0.1772   -0.0941   -0.0000   -0.0000    0.0003   -0.0000    0.5829    0.4888
       13 O1     4pz       -0.0000    0.0000    0.0152   -0.0148   -0.0000   -0.0000    0.0001   -0.0000    0.2018    0.1558
       14 O1     3d2-      -0.0000    0.0000    0.0000    0.0000    0.0258   -0.0006    0.0000   -0.0000   -0.0000    0.0000
       15 O1     4d2-      -0.0000    0.0000    0.0000    0.0000    0.0138   -0.0003    0.0000   -0.0000    0.0000    0.0000
       16 O1     3d1-       0.0001   -0.0062    0.0000   -0.0000   -0.0000   -0.0000   -0.0023    0.0000   -0.0000   -0.0000
       17 O1     4d1-       0.0000   -0.0010    0.0000   -0.0000   -0.0000   -0.0000    0.0013   -0.0000   -0.0000   -0.0000
       18 O1     3d0        0.0000   -0.0000   -0.0138   -0.0007    0.0000    0.0000   -0.0000    0.0000   -0.0234   -0.0599
       19 O1     4d0        0.0000   -0.0000   -0.0117    0.0015    0.0000    0.0000   -0.0000    0.0000   -0.0261   -0.0476
       20 O1     3d1+      -0.0062   -0.0001   -0.0000    0.0000    0.0000   -0.0000   -0.0000   -0.0023    0.0000    0.0000
       21 O1     4d1+      -0.0010   -0.0000   -0.0000    0.0000    0.0000   -0.0000    0.0000    0.0013    0.0000    0.0000
       22 O1     3d2+       0.0000    0.0000   -0.0000   -0.0000    0.0006    0.0258    0.0000    0.0000   -0.0000   -0.0000
       23 O1     4d2+       0.0000    0.0000   -0.0000   -0.0000    0.0003    0.0138    0.0000    0.0000   -0.0000   -0.0000
       24 O1     4f3-      -0.0000    0.0000    0.0000   -0.0000   -0.0000    0.0000    0.0000   -0.0000   -0.0000   -0.0000
       25 O1     4f2-      -0.0000    0.0000    0.0000   -0.0000   -0.0012    0.0000    0.0000   -0.0000   -0.0000   -0.0000
       26 O1     4f1-      -0.0000    0.0005    0.0000   -0.0000    0.0000    0.0000   -0.0021    0.0000    0.0000   -0.0000
       27 O1     4f0        0.0000   -0.0000   -0.0017    0.0009   -0.0000   -0.0000    0.0000   -0.0000    0.0061    0.0106
       28 O1     4f1+       0.0005    0.0000   -0.0000    0.0000   -0.0000    0.0000   -0.0000   -0.0021   -0.0000    0.0000
       29 O1     4f2+       0.0000    0.0000   -0.0000    0.0000   -0.0000   -0.0012    0.0000    0.0000    0.0000    0.0000
       30 O1     4f3+       0.0000    0.0000    0.0000    0.0000   -0.0000   -0.0000    0.0000    0.0000   -0.0000   -0.0000
       31 FE2    1s        -0.0000    0.0000    0.0021   -0.0008   -0.0000   -0.0000    0.0000   -0.0000    0.0050    0.0045
       32 FE2    2s        -0.0000    0.0000    0.0149   -0.0061   -0.0000   -0.0000    0.0000   -0.0000    0.0363    0.0320
       33 FE2    3s        -0.0000    0.0000    0.0773   -0.0304   -0.0000   -0.0000    0.0001   -0.0000    0.1698    0.1522
       34 FE2    4s        -0.0000    0.0000    0.5102    0.0801   -0.0000   -0.0000    0.0002   -0.0000    0.4907    0.5760
       35 FE2    5s        -0.0000    0.0000    0.1229    0.9545    0.0000    0.0000   -0.0001    0.0000   -0.2685    0.1590
       36 FE2    6s         0.0000   -0.0000    0.0129    0.2978   -0.0000    0.0000    0.0000   -0.0000    0.5591   -0.7816
       37 FE2    2px        0.0004    0.0000   -0.0000    0.0000   -0.0000    0.0000   -0.0000   -0.0012   -0.0000   -0.0000
       38 FE2    3px        0.0118    0.0001   -0.0000    0.0000   -0.0000    0.0000   -0.0003   -0.0218   -0.0000   -0.0000
       39 FE2    4px        1.0060    0.0107   -0.0000    0.0000   -0.0000    0.0000   -0.0023   -0.1574   -0.0000    0.0000
       40 FE2    5px        0.1397    0.0015   -0.0000    0.0000   -0.0000    0.0000   -0.0001   -0.0047    0.0000   -0.0000
       41 FE2    6px        0.0698    0.0007   -0.0000   -0.0000   -0.0000    0.0000    0.0001    0.0084    0.0000   -0.0000
       42 FE2    2py       -0.0000    0.0004    0.0000   -0.0000    0.0000    0.0000   -0.0012    0.0000    0.0000    0.0000
       43 FE2    3py       -0.0001    0.0118    0.0000   -0.0000    0.0000    0.0000   -0.0218    0.0003    0.0000    0.0000
       44 FE2    4py       -0.0107    1.0060    0.0000   -0.0000    0.0000    0.0000   -0.1574    0.0023    0.0000   -0.0000
       45 FE2    5py       -0.0015    0.1397    0.0000   -0.0000    0.0000    0.0000   -0.0047    0.0001   -0.0000    0.0000
       46 FE2    6py       -0.0007    0.0698    0.0000    0.0000    0.0000    0.0000    0.0084   -0.0001   -0.0000    0.0000
       47 FE2    2pz       -0.0000    0.0000    0.0029   -0.0009   -0.0000   -0.0000    0.0000   -0.0000    0.0048    0.0046
       48 FE2    3pz       -0.0000    0.0000    0.0633   -0.0184   -0.0000   -0.0000    0.0000   -0.0000    0.0828    0.0823
       49 FE2    4pz        0.0000   -0.0000    1.0326   -0.1338   -0.0000   -0.0000    0.0002   -0.0000    0.3635    0.4307
       50 FE2    5pz        0.0000   -0.0000    0.2537   -0.0764   -0.0000   -0.0000    0.0001   -0.0000    0.1680    0.1424
       51 FE2    6pz       -0.0000    0.0000    0.1662   -0.0603   -0.0000   -0.0000    0.0001   -0.0000    0.1250    0.0969
       52 FE2    3d2-      -0.0000    0.0000   -0.0000    0.0000    0.0962   -0.0022    0.0000   -0.0000    0.0000   -0.0000
       53 FE2    4d2-       0.0000   -0.0000   -0.0000    0.0000    0.8260   -0.0192    0.0000   -0.0001   -0.0000   -0.0000
       54 FE2    5d2-       0.0000   -0.0000    0.0000    0.0000    0.5465   -0.0127    0.0000   -0.0001   -0.0000   -0.0000
       55 FE2    3d1-      -0.0001    0.0111    0.0000    0.0000   -0.0000   -0.0000    0.0482   -0.0007   -0.0000   -0.0000
       56 FE2    4d1-       0.0003   -0.0286   -0.0000    0.0000   -0.0000   -0.0001    0.6144   -0.0090   -0.0002   -0.0001
       57 FE2    5d1-       0.0002   -0.0154   -0.0000    0.0000   -0.0000   -0.0001    0.4083   -0.0060   -0.0001   -0.0001
       58 FE2    3d0       -0.0000    0.0000    0.0655   -0.0153   -0.0000   -0.0000    0.0001   -0.0000    0.1077    0.1212
       59 FE2    4d0        0.0000   -0.0000   -0.1390    0.0503   -0.0000   -0.0000    0.0002   -0.0000    0.5238    0.5634
       60 FE2    5d0       -0.0000    0.0000   -0.0776    0.0259   -0.0000   -0.0000    0.0001   -0.0000    0.3379    0.3580
       61 FE2    3d1+       0.0111    0.0001   -0.0000   -0.0000    0.0000   -0.0000    0.0007    0.0482    0.0000    0.0000
       62 FE2    4d1+      -0.0286   -0.0003    0.0000   -0.0000    0.0001   -0.0000    0.0090    0.6144    0.0000    0.0000
       63 FE2    5d1+      -0.0154   -0.0002    0.0000   -0.0000    0.0001   -0.0000    0.0060    0.4083    0.0000    0.0000
       64 FE2    3d2+       0.0000    0.0000    0.0000   -0.0000    0.0022    0.0962    0.0000    0.0000   -0.0000    0.0000
       65 FE2    4d2+      -0.0000   -0.0000    0.0000   -0.0000    0.0192    0.8260    0.0001    0.0000   -0.0000    0.0000
       66 FE2    5d2+      -0.0000   -0.0000   -0.0000   -0.0000    0.0127    0.5465    0.0001    0.0000   -0.0000    0.0000
       67 FE2    4f3-      -0.0000    0.0000    0.0000   -0.0000   -0.0000    0.0000   -0.0000    0.0000   -0.0000   -0.0000
       68 FE2    5f3-      -0.0000    0.0000    0.0000   -0.0000   -0.0000    0.0000   -0.0000    0.0000   -0.0000   -0.0000
       69 FE2    4f2-       0.0000   -0.0000   -0.0000    0.0000   -0.0016    0.0000   -0.0000    0.0000    0.0000    0.0000
       70 FE2    5f2-       0.0000   -0.0000   -0.0000   -0.0000   -0.0014    0.0000   -0.0000    0.0000    0.0000    0.0000
       71 FE2    4f1-       0.0000   -0.0032    0.0000    0.0000    0.0000    0.0000   -0.0082    0.0001    0.0000    0.0000
       72 FE2    5f1-       0.0000   -0.0033    0.0000    0.0000    0.0000    0.0000   -0.0084    0.0001    0.0000    0.0000
       73 FE2    4f0        0.0000   -0.0000   -0.0074    0.0019   -0.0000    0.0000    0.0000   -0.0000    0.0057    0.0032
       74 FE2    5f0        0.0000   -0.0000   -0.0045    0.0013   -0.0000    0.0000    0.0000   -0.0000    0.0064    0.0049
       75 FE2    4f1+      -0.0032   -0.0000   -0.0000   -0.0000   -0.0000    0.0000   -0.0001   -0.0082   -0.0000   -0.0000
       76 FE2    5f1+      -0.0033   -0.0000   -0.0000   -0.0000   -0.0000    0.0000   -0.0001   -0.0084   -0.0000   -0.0000
       77 FE2    4f2+      -0.0000   -0.0000    0.0000    0.0000   -0.0000   -0.0016   -0.0000   -0.0000   -0.0000   -0.0000
       78 FE2    5f2+      -0.0000   -0.0000    0.0000    0.0000   -0.0000   -0.0014   -0.0000   -0.0000   -0.0000   -0.0000
       79 FE2    4f3+       0.0000    0.0000   -0.0000    0.0000   -0.0000   -0.0000   -0.0000   -0.0000    0.0000    0.0000
       80 FE2    5f3+       0.0000    0.0000   -0.0000    0.0000   -0.0000   -0.0000   -0.0000   -0.0000    0.0000    0.0000
       81 FE2    5g4-       0.0000    0.0000   -0.0000    0.0000   -0.0000    0.0000   -0.0000   -0.0000    0.0000    0.0000
       82 FE2    5g3-      -0.0000    0.0000    0.0000   -0.0000   -0.0000    0.0000   -0.0000    0.0000    0.0000   -0.0000
       83 FE2    5g2-       0.0000   -0.0000   -0.0000    0.0000    0.0004   -0.0000    0.0000   -0.0000    0.0000    0.0000
       84 FE2    5g1-      -0.0000    0.0000   -0.0000   -0.0000    0.0000    0.0000   -0.0004    0.0000    0.0000    0.0000
       85 FE2    5g0        0.0000   -0.0000   -0.0001   -0.0000   -0.0000    0.0000    0.0000   -0.0000    0.0010    0.0009
       86 FE2    5g1+       0.0000    0.0000    0.0000    0.0000   -0.0000    0.0000   -0.0000   -0.0004   -0.0000   -0.0000
       87 FE2    5g2+      -0.0000   -0.0000    0.0000   -0.0000    0.0000    0.0004    0.0000    0.0000   -0.0000   -0.0000
       88 FE2    5g3+       0.0000    0.0000   -0.0000    0.0000   -0.0000   -0.0000   -0.0000   -0.0000   -0.0000    0.0000
       89 FE2    5g4+       0.0000   -0.0000    0.0000   -0.0000   -0.0000   -0.0000    0.0000   -0.0000   -0.0000   -0.0000
--
 
 
  Input file to MOLDEN was generated!
 
 
++    Static properties:
      ------------------
 
 
      LoProp Charges per center
 

                   O1       FE2   
      Nuclear      8.0000  26.0000
      Electronic  -7.8062 -24.1938
 
      Total        0.1938   1.8062
--
 
 
      All orbitals with orbital energies smaller than  E(LUMO)+0.5 are printed
 
++    Molecular orbitals:
      -------------------
 
      Title: UHF orbitals (beta)

      Molecular orbitals for symmetry species 1: a  
 
          Orbital            1         2         3         4         5         6         7         8         9        10    
          Energy         -264.3379  -33.0298  -28.1021  -28.1021  -28.1019  -21.2846   -4.7154   -3.2093   -3.1835   -3.1835
          Occ. No.          1.0000    1.0000    1.0000    1.0000    1.0000    1.0000    1.0000    1.0000    1.0000    1.0000
 
        1 O1     1s        -0.0000   -0.0000    0.0000   -0.0000    0.0000    0.9999   -0.0002   -0.0003    0.0000   -0.0000
        2 O1     2s        -0.0000   -0.0001    0.0000   -0.0000    0.0000   -0.0017   -0.0000    0.0086   -0.0000    0.0000
        3 O1     3s        -0.0000   -0.0001    0.0000   -0.0000    0.0000   -0.0009   -0.0008    0.0001    0.0000   -0.0000
        4 O1     4s        -0.0000   -0.0000    0.0000   -0.0000    0.0000   -0.0008   -0.0003   -0.0001    0.0000   -0.0000
        5 O1     2px        0.0000   -0.0000    0.0001    0.0000   -0.0000    0.0000   -0.0000   -0.0000    0.0001    0.0043
        6 O1     3px        0.0000   -0.0000   -0.0000   -0.0000    0.0000    0.0000   -0.0000   -0.0000   -0.0000   -0.0002
        7 O1     4px        0.0000   -0.0000   -0.0001   -0.0000    0.0000    0.0000    0.0000   -0.0000   -0.0000   -0.0002
        8 O1     2py       -0.0000    0.0000   -0.0000    0.0001    0.0000   -0.0000    0.0000    0.0000    0.0043   -0.0001
        9 O1     3py       -0.0000    0.0000    0.0000   -0.0000   -0.0000   -0.0000    0.0000    0.0000   -0.0002    0.0000
       10 O1     4py       -0.0000    0.0000    0.0000   -0.0001   -0.0000   -0.0000   -0.0000    0.0000   -0.0002    0.0000
       11 O1     2pz        0.0000    0.0001   -0.0000    0.0000   -0.0001    0.0004   -0.0001   -0.0063    0.0000   -0.0000
       12 O1     3pz        0.0000    0.0002   -0.0000    0.0000   -0.0002    0.0007    0.0008    0.0013   -0.0000    0.0000
       13 O1     4pz       -0.0000   -0.0000   -0.0000    0.0000   -0.0001    0.0000   -0.0001    0.0007   -0.0000    0.0000
       14 O1     3d2-      -0.0000   -0.0000    0.0000    0.0000    0.0000   -0.0000   -0.0000   -0.0000   -0.0000    0.0000
       15 O1     4d2-       0.0000   -0.0000    0.0000    0.0000    0.0000    0.0000   -0.0000   -0.0000    0.0000   -0.0000
       16 O1     3d1-       0.0000   -0.0000    0.0000   -0.0000   -0.0000   -0.0000   -0.0000   -0.0000   -0.0010    0.0000
       17 O1     4d1-       0.0000   -0.0000    0.0000   -0.0000   -0.0000    0.0000   -0.0000    0.0000   -0.0003    0.0000
       18 O1     3d0       -0.0000   -0.0001    0.0000   -0.0000    0.0000    0.0008    0.0000    0.0009   -0.0000    0.0000
       19 O1     4d0       -0.0000   -0.0001    0.0000   -0.0000    0.0000   -0.0012   -0.0001    0.0001   -0.0000    0.0000
       20 O1     3d1+      -0.0000    0.0000   -0.0000   -0.0000    0.0000    0.0000    0.0000    0.0000   -0.0000   -0.0010
       21 O1     4d1+      -0.0000    0.0000   -0.0000   -0.0000    0.0000   -0.0000    0.0000   -0.0000   -0.0000   -0.0003
       22 O1     3d2+       0.0000    0.0000    0.0000   -0.0000   -0.0000    0.0000    0.0000    0.0000   -0.0000   -0.0000
       23 O1     4d2+      -0.0000    0.0000    0.0000   -0.0000   -0.0000   -0.0000    0.0000    0.0000    0.0000    0.0000
       24 O1     4f3-       0.0000    0.0000   -0.0000    0.0000   -0.0000   -0.0000   -0.0000   -0.0000    0.0000   -0.0000
       25 O1     4f2-       0.0000    0.0000   -0.0000   -0.0000   -0.0000    0.0000    0.0000    0.0000    0.0000   -0.0000
       26 O1     4f1-      -0.0000    0.0000   -0.0000    0.0000    0.0000   -0.0000   -0.0000   -0.0000    0.0003   -0.0000
       27 O1     4f0       -0.0000    0.0000    0.0000   -0.0000    0.0000    0.0001   -0.0002   -0.0003    0.0000   -0.0000
       28 O1     4f1+       0.0000   -0.0000    0.0000    0.0000   -0.0000    0.0000    0.0000    0.0000    0.0000    0.0003
       29 O1     4f2+      -0.0000   -0.0000   -0.0000    0.0000    0.0000   -0.0000   -0.0000   -0.0000    0.0000    0.0000
       30 O1     4f3+       0.0000   -0.0000    0.0000    0.0000    0.0000   -0.0000    0.0000    0.0000    0.0000    0.0000
       31 FE2    1s         1.0000    0.0000   -0.0000    0.0000   -0.0000    0.0000    0.0000   -0.0000   -0.0000    0.0000
       32 FE2    2s        -0.0000    1.0000   -0.0000    0.0000   -0.0005    0.0001    0.0008    0.0001   -0.0000    0.0000
       33 FE2    3s        -0.0000   -0.0007   -0.0000    0.0000   -0.0002    0.0004    1.0002    0.0050   -0.0000    0.0000
       34 FE2    4s         0.0000    0.0004   -0.0000    0.0000   -0.0001    0.0011    0.0041    0.0038   -0.0000    0.0000
       35 FE2    5s        -0.0000   -0.0003    0.0000   -0.0000    0.0000   -0.0002   -0.0017   -0.0017    0.0000   -0.0000
       36 FE2    6s         0.0000    0.0001    0.0000   -0.0000    0.0000   -0.0000    0.0009    0.0001    0.0000   -0.0000
       37 FE2    2px        0.0000   -0.0000    0.9994    0.0354   -0.0001   -0.0000    0.0000   -0.0000    0.0000    0.0027
       38 FE2    3px        0.0000   -0.0000   -0.0027   -0.0001    0.0000   -0.0000   -0.0000   -0.0000    0.0134    0.9998
       39 FE2    4px       -0.0000    0.0000    0.0004    0.0000   -0.0000   -0.0000    0.0000    0.0000   -0.0000   -0.0007
       40 FE2    5px        0.0000   -0.0000   -0.0010   -0.0000    0.0000   -0.0000    0.0000   -0.0000   -0.0000   -0.0022
       41 FE2    6px       -0.0000    0.0000    0.0006    0.0000   -0.0000   -0.0000   -0.0000   -0.0000    0.0000    0.0005
       42 FE2    2py       -0.0000    0.0000   -0.0354    0.9994    0.0023    0.0000   -0.0000    0.0000    0.0027   -0.0000
       43 FE2    3py       -0.0000    0.0000    0.0001   -0.0027   -0.0000    0.0000    0.0000    0.0001    0.9998   -0.0134
       44 FE2    4py        0.0000   -0.0000   -0.0000    0.0004    0.0000    0.0000   -0.0000   -0.0000   -0.0007    0.0000
       45 FE2    5py       -0.0000    0.0000    0.0000   -0.0010   -0.0000    0.0000   -0.0000    0.0000   -0.0022    0.0000
       46 FE2    6py        0.0000   -0.0000   -0.0000    0.0006    0.0000    0.0000    0.0000    0.0000    0.0005   -0.0000
       47 FE2    2pz        0.0000    0.0005    0.0001   -0.0023    1.0000    0.0000    0.0001    0.0023   -0.0000    0.0000
       48 FE2    3pz        0.0000   -0.0000   -0.0000    0.0000   -0.0023    0.0003   -0.0051    0.9994   -0.0001    0.0000
       49 FE2    4pz        0.0000    0.0002    0.0000   -0.0000    0.0003    0.0009    0.0018    0.0027   -0.0000    0.0000
       50 FE2    5pz        0.0000   -0.0000   -0.0000    0.0000   -0.0009   -0.0001   -0.0001   -0.0036    0.0000   -0.0000
       51 FE2    6pz       -0.0000   -0.0001    0.0000   -0.0000    0.0006   -0.0002   -0.0005   -0.0007    0.0000   -0.0000
       52 FE2    3d2-       0.0000    0.0000    0.0000    0.0000   -0.0000   -0.0000    0.0000    0.0000   -0.0000    0.0000
       53 FE2    4d2-       0.0000    0.0000   -0.0000   -0.0000    0.0000   -0.0000    0.0000    0.0000   -0.0000    0.0000
       54 FE2    5d2-      -0.0000   -0.0000    0.0000    0.0000   -0.0000   -0.0000   -0.0000   -0.0000    0.0000   -0.0000
       55 FE2    3d1-      -0.0000   -0.0000   -0.0000    0.0000    0.0000    0.0000    0.0000    0.0000   -0.0058    0.0001
       56 FE2    4d1-       0.0000    0.0000    0.0000   -0.0000   -0.0000    0.0000   -0.0000   -0.0000    0.0028   -0.0000
       57 FE2    5d1-       0.0000   -0.0000   -0.0000    0.0000    0.0000    0.0000    0.0000    0.0000   -0.0002    0.0000
       58 FE2    3d0        0.0000    0.0001    0.0000   -0.0000    0.0000    0.0002    0.0008   -0.0005    0.0000   -0.0000
       59 FE2    4d0        0.0000    0.0001   -0.0000    0.0000   -0.0000    0.0004    0.0012    0.0003   -0.0000    0.0000
       60 FE2    5d0        0.0000   -0.0000    0.0000   -0.0000    0.0001    0.0000    0.0001    0.0002    0.0000   -0.0000
       61 FE2    3d1+       0.0000    0.0000    0.0000    0.0000   -0.0000   -0.0000   -0.0000   -0.0000   -0.0001   -0.0058
       62 FE2    4d1+      -0.0000   -0.0000   -0.0000   -0.0000    0.0000   -0.0000    0.0000    0.0000    0.0000    0.0028
       63 FE2    5d1+      -0.0000    0.0000    0.0000    0.0000   -0.0000   -0.0000   -0.0000   -0.0000   -0.0000   -0.0002
       64 FE2    3d2+      -0.0000   -0.0000    0.0000   -0.0000    0.0000    0.0000   -0.0000   -0.0000   -0.0000   -0.0000
       65 FE2    4d2+      -0.0000   -0.0000   -0.0000    0.0000   -0.0000    0.0000   -0.0000   -0.0000   -0.0000   -0.0000
       66 FE2    5d2+       0.0000    0.0000    0.0000   -0.0000    0.0000    0.0000    0.0000    0.0000    0.0000    0.0000
       67 FE2    4f3-      -0.0000    0.0000   -0.0000    0.0000   -0.0000   -0.0000    0.0000   -0.0000    0.0000   -0.0000
       68 FE2    5f3-       0.0000   -0.0000    0.0000   -0.0000    0.0000   -0.0000   -0.0000   -0.0000   -0.0000    0.0000
       69 FE2    4f2-       0.0000   -0.0000    0.0000    0.0000    0.0000   -0.0000    0.0000    0.0000   -0.0000    0.0000
       70 FE2    5f2-      -0.0000    0.0000   -0.0000   -0.0000   -0.0000   -0.0000    0.0000    0.0000    0.0000   -0.0000
       71 FE2    4f1-      -0.0000    0.0000   -0.0000    0.0003    0.0000    0.0000    0.0000   -0.0000    0.0071   -0.0001
       72 FE2    5f1-       0.0000   -0.0000    0.0000   -0.0002   -0.0000    0.0000   -0.0000   -0.0000    0.0010   -0.0000
       73 FE2    4f0       -0.0000    0.0000   -0.0000    0.0000   -0.0005    0.0001    0.0005   -0.0106   -0.0000    0.0000
       74 FE2    5f0        0.0000    0.0000    0.0000   -0.0000    0.0003    0.0001   -0.0000   -0.0001   -0.0000    0.0000
       75 FE2    4f1+       0.0000   -0.0000    0.0003    0.0000   -0.0000   -0.0000   -0.0000    0.0000    0.0001    0.0071
       76 FE2    5f1+      -0.0000    0.0000   -0.0002   -0.0000    0.0000   -0.0000    0.0000    0.0000    0.0000    0.0010
       77 FE2    4f2+      -0.0000    0.0000    0.0000   -0.0000   -0.0000    0.0000   -0.0000   -0.0000   -0.0000   -0.0000
       78 FE2    5f2+       0.0000   -0.0000   -0.0000    0.0000    0.0000    0.0000   -0.0000   -0.0000    0.0000    0.0000
       79 FE2    4f3+      -0.0000   -0.0000    0.0000    0.0000    0.0000   -0.0000   -0.0000    0.0000    0.0000    0.0000
       80 FE2    5f3+       0.0000   -0.0000   -0.0000   -0.0000   -0.0000    0.0000    0.0000    0.0000   -0.0000   -0.0000
       81 FE2    5g4-      -0.0000   -0.0000    0.0000    0.0000   -0.0000   -0.0000   -0.0000   -0.0000    0.0000    0.0000
       82 FE2    5g3-      -0.0000   -0.0000   -0.0000    0.0000    0.0000   -0.0000   -0.0000   -0.0000   -0.0000    0.0000
       83 FE2    5g2-       0.0000    0.0000    0.0000    0.0000   -0.0000   -0.0000    0.0000    0.0000   -0.0000    0.0000
       84 FE2    5g1-      -0.0000   -0.0000   -0.0000    0.0000    0.0000    0.0000   -0.0000    0.0000    0.0002   -0.0000
       85 FE2    5g0       -0.0000   -0.0002    0.0000   -0.0000    0.0000    0.0000   -0.0024   -0.0000   -0.0000    0.0000
       86 FE2    5g1+       0.0000    0.0000    0.0000    0.0000   -0.0000   -0.0000    0.0000   -0.0000    0.0000    0.0002
       87 FE2    5g2+      -0.0000   -0.0000    0.0000   -0.0000   -0.0000    0.0000   -0.0000   -0.0000   -0.0000   -0.0000
       88 FE2    5g3+       0.0000    0.0000    0.0000    0.0000    0.0000    0.0000    0.0000    0.0000   -0.0000   -0.0000
       89 FE2    5g4+      -0.0000    0.0000    0.0000   -0.0000    0.0000    0.0000    0.0000    0.0000   -0.0000    0.0000
 
          Orbital           11        12        13        14        15        16        17        18        19        20    
          Energy           -1.7811   -1.2346   -0.8792   -0.8792   -0.5608   -0.5608   -0.4910   -0.3766   -0.3766   -0.3579
          Occ. No.          1.0000    1.0000    1.0000    1.0000    0.0000    0.0000    0.0000    0.0000    0.0000    0.0000
 
        1 O1     1s        -0.0002    0.0047    0.0000   -0.0000   -0.0000    0.0000   -0.0139    0.0000   -0.0000    0.0053
        2 O1     2s         0.9858    0.0953    0.0001   -0.0000   -0.0000    0.0000   -0.1706    0.0000   -0.0000    0.0456
        3 O1     3s        -0.0143   -0.0216    0.0000   -0.0000    0.0000   -0.0000   -0.0337    0.0000   -0.0000    0.0117
        4 O1     4s        -0.0044   -0.0018    0.0000   -0.0000    0.0000   -0.0000   -0.0065    0.0000   -0.0000    0.0013
        5 O1     2px       -0.0000    0.0000    0.0072    0.5941   -0.0132   -0.7636   -0.0000   -0.0000    0.0000    0.0000
        6 O1     3px       -0.0000   -0.0000    0.0003    0.0242   -0.0018   -0.1063   -0.0000   -0.0000    0.0000    0.0000
        7 O1     4px        0.0000   -0.0000   -0.0003   -0.0222   -0.0000   -0.0009    0.0000   -0.0000    0.0000    0.0000
        8 O1     2py        0.0000   -0.0003    0.5941   -0.0072   -0.7636    0.0132    0.0001   -0.0000   -0.0000   -0.0000
        9 O1     3py        0.0000    0.0000    0.0242   -0.0003   -0.1063    0.0018    0.0000   -0.0000   -0.0000   -0.0000
       10 O1     4py       -0.0000    0.0000   -0.0222    0.0003   -0.0009    0.0000   -0.0000   -0.0000   -0.0000   -0.0000
       11 O1     2pz       -0.0386    0.9532    0.0001   -0.0000   -0.0002    0.0000    0.1762   -0.0000    0.0000    0.0259
       12 O1     3pz       -0.0203   -0.0767    0.0000   -0.0000   -0.0000    0.0000    0.0139   -0.0000   -0.0000    0.0008
       13 O1     4pz        0.0077   -0.0231   -0.0000    0.0000    0.0000   -0.0000   -0.0016   -0.0000   -0.0000    0.0070
       14 O1     3d2-      -0.0000   -0.0000   -0.0000    0.0000   -0.0000    0.0000    0.0000   -0.0002    0.0073   -0.0000
       15 O1     4d2-      -0.0000    0.0000   -0.0000    0.0000    0.0000   -0.0000   -0.0000   -0.0001    0.0036   -0.0000
       16 O1     3d1-      -0.0000    0.0000   -0.0359    0.0004    0.0103   -0.0002   -0.0000   -0.0000   -0.0000   -0.0000
       17 O1     4d1-       0.0000    0.0000   -0.0189    0.0002    0.0092   -0.0002   -0.0000   -0.0000   -0.0000   -0.0000
       18 O1     3d0        0.0525   -0.0216   -0.0000    0.0000    0.0000   -0.0000   -0.0031   -0.0000    0.0000    0.0171
       19 O1     4d0        0.0056   -0.0144   -0.0000    0.0000    0.0000   -0.0000   -0.0010   -0.0000    0.0000    0.0073
       20 O1     3d1+       0.0000   -0.0000   -0.0004   -0.0359    0.0002    0.0103    0.0000   -0.0000    0.0000    0.0000
       21 O1     4d1+      -0.0000   -0.0000   -0.0002   -0.0189    0.0002    0.0092    0.0000   -0.0000    0.0000    0.0000
       22 O1     3d2+       0.0000   -0.0000   -0.0000   -0.0000   -0.0000   -0.0000   -0.0000    0.0073    0.0002    0.0000
       23 O1     4d2+       0.0000   -0.0000   -0.0000   -0.0000    0.0000    0.0000    0.0000    0.0036    0.0001    0.0000
       24 O1     4f3-      -0.0000   -0.0000    0.0000   -0.0000    0.0000    0.0000   -0.0000    0.0000   -0.0000    0.0000
       25 O1     4f2-       0.0000   -0.0000    0.0000   -0.0000   -0.0000    0.0000    0.0000    0.0000   -0.0016    0.0000
       26 O1     4f1-       0.0000   -0.0000    0.0126   -0.0002   -0.0090    0.0002    0.0000    0.0000    0.0000    0.0000
       27 O1     4f0       -0.0026    0.0171    0.0000   -0.0000   -0.0000    0.0000    0.0027    0.0000   -0.0000   -0.0013
       28 O1     4f1+      -0.0000    0.0000    0.0002    0.0126   -0.0002   -0.0090   -0.0000    0.0000   -0.0000   -0.0000
       29 O1     4f2+      -0.0000    0.0000    0.0000    0.0000   -0.0000   -0.0000    0.0000   -0.0016   -0.0000   -0.0000
       30 O1     4f3+       0.0000   -0.0000    0.0000    0.0000   -0.0000    0.0000    0.0000   -0.0000   -0.0000   -0.0000
       31 FE2    1s        -0.0004    0.0007    0.0000   -0.0000   -0.0000    0.0000    0.0004   -0.0000    0.0000   -0.0000
       32 FE2    2s        -0.0031    0.0051    0.0000   -0.0000   -0.0000    0.0000    0.0027   -0.0000    0.0000   -0.0000
       33 FE2    3s        -0.0218    0.0338    0.0000   -0.0000   -0.0000    0.0000    0.0134   -0.0000    0.0000   -0.0008
       34 FE2    4s         0.0128   -0.0721   -0.0001    0.0000    0.0000   -0.0000    1.0192   -0.0000    0.0000   -0.0056
       35 FE2    5s        -0.0080    0.0272    0.0000   -0.0000   -0.0000    0.0000   -0.1448    0.0000   -0.0000   -0.0104
       36 FE2    6s         0.0021   -0.0025   -0.0000    0.0000   -0.0000    0.0000   -0.0189    0.0000   -0.0000    0.0009
       37 FE2    2px        0.0000   -0.0000   -0.0000   -0.0005    0.0000    0.0007    0.0000    0.0000   -0.0000   -0.0000
       38 FE2    3px       -0.0000   -0.0000   -0.0001   -0.0084    0.0004    0.0213    0.0000    0.0000   -0.0000    0.0000
       39 FE2    4px        0.0000    0.0000    0.0013    0.1042   -0.0009   -0.0515   -0.0000   -0.0000    0.0000    0.0000
       40 FE2    5px       -0.0000    0.0000   -0.0001   -0.0099    0.0001    0.0032   -0.0000   -0.0000    0.0000    0.0000
       41 FE2    6px       -0.0000   -0.0000   -0.0002   -0.0142    0.0001    0.0084    0.0000   -0.0000    0.0000    0.0000
       42 FE2    2py       -0.0000    0.0000   -0.0005    0.0000    0.0007   -0.0000   -0.0000    0.0000    0.0000    0.0000
       43 FE2    3py        0.0000    0.0000   -0.0083    0.0001    0.0213   -0.0004   -0.0000    0.0000    0.0000   -0.0000
       44 FE2    4py       -0.0000   -0.0000    0.1042   -0.0013   -0.0515    0.0009    0.0000   -0.0000   -0.0000   -0.0001
       45 FE2    5py        0.0000   -0.0000   -0.0099    0.0001    0.0032   -0.0001    0.0000   -0.0000   -0.0000   -0.0000
       46 FE2    6py        0.0000    0.0000   -0.0142    0.0002    0.0084   -0.0001   -0.0000   -0.0000   -0.0000   -0.0000
       47 FE2    2pz       -0.0010    0.0018    0.0000   -0.0000   -0.0000    0.0000    0.0007   -0.0000    0.0000    0.0001
       48 FE2    3pz       -0.0362    0.0471    0.0000   -0.0000   -0.0000    0.0000    0.0130   -0.0000    0.0000   -0.0006
       49 FE2    4pz        0.0161   -0.0563   -0.0000    0.0000    0.0001   -0.0000   -0.1107    0.0000   -0.0000   -0.5852
       50 FE2    5pz       -0.0060    0.0133    0.0000   -0.0000   -0.0000    0.0000   -0.0067    0.0000   -0.0000   -0.1053
       51 FE2    6pz       -0.0055    0.0141    0.0000   -0.0000   -0.0000    0.0000    0.0018    0.0000   -0.0000   -0.0560
       52 FE2    3d2-       0.0000   -0.0000   -0.0000    0.0000   -0.0000    0.0000   -0.0000   -0.0238    0.9470   -0.0000
       53 FE2    4d2-      -0.0000    0.0000   -0.0000    0.0000   -0.0000    0.0000   -0.0000   -0.0076    0.3013   -0.0000
       54 FE2    5d2-      -0.0000    0.0000    0.0000   -0.0000    0.0000   -0.0000   -0.0000   -0.0026    0.1025   -0.0000
       55 FE2    3d1-      -0.0000    0.0000    0.7195   -0.0087    0.6936   -0.0120    0.0000    0.0000    0.0000    0.0001
       56 FE2    4d1-      -0.0000   -0.0000    0.0964   -0.0012    0.0690   -0.0012    0.0000    0.0000    0.0000    0.0001
       57 FE2    5d1-      -0.0000   -0.0000    0.0059   -0.0001    0.0016   -0.0000    0.0000    0.0000    0.0000    0.0000
       58 FE2    3d0        0.0218   -0.0663   -0.0002    0.0000   -0.0001    0.0000   -0.0933   -0.0000    0.0000    0.7548
       59 FE2    4d0        0.0075   -0.0216   -0.0000    0.0000   -0.0000    0.0000   -0.0370   -0.0000    0.0000    0.2577
       60 FE2    5d0       -0.0006   -0.0007   -0.0000    0.0000    0.0000   -0.0000   -0.0119   -0.0000    0.0000    0.0922
       61 FE2    3d1+       0.0000   -0.0000    0.0087    0.7195    0.0120    0.6936   -0.0000    0.0000   -0.0000   -0.0000
       62 FE2    4d1+       0.0000    0.0000    0.0012    0.0964    0.0012    0.0690   -0.0000    0.0000   -0.0000   -0.0000
       63 FE2    5d1+       0.0000    0.0000    0.0001    0.0059    0.0000    0.0016   -0.0000    0.0000   -0.0000   -0.0000
       64 FE2    3d2+       0.0000    0.0000   -0.0000   -0.0000   -0.0000   -0.0000    0.0000    0.9470    0.0238    0.0000
       65 FE2    4d2+       0.0000   -0.0000   -0.0000   -0.0000   -0.0000   -0.0000    0.0000    0.3013    0.0076    0.0000
       66 FE2    5d2+       0.0000   -0.0000    0.0000    0.0000    0.0000    0.0000    0.0000    0.1025    0.0026    0.0000
       67 FE2    4f3-      -0.0000    0.0000   -0.0000    0.0000   -0.0000    0.0000   -0.0000    0.0000   -0.0000    0.0000
       68 FE2    5f3-      -0.0000    0.0000    0.0000   -0.0000   -0.0000    0.0000   -0.0000    0.0000   -0.0000    0.0000
       69 FE2    4f2-      -0.0000   -0.0000   -0.0000    0.0000   -0.0000    0.0000    0.0000   -0.0000    0.0002   -0.0000
       70 FE2    5f2-      -0.0000   -0.0000   -0.0000    0.0000   -0.0000    0.0000    0.0000   -0.0000    0.0006   -0.0000
       71 FE2    4f1-      -0.0000   -0.0000    0.0128   -0.0002   -0.0099    0.0002    0.0000    0.0000    0.0000    0.0000
       72 FE2    5f1-      -0.0000   -0.0000    0.0104   -0.0001   -0.0076    0.0001    0.0000    0.0000    0.0000    0.0000
       73 FE2    4f0        0.0028   -0.0063   -0.0000    0.0000    0.0000   -0.0000   -0.0037    0.0000   -0.0000    0.0007
       74 FE2    5f0        0.0022   -0.0047   -0.0000    0.0000    0.0000   -0.0000   -0.0024    0.0000   -0.0000    0.0007
       75 FE2    4f1+       0.0000    0.0000    0.0002    0.0128   -0.0002   -0.0099   -0.0000    0.0000   -0.0000   -0.0000
       76 FE2    5f1+       0.0000    0.0000    0.0001    0.0104   -0.0001   -0.0076   -0.0000    0.0000   -0.0000   -0.0000
       77 FE2    4f2+       0.0000   -0.0000   -0.0000   -0.0000   -0.0000   -0.0000   -0.0000    0.0002    0.0000    0.0000
       78 FE2    5f2+       0.0000    0.0000   -0.0000   -0.0000   -0.0000   -0.0000   -0.0000    0.0006    0.0000    0.0000
       79 FE2    4f3+       0.0000   -0.0000   -0.0000   -0.0000   -0.0000   -0.0000    0.0000   -0.0000   -0.0000   -0.0000
       80 FE2    5f3+       0.0000   -0.0000    0.0000    0.0000   -0.0000   -0.0000    0.0000   -0.0000   -0.0000   -0.0000
       81 FE2    5g4-      -0.0000   -0.0000   -0.0000   -0.0000   -0.0000   -0.0000   -0.0000   -0.0000    0.0000    0.0000
       82 FE2    5g3-      -0.0000    0.0000   -0.0000    0.0000   -0.0000    0.0000   -0.0000    0.0000   -0.0000    0.0000
       83 FE2    5g2-      -0.0000   -0.0000    0.0000   -0.0000    0.0000   -0.0000    0.0000   -0.0000    0.0013   -0.0000
       84 FE2    5g1-      -0.0000   -0.0000    0.0001   -0.0000   -0.0015    0.0000   -0.0000    0.0000    0.0000   -0.0000
       85 FE2    5g0        0.0001   -0.0003    0.0000   -0.0000    0.0000   -0.0000   -0.0005    0.0000   -0.0000   -0.0017
       86 FE2    5g1+       0.0000    0.0000    0.0000    0.0001   -0.0000   -0.0015    0.0000    0.0000   -0.0000    0.0000
       87 FE2    5g2+       0.0000    0.0000    0.0000    0.0000    0.0000    0.0000   -0.0000    0.0013    0.0000    0.0000
       88 FE2    5g3+       0.0000   -0.0000   -0.0000   -0.0000   -0.0000   -0.0000    0.0000   -0.0000   -0.0000   -0.0000
       89 FE2    5g4+       0.0000    0.0000    0.0000   -0.0000    0.0000   -0.0000    0.0000    0.0000    0.0000   -0.0000
 
          Orbital           21        22        23        24        25        26        27        28    
          Energy           -0.3414   -0.3414   -0.2657   -0.2126   -0.0909   -0.0737   -0.0736   -0.0736
          Occ. No.          0.0000    0.0000    0.0000    0.0000    0.0000    0.0000    0.0000    0.0000
 
        1 O1     1s         0.0000   -0.0000   -0.0685   -0.0067   -0.0500   -0.0468    0.0000   -0.0030
        2 O1     2s         0.0000   -0.0000   -0.6391   -0.0402   -0.4123   -0.3696    0.0000   -0.0236
        3 O1     3s         0.0000   -0.0000   -0.2162   -0.0340   -0.2057   -0.1903    0.0000   -0.0122
        4 O1     4s         0.0000   -0.0000   -0.0478   -0.0094   -0.0503   -0.0435    0.0000   -0.0028
        5 O1     2px       -0.2933   -0.0040   -0.0000    0.0000   -0.0000   -0.0004   -0.2380    0.0065
        6 O1     3px       -0.0776   -0.0011   -0.0000    0.0000    0.0000    0.0007    0.4087   -0.0112
        7 O1     4px       -0.0105   -0.0001   -0.0000    0.0000    0.0000    0.0004    0.2202   -0.0060
        8 O1     2py        0.0040   -0.2933    0.0000   -0.0000    0.0001    0.0150   -0.0065   -0.2375
        9 O1     3py        0.0011   -0.0776    0.0000   -0.0000   -0.0002   -0.0259    0.0112    0.4078
       10 O1     4py        0.0001   -0.0105    0.0000   -0.0000   -0.0001   -0.0139    0.0061    0.2197
       11 O1     2pz        0.0000   -0.0000    0.3577   -0.1252    0.2544    0.0777   -0.0000    0.0050
       12 O1     3pz        0.0000   -0.0000    0.1105    0.0267    0.8506    0.4729   -0.0000    0.0304
       13 O1     4pz        0.0000   -0.0000    0.0044    0.0118    0.2889    0.1434   -0.0000    0.0092
       14 O1     3d2-       0.0000   -0.0000    0.0000   -0.0000    0.0000    0.0000    0.0000   -0.0000
       15 O1     4d2-      -0.0000    0.0000   -0.0000   -0.0000    0.0000    0.0000    0.0000   -0.0000
       16 O1     3d1-       0.0001   -0.0066   -0.0000    0.0000   -0.0000   -0.0004    0.0002    0.0070
       17 O1     4d1-       0.0000   -0.0004   -0.0000    0.0000   -0.0000   -0.0005    0.0002    0.0080
       18 O1     3d0       -0.0000    0.0000   -0.0070   -0.0131   -0.0403   -0.0650    0.0000   -0.0041
       19 O1     4d0       -0.0000    0.0000   -0.0043   -0.0047   -0.0313   -0.0403    0.0000   -0.0026
       20 O1     3d1+      -0.0066   -0.0001    0.0000   -0.0000    0.0000    0.0000    0.0071   -0.0002
       21 O1     4d1+      -0.0004   -0.0000    0.0000   -0.0000    0.0000    0.0000    0.0080   -0.0002
       22 O1     3d2+      -0.0000   -0.0000    0.0000    0.0000   -0.0000    0.0000   -0.0000   -0.0000
       23 O1     4d2+       0.0000    0.0000    0.0000    0.0000   -0.0000    0.0000   -0.0000   -0.0000
       24 O1     4f3-       0.0000    0.0000   -0.0000    0.0000   -0.0000   -0.0000    0.0000    0.0000
       25 O1     4f2-       0.0000   -0.0000    0.0000    0.0000    0.0000    0.0000    0.0000   -0.0000
       26 O1     4f1-       0.0000   -0.0027   -0.0000    0.0000    0.0000    0.0006   -0.0002   -0.0088
       27 O1     4f0        0.0000   -0.0000    0.0034   -0.0014    0.0041    0.0050   -0.0000    0.0003
       28 O1     4f1+      -0.0027   -0.0000    0.0000   -0.0000   -0.0000   -0.0000   -0.0088    0.0002
       29 O1     4f2+      -0.0000   -0.0000   -0.0000   -0.0000    0.0000    0.0000   -0.0000   -0.0000
       30 O1     4f3+       0.0000   -0.0000    0.0000    0.0000    0.0000    0.0000    0.0000   -0.0000
       31 FE2    1s         0.0000   -0.0000    0.0017    0.0002    0.0070    0.0040   -0.0000    0.0003
       32 FE2    2s         0.0000   -0.0000    0.0123    0.0013    0.0500    0.0291   -0.0000    0.0019
       33 FE2    3s         0.0000   -0.0000    0.0645    0.0058    0.2322    0.1377   -0.0000    0.0088
       34 FE2    4s         0.0000   -0.0000    0.4664    0.1476    0.6301    0.4427   -0.0000    0.0283
       35 FE2    5s         0.0000   -0.0000    0.0654    0.9344   -0.3581    0.1963   -0.0000    0.0123
       36 FE2    6s        -0.0000    0.0000    0.0121    0.3303    0.3266   -0.8934    0.0000   -0.0565
       37 FE2    2px        0.0001    0.0000    0.0000   -0.0000   -0.0000   -0.0000   -0.0011    0.0000
       38 FE2    3px        0.0088    0.0001    0.0000   -0.0000   -0.0000   -0.0000   -0.0220    0.0006
       39 FE2    4px        1.0099    0.0139    0.0000   -0.0000   -0.0000   -0.0003   -0.1540    0.0042
[...]
       68 FE2    5f3-      -0.0000   -0.0000    0.0000   -0.0000    0.0000    0.1432    0.7798   -0.0066    0.0021   -0.0000
       69 FE2    4f2-      -0.5892   -0.1115    0.1222    0.0000   -0.0090    0.0000   -0.0000    0.0000    0.0000   -0.0000
       70 FE2    5f2-       0.8058   -0.0056    0.0384   -0.0000   -0.0028   -0.0000    0.0000    0.0000    0.0000    0.0000
       71 FE2    4f1-      -0.0000   -0.0000    0.0000   -0.0000    0.0000    0.0000    0.0000   -0.0000    0.0000   -0.0000
       72 FE2    5f1-      -0.0000   -0.0000    0.0000    0.0000    0.0000    0.0000    0.0000    0.0000   -0.0000    0.0000
       73 FE2    4f0        0.0000   -0.0000    0.0000   -0.0000   -0.0000   -0.0000    0.0000   -0.0000   -0.0000   -0.0000
       74 FE2    5f0        0.0000   -0.0000    0.0000   -0.0000    0.0000   -0.0000    0.0000   -0.0000   -0.0000   -0.0000
       75 FE2    4f1+       0.0000    0.0000   -0.0000    0.0000    0.0000   -0.0000    0.0000    0.0000    0.0000   -0.0000
       76 FE2    5f1+       0.0000    0.0000   -0.0000   -0.0000    0.0000   -0.0000    0.0000   -0.0000   -0.0000    0.0000
       77 FE2    4f2+      -0.0134   -0.0032    0.0090    0.0000    0.1222    0.0000    0.0000    0.0000   -0.0000    0.0000
       78 FE2    5f2+       0.0183   -0.0002    0.0028   -0.0000    0.0384   -0.0000   -0.0000    0.0000   -0.0000   -0.0000
       79 FE2    4f3+       0.0000   -0.0000   -0.0000   -0.0000    0.0000    0.5994   -0.1100    0.0090    0.0281    0.0000
       80 FE2    5f3+      -0.0000    0.0000   -0.0000    0.0000    0.0000   -0.7798    0.1432    0.0021    0.0066   -0.0000
       81 FE2    5g4-       0.0000    0.0000    0.0000    0.9997   -0.0000    0.0000   -0.0000    0.0000    0.0000   -0.0257
       82 FE2    5g3-       0.0000   -0.0000   -0.0000   -0.0000   -0.0000   -0.0007   -0.0041    0.0081   -0.0026   -0.0000
       83 FE2    5g2-      -0.0752    0.0210   -0.0307   -0.0000    0.0023    0.0000   -0.0000   -0.0000   -0.0000    0.0000
       84 FE2    5g1-       0.0000    0.0000   -0.0000   -0.0000   -0.0000   -0.0000   -0.0000    0.0000   -0.0000    0.0000
       85 FE2    5g0        0.0000   -0.0000   -0.0000    0.0000    0.0000   -0.0000    0.0000    0.0000    0.0000   -0.0000
       86 FE2    5g1+      -0.0000   -0.0000    0.0000   -0.0000   -0.0000    0.0000   -0.0000   -0.0000   -0.0000    0.0000
       87 FE2    5g2+      -0.0017    0.0006   -0.0023   -0.0000   -0.0307    0.0000    0.0000   -0.0000    0.0000   -0.0000
       88 FE2    5g3+       0.0000    0.0000    0.0000    0.0000   -0.0000    0.0041   -0.0007   -0.0026   -0.0081   -0.0000
       89 FE2    5g4+       0.0000    0.0000    0.0000    0.0257    0.0000    0.0000    0.0000    0.0000   -0.0000    0.9997
 
          Orbital           81        82    
          Energy            7.3364    7.3364
          Occ. No.          0.0000    0.0000
 
        1 O1     1s        -0.0000   -0.0000
        2 O1     2s        -0.0000   -0.0000
        3 O1     3s        -0.0000   -0.0000
        4 O1     4s        -0.0000   -0.0000
        5 O1     2px        0.0000   -0.0000
        6 O1     3px        0.0000   -0.0000
        7 O1     4px        0.0000   -0.0000
        8 O1     2py        0.0000    0.0000
        9 O1     3py        0.0000    0.0000
       10 O1     4py        0.0000    0.0000
       11 O1     2pz       -0.0000    0.0000
       12 O1     3pz       -0.0000    0.0000
       13 O1     4pz       -0.0000    0.0000
       14 O1     3d2-       0.0000   -0.0000
       15 O1     4d2-       0.0000   -0.0000
       16 O1     3d1-      -0.0000   -0.0000
       17 O1     4d1-      -0.0000   -0.0000
       18 O1     3d0       -0.0000   -0.0000
       19 O1     4d0       -0.0000   -0.0000
       20 O1     3d1+      -0.0000    0.0000
       21 O1     4d1+      -0.0000    0.0000
       22 O1     3d2+      -0.0000   -0.0000
       23 O1     4d2+      -0.0000   -0.0000
       24 O1     4f3-      -0.0038   -0.0171
       25 O1     4f2-      -0.0000    0.0000
       26 O1     4f1-       0.0000    0.0000
       27 O1     4f0        0.0000    0.0000
       28 O1     4f1+       0.0000   -0.0000
       29 O1     4f2+       0.0000    0.0000
       30 O1     4f3+      -0.0171    0.0038
       31 FE2    1s        -0.0000    0.0000
       32 FE2    2s        -0.0000    0.0000
       33 FE2    3s        -0.0000    0.0000
       34 FE2    4s        -0.0000    0.0000
       35 FE2    5s        -0.0000    0.0000
       36 FE2    6s        -0.0000   -0.0000
       37 FE2    2px       -0.0000    0.0000
       38 FE2    3px       -0.0000    0.0000
       39 FE2    4px       -0.0000    0.0000
       40 FE2    5px       -0.0000    0.0000
       41 FE2    6px       -0.0000    0.0000
       42 FE2    2py       -0.0000   -0.0000
       43 FE2    3py       -0.0000   -0.0000
       44 FE2    4py       -0.0000   -0.0000
       45 FE2    5py       -0.0000   -0.0000
       46 FE2    6py       -0.0000   -0.0000
       47 FE2    2pz       -0.0000    0.0000
       48 FE2    3pz       -0.0000    0.0000
       49 FE2    4pz        0.0000   -0.0000
       50 FE2    5pz        0.0000   -0.0000
       51 FE2    6pz        0.0000   -0.0000
       52 FE2    3d2-      -0.0000    0.0000
       53 FE2    4d2-      -0.0000    0.0000
       54 FE2    5d2-      -0.0000    0.0000
       55 FE2    3d1-       0.0000    0.0000
       56 FE2    4d1-      -0.0000   -0.0000
       57 FE2    5d1-      -0.0000   -0.0000
       58 FE2    3d0       -0.0000    0.0000
       59 FE2    4d0       -0.0000    0.0000
       60 FE2    5d0        0.0000   -0.0000
       61 FE2    3d1+       0.0000   -0.0000
       62 FE2    4d1+      -0.0000    0.0000
       63 FE2    5d1+      -0.0000    0.0000
       64 FE2    3d2+       0.0000    0.0000
       65 FE2    4d2+       0.0000    0.0000
       66 FE2    5d2+       0.0000    0.0000
       67 FE2    4f3-      -0.0003   -0.0014
       68 FE2    5f3-       0.0009    0.0040
       69 FE2    4f2-       0.0000   -0.0000
       70 FE2    5f2-      -0.0000    0.0000
       71 FE2    4f1-       0.0000    0.0000
       72 FE2    5f1-      -0.0000   -0.0000
       73 FE2    4f0        0.0000   -0.0000
       74 FE2    5f0        0.0000    0.0000
       75 FE2    4f1+       0.0000   -0.0000
       76 FE2    5f1+      -0.0000    0.0000
       77 FE2    4f2+      -0.0000   -0.0000
       78 FE2    5f2+       0.0000    0.0000
       79 FE2    4f3+      -0.0014    0.0003
       80 FE2    5f3+       0.0040   -0.0009
       81 FE2    5g4-      -0.0000    0.0000
       82 FE2    5g3-       0.2179    0.9760
       83 FE2    5g2-      -0.0001    0.0000
       84 FE2    5g1-      -0.0000   -0.0000
       85 FE2    5g0        0.0000   -0.0000
       86 FE2    5g1+      -0.0000    0.0000
       87 FE2    5g2+       0.0000    0.0001
       88 FE2    5g3+       0.9760   -0.2179
       89 FE2    5g4+       0.0000    0.0000
--
 
 
++    Molecular properties:
      ---------------------
 
      Charge (e):
                      =    2.0000
      Dipole Moment (Debye):
      Origin of the operator (Ang)=    0.0000    0.0000    0.0000
                   X= -3.8935E-06               Y=  1.4150E-04               Z= -5.7786E-01           Total=  5.7786E-01
      Center of Charge (Ang)
                     X=   -0.00000041               Y=    0.00001473               Z=   -0.06015369
      Quadrupole Moment (Debye*Ang):
      Origin of the operator (Ang)=    0.0000    0.0000    0.2003
                  XX= -1.2707E+01              XY=  7.0733E-08              XZ= -2.3204E-07              YY= -1.2707E+01
                  YZ=  8.4438E-06              ZZ= -4.1782E+00
      In traceless form (Debye*Ang)
                  XX= -4.2645E+00              XY=  1.0610E-07              XZ= -3.4806E-07              YY= -4.2645E+00
                  YZ=  1.2666E-05              ZZ=  8.5291E+00
--
 
 
  Input file to MOLDEN was generated!
 
 ###############################################################################
 ###############################################################################
 ###                                                                         ###
 ###                                                                         ###
 ###    RunFile label nBas                                                   ###
 ###    was used       86 times                                              ###
 ###                                                                         ###
 ###                                                                         ###
 ###############################################################################
 ###############################################################################
forrtl: warning (528): IEEE_UNDERFLOW is signaling
--- Stop Module: scf at Thu Apr 17 21:24:02 2025 /rc=_RC_ALL_IS_WELL_ ---
*** files: 2.16.LprOrb 2.16.LoProp.molden 2.16.scf.molden 2.16.scf.h5 2.16.UhfOrb 2.16.UnaOrb xmldump
    saved to directory /home/grierjones/DDCASPT2/iron_oxo_DDCASPT2/MScaspt2iron/2.16
--- Module scf spent 1 second ---

>>> COPY /tmp/2.16/2.16.scf.h5 /home/grierjones/DDCASPT2/iron_oxo_DDCASPT2/MScaspt2iron/2.16/

*** symbolic link created: INPORB -> 2.16.UnaOrb
--- Start Module: rasscf at Thu Apr 17 21:24:02 2025 ---
 
()()()()()()()()()()()()()()()()()()()()()()()()()()()()()()()()()()()()()()()()()()()()()()()()()()

                                              &RASSCF

                                   only a single process is used
                       available to each process: 2.0 GB of memory, 1 thread?
()()()()()()()()()()()()()()()()()()()()()()()()()()()()()()()()()()()()()()()()()()()()()()()()()()
 
 
      Header of the ONEINT file:
      --------------------------
      
      Integrals generated by seward 4.2.0  , Thu Apr 17 21:23:58 2025
 
 
      OrdInt status: non-squared
 
 
      Cartesian coordinates in Angstrom:
      -----------------------------------------------------
      No.  Label        X            Y            Z        
      -----------------------------------------------------
       1   O1         0.00000000   0.00000000   1.88000000
       2   FE2        0.00000000   0.00000000  -0.28000000
      -----------------------------------------------------
      Nuclear repulsion energy =   50.95780547
 
++    Wave function specifications:
      -----------------------------
 
      Number of closed shell electrons          22
      Number of electrons in active shells      10
      Max number of holes in RAS1 space          0
      Max nr of electrons in RAS3 space          0
      Number of inactive orbitals               11
      Number of active orbitals                 14
      Number of secondary orbitals              64
      Spin quantum number                      2.0
      State symmetry                             1
--
 
++    Orbital specifications:
      -----------------------
 
      Symmetry species                           1
                                                 a
      Frozen orbitals                            0
      Inactive orbitals                         11
      Active orbitals                           14
      RAS1 orbitals                              0
      RAS2 orbitals                             14
      RAS3 orbitals                              0
      Secondary orbitals                        64
      Deleted orbitals                           0
      Number of basis functions                 89
--
 
++    CI expansion specifications:
      ----------------------------
 
      Number of CSFs                        975975
      Number of determinants               1249248
      Number of root(s) required                 3
      Root chosen for geometry opt.              3
      CI roots used                              1     2     3
      weights                                0.333 0.333 0.333
      highest root included in the CI            3
      max. size of the explicit Hamiltonian    200
--
 
++    Optimization specifications:
      ----------------------------
 
      RASSCF algorithm: Conventional
      Maximum number of macro iterations       200
      Maximum number of SX iterations          100
      Threshold for RASSCF energy            0.100E-07
      Threshold for max MO rotation          0.100E+00
      Threshold for max BLB element          0.100E-03
      Level shift parameter                  0.500E+00
      Make Quasi-Newton update
--
 
      The MO-coefficients are taken from the file:
      /home/grierjones/DDCASPT2/iron_oxo_DDCASPT2/MScaspt2iron/2.14/2.14.RasOrb                                                       
      Title: RASSCF average (pseudo-natural) orbitals (Not final)                          
 
      Total molecular charge    2.00
 
      ************************************************************************************************************************
      *                                                                                                                      *
      *                                            Wave function control section                                             *
      *                                                                                                                      *
      ************************************************************************************************************************
 
 
                                         RASSCF iterations: Energy and convergence statistics
                                         ----------------------------------------------------
 
      Iter CI   SX   CI       RASSCF       Energy    max ROT     max BLB   max BLB  Level Ln srch  Step   QN   Walltime
          iter iter root      energy       change     param      element    value   shift minimum  type update hh:mm:ss
 Nr of preliminary CI iterations:  10
      Total energies have been shifted. Add                -1000.00 au
        1   1    9    0  -345.52584077    0.00E+00   0.12E-02   16  37 1  0.21E-02*  0.13   0.00    SX    NO    0:01:55
        2   2    8    0  -345.52586775   -0.27E-04* -0.95E-03   11  24 1  0.57E-03*  0.13   0.00    SX    NO    0:00:37
        3   4    8    0  -345.52590109   -0.33E-04* -0.92E-03   19  57 1 -0.31E-03*  0.13   0.00    SX    NO    0:00:49
        4  12    7    0  -345.52590416   -0.31E-05* -0.68E-03    8  76 1  0.15E-03*  0.13   0.00    SX    NO    0:01:33
        5   8    7    0  -345.52590428   -0.12E-06*  0.24E-03    8  76 1  0.24E-03*  0.13   1.08    QN   YES    0:01:04
        6   8    6    0  -345.52590432   -0.41E-07*  0.87E-04   14  81 1  0.58E-04   0.13   0.93    QN   YES    0:01:07
        7   2    5    0  -345.52590433   -0.60E-08   0.54E-04    8  76 1  0.48E-04   0.13   1.18    QN   YES    0:00:37
      Convergence after  7 iterations
++ I/O STATISTICS
 
  I. General I/O information
  - - - - - - - - - - - - - - - - - - - - - - - - - - - - - - - - - - - - - - - - - - -
  Unit  Name          Flsize      Write/Read            MBytes           Write/Read
                      (MBytes)       Calls              In/Out           Time, sec.
  - - - - - - - - - - - - - - - - - - - - - - - - - - - - - - - - - - - - - - - - - - -
   1  RUNFILE          13.61 .     630/    3932 .      5.5/     28.8 .       0/       0
   2  ONEINT            0.00 .       0/     231 .      0.0/     64.9 .       0/       0
   3  ORDINT            0.00 .       0/    1189 .      0.0/    297.0 .       0/       0
   4  TRAINT            0.00 .       9/       8 .      9.0/      8.0 .       0/       0
   5  TEMP01            0.00 .       0/       0 .      0.0/      0.0 .       0/       0
   6  TEMP02            0.00 .      27/      15 .      0.4/      0.2 .       0/       0
   7  JOBIPH            0.00 .     197/      55 .    210.6/    402.1 .       0/       0
   8  CIDIA             0.00 .     345/      72 .    134.6/     85.8 .       0/       0
   9  LUCVECT           0.00 .    1288/    2074 .   1534.5/   2783.1 .       0/       0
  10  HCFILE            0.00 .     240/     186 .    285.9/    285.9 .       0/       0
  11  LUSC1             0.00 .    9504/   10510 .   2316.1/   3459.8 .       0/       0
  12  LUSC2             0.00 .    5148/    5712 .   1629.8/   2401.8 .       0/       0
  13  LUSC3             0.00 .    4788/    4788 .   1200.9/   1200.9 .       0/       0
  14  LUSC34            0.00 .    1048/     948 .   1248.6/   1505.9 .       0/       0
  15  LUSC35            0.00 .       0/       0 .      0.0/      0.0 .       0/       0
  16  LUSC36            0.00 .       0/       0 .      0.0/      0.0 .       0/       0
  17  LUSC37            0.00 .       0/       0 .      0.0/      0.0 .       0/       0
  18  LUSC38            0.00 .       0/       0 .      0.0/      0.0 .       0/       0
  19  LUSC39            0.00 .       0/       0 .      0.0/      0.0 .       0/       0
  20  LUSC40            0.00 .       0/       0 .      0.0/      0.0 .       0/       0
  21  LUMOUT            0.00 .       0/       0 .      0.0/      0.0 .       0/       0
  - - - - - - - - - - - - - - - - - - - - - - - - - - - - - - - - - - - - - - - - - - -
   *  TOTAL            13.61 .   23224/   29720 .   8575.9/  12524.3 .       2/       1
  - - - - - - - - - - - - - - - - - - - - - - - - - - - - - - - - - - - - - - - - - - -
 
  II. I/O Access Patterns
  - - - - - - - - - - - - - - - - - - - -
  Unit  Name               % of random
                         Write/Read calls
  - - - - - - - - - - - - - - - - - - - -
   1  RUNFILE             28.6/   9.9
   2  ONEINT               0.0/  28.1
   3  ORDINT               0.0/   0.8
   4  TRAINT              88.9/ 100.0
   5  TEMP01               0.0/   0.0
   6  TEMP02              96.3/ 100.0
   7  JOBIPH              95.9/ 100.0
   8  CIDIA                2.6/  12.5
   9  LUCVECT             12.3/  14.0
  10  HCFILE              12.1/  16.1
  11  LUSC1                1.7/   2.6
  12  LUSC2                2.5/   3.7
  13  LUSC3                1.7/   1.8
  14  LUSC34              12.4/  16.7
  15  LUSC35               0.0/   0.0
  16  LUSC36               0.0/   0.0
  17  LUSC37               0.0/   0.0
  18  LUSC38               0.0/   0.0
  19  LUSC39               0.0/   0.0
  20  LUSC40               0.0/   0.0
  21  LUMOUT               0.0/   0.0
  - - - - - - - - - - - - - - - - - - - -
--
 ###############################################################################
 ###############################################################################
 ###                                                                         ###
 ###                                                                         ###
 ###    Location: AixWr                                                      ###
 ###    File: CIDIA                                                          ###
 ###                                                                         ###
 ###                                                                         ###
 ###    Premature abort while writing buffer to disk: Disk full?             ###
 ###                                                                         ###
 ###                                                                         ###
 ###############################################################################
 ###############################################################################
[ process      0]: xquit (rc =    161): _IO_ERROR_WRITE_
abort: 
--- Stop Module: rasscf at Thu Apr 17 21:32:31 2025 /rc=_RC_FLOATING_EXCEPTION_ ---
*** files: 2.16.RasOrb 2.16.rasscf.h5 xmldump
    saved to directory /home/grierjones/DDCASPT2/iron_oxo_DDCASPT2/MScaspt2iron/2.16
--- Module rasscf spent 8 minutes 28 seconds ---

.########################.
.# Non-zero return code #.
.########################.

    Timing: Wall=513.20 User=508.34 System=4.84
************************************
*** WorkDir at /tmp/2.16 cleaned ***
************************************
