   This run of MOLCAS is using the pymolcas driver

                             OPE
                             OPE          NMOL  CASOP  ENMOLC A   SO
                 OPE        NMOLC        AS  OP EN  MO LC     AS  OP
                OPENM       OL CA        SO  PE NM  OL CA     SOP EN
                OP EN      MO   LC       AS  OP ENMOL  CASO   PENMOL
                OP  EN     MO   LC       AS  OP EN     MO     LC ASO
               OP   E  NMOL  C  AS       OP  EN MO     LC     AS  OP
               OP  E   NMO   LC AS        OPEN  MO     LCASOP EN   M
               O  PEN   MO  LCA  SO
            OPE   NMO   L   CAS    OP
        OPENMOL  CASOP     ENMOL   CASOPE
     OPENMOLCA   SOPENMOLCASOPEN   MOLCASOPE
    OPENMOLCAS   OP           EN   MOL    CAS
    OPENMOLCAS       OP  ENM        O     LCA
    OPENMOLCAS    OPEN  MOLCASO     P  E  NMO
    OPENMOLCAS     OP               E  N  MOL
    OPENMOLCA   SO           PENM   O  L  CAS    OPEN    MO    LCAS
    OPENMOLCA   SOP           ENM   O  L  CAS   OP  EN  MOLC  AS   O
    OPENMOLCA   SOPE           NM      O  LCA   S      OP  EN MO
    OPENMOLC                AS         O  PEN   M      OL  CA  SOPE
    OPENMO        LCASOPE  NMOL        C  ASO   P      ENMOLC     AS
    OPE     NMO      LCA  SO     P     E   NM   OL  CA SO  PE N   MO
          OPENMOLCA            SOPE   NMO        LCAS  O    P  ENMO
     OPENMOLCASOPENMOLCASOPENMOLCASOPENMOLCA
        OPENMOLCASOPENMOLCASOPENMOLCASOPE
            OPENMOLCASOPENMOLCASOPENM
               OPENMOLCASOPENMOLCA        version: 24.02
                   OPENMOLCASO
                       OPE                tag: 126-g611b04c8f

 OpenMolcas is free software; you can redistribute it and/or modify it
 under the terms of the GNU Lesser General Public License version 2.1.
 OpenMolcas is distributed in the hope that it will be useful, but it
 is provided "as is" and without any express or implied warranties.
 For more details see the full text of the license in the file
 LICENSE or in <http://www.gnu.org/licenses/>.

                 Copyright (C) The OpenMolcas Authors
           For the author list and the recommended citation,
                   consult the file CONTRIBUTORS.md

           *************************************************
           * pymolcas version py2.28                       *
           *   build c4a6d18ded8cb6cad61d2372a9abd97c      *
           *   (after the EMIL interpreter by V. Veryazov) *
           *************************************************

configuration info
------------------
Host name: debian (Linux)
C Compiler ID: GNU
C flags: -std=gnu99
Fortran Compiler ID: Intel
Fortran flags: -fpp -i8 -heap-arrays
Definitions: _MOLCAS_;_I8_;_LINUX_
Parallel: OFF (GA=OFF)


   ------------------------------------------------------------------
  |
  |              Project: 0.80
  |       Submitted from: /home/grierjones/DDCASPT2/delta_ML/BLi/0.80
  |         Scratch area: /tmp/0.80
  |      Save outputs to: /home/grierjones/DDCASPT2/delta_ML/BLi/0.80
  |               Molcas: /usr/local
  |
  | Scratch area is empty
  |
  |       MOLCAS_DRIVER = /usr/local/pymolcas
  | MOLCAS_KEEP_WORKDIR = NO
  |  MOLCAS_NEW_WORKDIR = YES
  |       MOLCAS_NPROCS = 1
  |       MOLCAS_SOURCE = /usr/local
  |    MOLCAS_STRUCTURE = 0
  |
   ------------------------------------------------------------------

++ ---------   Input file   ---------

&GATEWAY
coord=0.80.xyz
Basis = ANO-RCC-MB
Group = nosymm
End of Input

&SEWARD
End of Input

&SCF
UHF

&MBPT2
Frozen
0

&RASSCF
Title= RASSCF
FileOrb
/home/grierjones/DDCASPT2/delta_ML/BLi/0.70/0.70.RasOrb

NACTEL
2 0 0
Inactive
3
RAS2
2
Symmetry
1
Spin
1
orblisting
all
ITERation
200 100
CIMX
200
SDAV
500

&CASPT2
Imaginary Shift
0.0
Frozen
0

-- ----------------------------------

--- Start Module: gateway at Thu Apr 25 13:36:07 2024 ---
 
()()()()()()()()()()()()()()()()()()()()()()()()()()()()()()()()()()()()()()()()()()()()()()()()()()

                                              &GATEWAY

                                   only a single process is used
                       available to each process: 2.0 GB of memory, 1 thread?
                                             pid: 96503
()()()()()()()()()()()()()()()()()()()()()()()()()()()()()()()()()()()()()()()()()()()()()()()()()()
 
 
++    Symmetry information:
      ---------------------
 
                    Character Table for C1 
 
                             E  
                    a        1  x, y, xy, Rz, z, xz, Ry, yz, Rx, I
--
 
 
++    Basis set information:
      ----------------------
 
 
      Basis set label: B.ANO-RCC...2S1P.
 
      Electronic valence basis set:
      ------------------
      Associated Effective Charge   5.000000 au
      Associated Actual Charge      5.000000 au
      Nuclear Model: Point charge
 
      Shell  nPrim  nBasis  Cartesian Spherical Contaminant
         s      14       2        X                  
         p       9       1        X                  
 
 
      Basis set label: LI.ANO-RCC...2S1P.
 
      Electronic valence basis set:
      ------------------
      Associated Effective Charge   3.000000 au
      Associated Actual Charge      3.000000 au
      Nuclear Model: Point charge
 
      Shell  nPrim  nBasis  Cartesian Spherical Contaminant
         s      14       2        X                  
         p       9       1        X                  
--
 
 
++    Molecular structure info:
      -------------------------
 
                    ************************************************ 
                    **** Cartesian Coordinates / Bohr, Angstrom **** 
                    ************************************************ 
 
     Center  Label                x              y              z                     x              y              z
        1      B1               0.000000       0.000000       0.000000              0.000000       0.000000       0.000000
        2      LI2              0.000000       0.000000       1.511781              0.000000       0.000000       0.800000
--
 
 
            Nuclear Potential Energy              9.92207270 au
 
--- Stop Module: gateway at Thu Apr 25 13:36:07 2024 /rc=_RC_ALL_IS_WELL_ ---
*** files: xmldump
    saved to directory /home/grierjones/DDCASPT2/delta_ML/BLi/0.80

--- Start Module: seward at Thu Apr 25 13:36:07 2024 ---
 
()()()()()()()()()()()()()()()()()()()()()()()()()()()()()()()()()()()()()()()()()()()()()()()()()()

                                              &SEWARD

                                   only a single process is used
                       available to each process: 2.0 GB of memory, 1 thread?
                                             pid: 96506
()()()()()()()()()()()()()()()()()()()()()()()()()()()()()()()()()()()()()()()()()()()()()()()()()()
 
               SEWARD will generate:
                  Multipole Moment integrals up to order  2
                  Kinetic Energy integrals
                  Nuclear Attraction integrals (point charge)
                  One-Electron Hamiltonian integrals
                  Velocity integrals
                  Relativistic Douglas-Kroll-Hess integrals:
                    - Parametrization         : EXP
                    - DKH order of Hamiltonian: 2
                    - DKH order of Properties : 0
                         - multipole moment operators
                         - electric potential operators
                         - contact operators
                  Orbital angular momentum around ( 0.0000  0.0000  0.5884 )
                  Velocity quadrupole around ( 0.0000  0.0000  0.5884 )
                  Atomic mean-field integrals
                  Two-Electron Repulsion integrals
 
                   Integrals are discarded if absolute value <: 1.00E-14
                   Integral cutoff threshold is set to       <: 1.00E-16
 
            Nuclear Potential Energy              9.92207270 au
 
 
      Basis set specifications :
      Symmetry species         a  
      Basis functions           10
 
 
      Input file to MOLDEN was generated!
 
--- Stop Module: seward at Thu Apr 25 13:36:08 2024 /rc=_RC_ALL_IS_WELL_ ---
*** files: 0.80.GssOrb 0.80.guessorb.h5 0.80.guessorb.molden xmldump
    saved to directory /home/grierjones/DDCASPT2/delta_ML/BLi/0.80

*** symbolic link created: INPORB -> 0.80.GssOrb
--- Start Module: scf at Thu Apr 25 13:36:08 2024 ---
 
()()()()()()()()()()()()()()()()()()()()()()()()()()()()()()()()()()()()()()()()()()()()()()()()()()

                                                &SCF

                                   only a single process is used
                       available to each process: 2.0 GB of memory, 1 thread?
                                             pid: 96511
()()()()()()()()()()()()()()()()()()()()()()()()()()()()()()()()()()()()()()()()()()()()()()()()()()
 
++    Input section:
      --------------
 
      Header of the integral files:
      
       Integrals generated by Gateway/Seward, Thu Apr 25 13:36:08 2024
 
 
      Cartesian coordinates in Angstrom:
      -----------------------------------------------------
      No.  Label        X            Y            Z        
      -----------------------------------------------------
       1   B1         0.00000000   0.00000000   0.00000000
       2   LI2        0.00000000   0.00000000   0.80000000
      -----------------------------------------------------
      Nuclear repulsion energy =    9.92207270
--
 
++    Orbital specifications:
      -----------------------
 
      Symmetry species               1
                                     a
      Frozen orbitals                0
      Occupied orbitals alpha        4
      Occupied orbitals beta         4
      Secondary orbitals alpha       6
      Secondary orbitals beta        6
      Deleted orbitals               0
      Total number of orbitals      10
      Number of basis functions     10
--
 
      Molecular charge                           0.000
 
++    Optimization specifications:
      ----------------------------
 
      SCF Algorithm: Conventional USCF
      D(i)-D(i-1) density differences are used
      Number of density matrices in core                 5
      Maximum number of NDDO SCF iterations            400
      Maximum number of HF SCF iterations              400
      Threshold for SCF energy change             1.00E-09
      Threshold for density matrix                1.00E-04
      Threshold for Fock matrix                   1.50E-04
      Threshold for linear dependence             1.00E-09
      Threshold at which DIIS is turned on        1.50E-01
      Maximum depth in the DIIS procedure                5
      Maximum depth in the BFGS Hessian update          30
      Threshold at which QNR/C2DIIS is turned on  7.50E-02
      Threshold for Norm(delta) (QNR/C2DIIS)      1.00E-03
      All orbitals punched on: UHFORB
--
 
      Input vectors read from INPORB
      Orbital file label: *Guess orbitals
 
 
++ Convergence information
                               UHF SCF        iterations: Energy and convergence statistics
 
Iter     Tot. SCF        One-elec.       Two-elec.     Energy      Max Dij or  Max Fij      DNorm      TNorm      AccCon     Time
         Energy          Energy          Energy        Change      Delta Norm                                                in Sec.
   1   -31.091808876   -58.758925601    17.745044021   0.00E+00    1.63E-01*   1.20E-01*    4.17E+00   1.23E+01   None         0.
   2   -31.117845218   -58.664557441    17.624639518  -2.60E-02*   5.46E-02*   1.18E-02*    6.17E-01   1.22E+01   EDIIS        0.
   3   -31.119862478   -58.657924603    17.615989421  -2.02E-03*   7.20E-03*   8.52E-03*    1.86E-01   1.22E+01   c2DIIS       0.
   4   -31.120355804   -58.646105373    17.603676864  -4.93E-04*   6.80E-03*   7.48E-04*    2.91E-02   1.22E+01   QNRc2DIIS    0.
   5   -31.120364305   -58.646303640    17.603866630  -8.50E-06*   5.62E-03*   3.58E-04*    1.29E-02   1.22E+01   QNRc2DIIS    0.
   6   -31.120366465   -58.645466893    17.603027724  -2.16E-06*   3.70E-05    2.25E-05     1.06E-02   1.22E+01   QNRc2DIIS    0.
   7   -31.120366465   -58.645488195    17.603049025  -7.38E-10    6.59E-06    2.79E-06     4.96E-05   1.22E+01   QNRc2DIIS    0.
 
       Convergence after   7 Macro Iterations
--
 
 *****************************************************************************************************************************
 *                                                                                                                           *
 *                                             SCF/KS-DFT Program, Final results                                             *
 *                                                                                                                           *
 *                                                                                                                           *
 *                                                                                                                           *
 *                                                       Final Results                                                       *
 *                                                                                                                           *
 *****************************************************************************************************************************
 
::    Total SCF energy                                -31.1203664654
      One-electron energy                             -58.6454881953
      Two-electron energy                              17.6030490254
      Nuclear repulsion energy                          9.9220727044
      Kinetic energy (interpolated)                    32.8295890207
      Virial theorem                                    0.9479365229
      Total spin, S(S+1)                               -0.0000000000
      Total spin, S                                    -0.0000000000
      Max non-diagonal density matrix element           0.0000033720
      Max non-diagonal Fock matrix element              0.0000004358
 
 
      All orbitals with orbital energies smaller than  E(LUMO)+0.5 are printed
 
++    Molecular orbitals:
      -------------------
 
      Title: UHF orbitals (alpha)

      Molecular orbitals for symmetry species 1: a  
 
          Orbital            1         2         3         4         5         6         7         8         9    
          Energy           -7.8764   -3.0435   -0.4478   -0.3520   -0.0479   -0.0089    0.1564    0.1889    0.2190
          Occ. No.          1.0000    1.0000    1.0000    1.0000    0.0000    0.0000    0.0000    0.0000    0.0000
 
        1 B1     1s         0.9984   -0.1042   -0.0103   -0.0000    0.0000    0.0318    0.0000    0.0000    0.2218
        2 B1     2s         0.0134   -0.0132    0.8649   -0.0000   -0.0000   -0.1618    0.0000    0.0000    1.3554
        3 B1     2px        0.0000   -0.0000   -0.0000    0.6295   -0.4208    0.0000   -0.6267   -0.7955    0.0000
        4 B1     2py        0.0000    0.0000   -0.0000    0.6378    0.4153   -0.0000   -0.6349    0.7852    0.0000
        5 B1     2pz        0.0076    0.0283   -0.1427    0.0000    0.0000    0.0623   -0.0000   -0.0000   -0.4652
        6 LI2    1s         0.0119    0.9946   -0.2393   -0.0000    0.0000    0.0309   -0.0000    0.0000   -0.2671
        7 LI2    2s        -0.0012    0.0070    0.1959    0.0000    0.0000    0.6792   -0.0000   -0.0000   -1.1781
        8 LI2    2px        0.0000    0.0000   -0.0000    0.1103   -0.3716    0.0000    0.8814    0.8197   -0.0000
        9 LI2    2py       -0.0000   -0.0000   -0.0000    0.1118    0.3668   -0.0000    0.8930   -0.8090   -0.0000
       10 LI2    2pz       -0.0042   -0.0264   -0.0511    0.0000    0.0000    0.7146    0.0000    0.0000    1.1311
--
 
 
      Input file to MOLDEN was generated!
 
 
++    Static properties:
      ------------------
 
 
      LoProp Charges per center
 

                   B1       LI2   
      Nuclear      5.0000   3.0000
      Electronic  -5.7164  -2.2836
 
      Total       -0.7164   0.7164
--
 
 
      All orbitals with orbital energies smaller than  E(LUMO)+0.5 are printed
 
++    Molecular orbitals:
      -------------------
 
      Title: UHF orbitals (beta)

      Molecular orbitals for symmetry species 1: a  
 
          Orbital            1         2         3         4         5         6         7         8         9    
          Energy           -7.8764   -3.0435   -0.4478   -0.3520   -0.0479   -0.0089    0.1564    0.1889    0.2190
          Occ. No.          1.0000    1.0000    1.0000    1.0000    0.0000    0.0000    0.0000    0.0000    0.0000
 
        1 B1     1s         0.9984   -0.1042   -0.0103   -0.0000    0.0000    0.0318    0.0000    0.0000    0.2218
        2 B1     2s         0.0134   -0.0132    0.8649   -0.0000   -0.0000   -0.1618    0.0000    0.0000    1.3554
        3 B1     2px        0.0000   -0.0000   -0.0000    0.6295   -0.4208    0.0000   -0.6267   -0.7955    0.0000
        4 B1     2py        0.0000    0.0000   -0.0000    0.6378    0.4153   -0.0000   -0.6349    0.7852    0.0000
        5 B1     2pz        0.0076    0.0283   -0.1427    0.0000    0.0000    0.0623   -0.0000   -0.0000   -0.4652
        6 LI2    1s         0.0119    0.9946   -0.2393   -0.0000    0.0000    0.0309   -0.0000    0.0000   -0.2671
        7 LI2    2s        -0.0012    0.0070    0.1959    0.0000    0.0000    0.6792   -0.0000   -0.0000   -1.1781
        8 LI2    2px        0.0000    0.0000   -0.0000    0.1103   -0.3716    0.0000    0.8814    0.8197   -0.0000
        9 LI2    2py       -0.0000   -0.0000   -0.0000    0.1118    0.3668   -0.0000    0.8930   -0.8090   -0.0000
       10 LI2    2pz       -0.0042   -0.0264   -0.0511    0.0000    0.0000    0.7146    0.0000    0.0000    1.1311
--
 
 
++    Molecular charges:
      ------------------
 
      Mulliken charges per centre and basis function type
      ---------------------------------------------------
 
                            B1                      LI2   
                     alpha        beta       alpha        beta
      1s           1.0003      1.0003      0.9901      0.9901
      2s           0.7929      0.7929      0.1417      0.1417
      2px          0.4388      0.4388      0.0547      0.0547
      2pz          0.0512      0.0512      0.0237      0.0237
      2py          0.4504      0.4504      0.0561      0.0561
      Total        2.7336      2.7336      1.2664      1.2664
      Total              5.4673                  2.5327
 
      Charge           -0.4673                  0.4673
 
      Total electronic charge=    8.000000
 
      Total            charge=   -0.000000
--
 
 
      Input file to MOLDEN was generated!
 
 
++    Static properties:
      ------------------
 
 
      LoProp Charges per center
 

                   B1       LI2   
      Nuclear      5.0000   3.0000
      Electronic  -5.7164  -2.2836
 
      Total       -0.7164   0.7164
--
 
 
++    Natural Bond Order analysis
      ---------------------------
      Based on LoProp computed density
      -------------------------------------------------------------------------------------
      Atom A       Atom B       Bond Order
        B1           LI2            0.800
      -------------------------------------------------------------------------------------
      NBO located      1.600 electrons involved in    1 bonds.
      NBO located      0.905 non-bonded electrons on atom LI2       
      The remaining    1.802 electrons are to be considered as diffuse
--
 
 
++    Molecular orbitals:
      -------------------
 
      Title: Natural orbitals

      Molecular orbitals for symmetry species 1: a  
 
          Orbital            1         2         3         4         5         6         7         8         9        10    
          Energy           -7.8764   -3.0435   -0.4478   -0.3520   -0.0479   -0.0089    0.1564    0.1889    0.2190    0.4832
          Occ. No.          2.0000    2.0000    2.0000    2.0000    0.0000    0.0000    0.0000    0.0000    0.0000    0.0000
 
        1 B1     1s         0.9984   -0.1042   -0.0103   -0.0000    0.0000   -0.0318    0.0000    0.0000    0.2218   -0.0822
        2 B1     2s         0.0134   -0.0132    0.8649   -0.0000   -0.0000    0.1618    0.0000    0.0000    1.3554   -0.7467
        3 B1     2px        0.0000   -0.0000   -0.0000    0.6295   -0.4208   -0.0000   -0.6267   -0.7955    0.0000    0.0000
        4 B1     2py        0.0000    0.0000   -0.0000    0.6378    0.4153    0.0000   -0.6349    0.7852    0.0000   -0.0000
        5 B1     2pz        0.0076    0.0283   -0.1427    0.0000    0.0000   -0.0623   -0.0000   -0.0000   -0.4652   -1.2120
        6 LI2    1s         0.0119    0.9946   -0.2393   -0.0000    0.0000   -0.0309   -0.0000    0.0000   -0.2671    0.8485
        7 LI2    2s        -0.0012    0.0071    0.1959    0.0000    0.0000   -0.6792   -0.0000   -0.0000   -1.1781    0.6241
        8 LI2    2px        0.0000    0.0000   -0.0000    0.1103   -0.3716   -0.0000    0.8814    0.8197   -0.0000   -0.0000
        9 LI2    2py       -0.0000   -0.0000   -0.0000    0.1118    0.3668    0.0000    0.8930   -0.8090   -0.0000    0.0000
       10 LI2    2pz       -0.0042   -0.0264   -0.0511    0.0000    0.0000   -0.7146    0.0000    0.0000    1.1311    0.1867
--
 
 
++    Molecular properties:
      ---------------------
 
      Charge (e):
                      =   -0.0000
      Dipole Moment (Debye):
      Origin of the operator (Ang)=    0.0000    0.0000    0.0000
                   X= -1.0012E-13               Y= -1.7992E-13               Z=  5.2169E+00           Total=  5.2169E+00
      Quadrupole Moment (Debye*Ang):
      Origin of the operator (Ang)=    0.0000    0.0000    0.3114
                  XX= -1.3116E+01              XY= -3.6670E+00              XZ= -1.2044E-13              YY= -1.3212E+01
                  YZ= -1.2338E-13              ZZ= -9.6880E+00
      In traceless form (Debye*Ang)
                  XX= -1.6661E+00              XY= -5.5005E+00              XZ= -1.8066E-13              YY= -1.8099E+00
                  YZ= -1.8507E-13              ZZ=  3.4760E+00
--
 
 
      Input file to MOLDEN was generated!
 
 ###############################################################################
 ###############################################################################
 ###                                                                         ###
 ###                                                                         ###
 ###    WARNING: RunFile label nBas                                          ###
 ###    was used       87 times                                              ###
 ###                                                                         ###
 ###                                                                         ###
 ###############################################################################
 ###############################################################################
--- Stop Module: scf at Thu Apr 25 13:36:09 2024 /rc=_RC_ALL_IS_WELL_ ---
*** files: 0.80.LprOrb 0.80.LoProp.molden 0.80.scf.molden 0.80.scf.h5 0.80.UhfOrb 0.80.UnaOrb xmldump
    saved to directory /home/grierjones/DDCASPT2/delta_ML/BLi/0.80

*** symbolic link created: INPORB -> 0.80.UnaOrb
--- Start Module: mbpt2 at Thu Apr 25 13:36:09 2024 ---
 
()()()()()()()()()()()()()()()()()()()()()()()()()()()()()()()()()()()()()()()()()()()()()()()()()()

                                               &MBPT2

                                   only a single process is used
                       available to each process: 2.0 GB of memory, 1 thread?
                                             pid: 96514
()()()()()()()()()()()()()()()()()()()()()()()()()()()()()()()()()()()()()()()()()()()()()()()()()()
 
 
 ###############################################################################
 ###############################################################################
 ###                                                                         ###
 ###                                                                         ###
 ###    WARNING: MP2 implementation intended for RHF references only         ###
 ###                                                                         ###
 ###                                                                         ###
 ###############################################################################
 ###############################################################################
MBPT2 WARNING: Reference function according to RunFile:UHF-SCF 
I'll assume you know what you're doing and continue
 
 
WARNING!
Default frozen orbitals as non valence orbitals is overwritten by user input.
Default values:   2
 
 
      Cartesian coordinates in Angstrom:
      -----------------------------------------------------
      No.  Label        X            Y            Z        
      -----------------------------------------------------
       1   B1         0.00000000   0.00000000   0.00000000
       2   LI2        0.00000000   0.00000000   0.80000000
      -----------------------------------------------------
      Nuclear repulsion energy =    9.92207270
 
      Contents of RUNFILE file:
      -------------------------
 
      Symmetry species                           1
                                                 a
      Number of basis functions                 10
      Frozen occupied orbitals                   0
      Active occupied orbitals                   4
      Active external orbitals                   6
      Deleted external orbitals                  0
 
 
      Energies of the active occupied orbitals
 
      symmetry species 1                    -7.876359     -3.043490     -0.447847     -0.351999
 
 
      Energies of the active external orbitals
 
      symmetry species 1                    -0.047893     -0.008889      0.156409      0.188885      0.219002
                                             0.483196
 
 
      ********************************************************************************************************
      *                                               Results                                                *
      ********************************************************************************************************
 
 Conventional algorithm used...

       SCF energy                           =      -31.1203664654 a.u.
       Second-order correlation energy      =       -0.0288032830 a.u.

       Total energy                         =      -31.1491697484 a.u.
       Reference weight ( Cref**2 )         =        0.97552
 
::    Total MBPT2 energy                              -31.1491697484
 
 
       Zeroth-order energy (E0)             =      -13.5173174400 a.u.
 
       Shanks-type energy S1(E)             =      -31.1492169555 a.u.
 
 


       Data processing and timing information:

       Section                                              time(sec)
                                                          CPU  Elapsed

      Input data processing                              0.02      0.04
      Transformation of integrals                        0.00      0.00
      MBPT2 calculations (BJAI)                          0.00      0.00
      Total MBPT2 calculations                           0.02      0.04
 
 
--- Stop Module: mbpt2 at Thu Apr 25 13:36:09 2024 /rc=_RC_ALL_IS_WELL_ ---
*** files: xmldump
    saved to directory /home/grierjones/DDCASPT2/delta_ML/BLi/0.80

*** symbolic link created: INPORB -> 0.80.UnaOrb
--- Start Module: rasscf at Thu Apr 25 13:36:09 2024 ---
 
()()()()()()()()()()()()()()()()()()()()()()()()()()()()()()()()()()()()()()()()()()()()()()()()()()

                                              &RASSCF

                                   only a single process is used
                       available to each process: 2.0 GB of memory, 1 thread?
                                             pid: 96517
()()()()()()()()()()()()()()()()()()()()()()()()()()()()()()()()()()()()()()()()()()()()()()()()()()
 
 
      Header of the ONEINT file:
      --------------------------
      
      Integrals generated by Gateway/Seward, Thu Apr 25 13:36:08 2024
 
 
      OrdInt status: non-squared
 
 
      Cartesian coordinates in Angstrom:
      -----------------------------------------------------
      No.  Label        X            Y            Z        
      -----------------------------------------------------
       1   B1         0.00000000   0.00000000   0.00000000
       2   LI2        0.00000000   0.00000000   0.80000000
      -----------------------------------------------------
      Nuclear repulsion energy =    9.92207270
 
++    Wave function specifications:
      -----------------------------
 
      Number of closed shell electrons           6
      Number of electrons in active shells       2
      Max number of holes in RAS1 space          0
      Max nr of electrons in RAS3 space          0
      Number of inactive orbitals                3
      Number of active orbitals                  2
      Number of secondary orbitals               5
      Spin quantum number                      0.0
      State symmetry                             1
--
 
++    Orbital specifications:
      -----------------------
 
      Symmetry species                           1
                                                 a
      Frozen orbitals                            0
      Inactive orbitals                          3
      Active orbitals                            2
      RAS1 orbitals                              0
      RAS2 orbitals                              2
      RAS3 orbitals                              0
      Secondary orbitals                         5
      Deleted orbitals                           0
      Number of basis functions                 10
--
 
++    CI expansion specifications:
      ----------------------------
 
      Number of CSFs                             3
      Number of determinants                     3
      Number of root(s) required                 1
      Root chosen for geometry opt.              1
      CI root used                               1
         
      highest root included in the CI            1
      max. size of the explicit Hamiltonian      3
--
 
++    Optimization specifications:
      ----------------------------
 
      RASSCF algorithm: Conventional
      Maximum number of macro iterations       200
      Maximum number of SX iterations          100
      Threshold for RASSCF energy            1.000E-08
      Threshold for max MO rotation          1.000E-01
      Threshold for max BLB element          1.000E-04
      Level shift parameter                  5.000E-01
      Make Quasi-Newton update
--
 
      The MO-coefficients are taken from the file:
      /home/grierjones/DDCASPT2/delta_ML/BLi/0.70/0.70.RasOrb                                                                                                                                                                                                         
      Title: RASSCF average (pseudo-natural) orbitals                                      
 
      Total molecular charge    0.00
 
      ************************************************************************************************************************
      *                                                                                                                      *
      *                                            Wave function control section                                             *
      *                                                                                                                      *
      ************************************************************************************************************************
 
 
                                         RASSCF iterations: Energy and convergence statistics
                                         ----------------------------------------------------
 
      Iter CI   SX   CI       RASSCF       Energy    max ROT     max BLB   max BLB  Level Ln srch  Step   QN   Walltime
          iter iter root      energy       change     param      element    value   shift minimum  type update hh:mm:ss
 Nr of preliminary CI iterations:   1
        1   1    5    1   -31.13767032    0.00E+00   2.89E-02    2  10 1  5.34E-02*  0.34   0.00    SX    NO    0:00:00
        2   1    4    1   -31.14161704   -3.95E-03* -9.90E-03    3  10 1  1.63E-02*  0.33   0.00    SX    NO    0:00:00
        3   1    4    1   -31.14211931   -5.02E-04* -4.19E-03    3  10 1  7.28E-03*  0.32   0.00    SX    NO    0:00:00
        4   1    4    1   -31.14222819   -1.09E-04*  3.01E-03    3   6 1  4.55E-03*  0.32   0.00    SX    NO    0:00:00
        5   1    4    1   -31.14226305   -3.49E-05*  4.46E-03    3   6 1  3.10E-03*  0.32   2.50    LS   YES    0:00:00
        6   1    4    1   -31.14228302   -2.00E-05* -9.44E-04    3  10 1 -1.13E-03*  0.32   1.03    QN   YES    0:00:00
        7   1    4    1   -31.14228543   -2.41E-06* -7.44E-04    3  10 1 -6.43E-04*  0.32   1.79    LS   YES    0:00:00
        8   1    4    1   -31.14228601   -5.82E-07*  1.32E-04    3  10 1 -2.60E-04*  0.32   1.00    QN   YES    0:00:00
        9   1    3    1   -31.14228608   -6.65E-08*  8.38E-05    3  10 1 -7.53E-05   0.32   1.51    QN   YES    0:00:00
       10   1    3    1   -31.14228609   -1.13E-08* -1.05E-05    3   9 1 -1.34E-05   0.32   1.05    QN   YES    0:00:00
       11   1    3    1   -31.14228609   -2.98E-10  -8.46E-06    3   9 1 -8.30E-06   0.32   1.81    QN   YES    0:00:00
      Convergence after 11 iterations
       12   1    3    1   -31.14228609   -1.06E-10  -8.46E-06    2   9 1 -9.98E-07   0.32   1.81    QN   YES    0:00:00
 
      ************************************************************************************************************************
                                                      Wave function printout:
                       occupation of active orbitals, and spin coupling of open shells (u,d: Spin up or down)
      ************************************************************************************************************************
 
      Note: transformation to natural orbitals
      has been made, which may change the order of the CSFs.
 
      printout of CI-coefficients larger than  0.05 for root  1
      energy=     -31.142286
      conf/sym  11     Coeff  Weight
             2  ud   1.00000 1.00000
 
      Natural orbitals and occupation numbers for root  1
      sym 1:   1.000000   1.000000
 
      ************************************************************************************************************************
      *                                                                                                                      *
      *                                                    Final results                                                     *
      *                                                                                                                      *
      ************************************************************************************************************************
 
 
++    Wave function specifications:
      -----------------------------
 
      Number of closed shell electrons           6
      Number of electrons in active shells       2
      Max number of holes in RAS1 space          0
      Max nr of electrons in RAS3 space          0
      Number of inactive orbitals                3
      Number of active orbitals                  2
      Number of secondary orbitals               5
      Spin quantum number                      0.0
      State symmetry                             1
--
 
++    Orbital specifications:
      -----------------------
 
      Symmetry species                           1
                                                 a
      Frozen orbitals                            0
      Inactive orbitals                          3
      Active orbitals                            2
      RAS1 orbitals                              0
      RAS2 orbitals                              2
      RAS3 orbitals                              0
      Secondary orbitals                         5
      Deleted orbitals                           0
      Number of basis functions                 10
--
 
++    CI expansion specifications:
      ----------------------------
 
      Number of CSFs                             3
      Number of determinants                     3
      Number of root(s) required                 1
      CI root used                               1
      highest root included in the CI            1
      Root passed to geometry opt.               1
--
 
++    Final optimization conditions:
      ------------------------------
 
      Average CI energy                             -31.14228609
      RASSCF energy for state  1                    -31.14228609
      Super-CI energy                                -0.00000000
      RASSCF energy change                           -0.00000000
      Max change in MO coefficients               1.343E-05
      Max non-diagonal density matrix element    -8.456E-06
      Maximum BLB matrix element                 -9.983E-07
      (orbital pair   2,   9 in symmetry   1)
      Norm of electronic gradient            1.655E-06
--
 
 
      Final state energy(ies):
      ------------------------
 
::    RASSCF root number  1 Total energy:    -31.14228609
 
++    Molecular orbitals:
      -------------------
 
      Pseudonatural active orbitals and approximate occupation numbers
 
 
 
 
      Molecular orbitals for symmetry species 1: a  
 
 
      Orbital                 1         2         3         4         5         6         7         8         9        10
      Energy            -7.8661   -3.0390   -0.4430   -0.1852   -0.0000   -0.0083    0.1621    0.1621    0.2215    0.4877
      Occ. No.           2.0000    2.0000    2.0000    1.0000    1.0000    0.0000    0.0000    0.0000    0.0000    0.0000
 
     1 B1     1s         0.9984   -0.1042   -0.0111    0.0000   -0.0000    0.0326    0.0000   -0.0000    0.2218   -0.0816
     2 B1     2s         0.0135   -0.0133    0.8596    0.0000    0.0000   -0.1607    0.0000   -0.0000    1.3612   -0.7425
     3 B1     2px       -0.0000   -0.0000   -0.0000    0.4065    0.8156   -0.0000   -0.2885   -0.8278   -0.0000    0.0000
     4 B1     2py        0.0000   -0.0000    0.0000   -0.8156    0.4065   -0.0000   -0.8278    0.2885    0.0000    0.0000
     5 B1     2pz        0.0076    0.0282   -0.1407   -0.0000    0.0000    0.0598   -0.0000    0.0000   -0.4624   -1.2134
     6 LI2    1s         0.0119    0.9947   -0.2383   -0.0000   -0.0000    0.0316   -0.0000    0.0000   -0.2705    0.8475
     7 LI2    2s        -0.0012    0.0071    0.2022   -0.0000    0.0000    0.6752   -0.0000    0.0000   -1.1815    0.6200
     8 LI2    2px        0.0000   -0.0000    0.0000    0.0604    0.1213   -0.0000    0.4138    1.1872    0.0000   -0.0000
     9 LI2    2py       -0.0000   -0.0000    0.0000   -0.1213    0.0604   -0.0000    1.1872   -0.4138   -0.0000    0.0000
    10 LI2    2pz       -0.0042   -0.0263   -0.0528   -0.0000    0.0000    0.7189    0.0000   -0.0000    1.1279    0.1892
--
 
      Von Neumann Entropy (Root   1) =  1.00000
 

      Mulliken population analysis for root number:  1
      -----------------------------------------------
 
 
++    Molecular charges:
      ------------------
 
      Mulliken charges per centre and basis function type
      ---------------------------------------------------
 
                B1      LI2   
      1s       2.0006  1.9804
      2s       1.5755  0.2940
      2px      0.9061  0.0939
      2pz      0.1007  0.0489
      2py      0.9061  0.0939
      Total    5.4889  2.5111
 
      N-E     -0.4889  0.4889
 
      Total electronic charge=    8.000000
 
      Total            charge=   -0.000000
--
 
 

      Expectation values of various properties for root number:  1
      -----------------------------------------------------------
 
 
++    Molecular properties:
      ---------------------
 
      Charge (e):
                      =   -0.0000
      Dipole Moment (Debye):
      Origin of the operator (Ang)=    0.0000    0.0000    0.0000
                   X=  3.0788E-13               Y= -5.7327E-13               Z=  5.2905E+00           Total=  5.2905E+00
      Quadrupole Moment (Debye*Ang):
      Origin of the operator (Ang)=    0.0000    0.0000    0.3114
                  XX= -1.2944E+01              XY=  1.1921E-11              XZ= -1.7312E-13              YY= -1.2944E+01
                  YZ= -2.2644E-13              ZZ= -9.5817E+00
      In traceless form (Debye*Ang)
                  XX= -1.6813E+00              XY=  1.7881E-11              XZ= -2.5968E-13              YY= -1.6813E+00
                  YZ= -3.3967E-13              ZZ=  3.3626E+00
--
 

      LoProp population analysis for root number:  1
      -----------------------------------------------
 
 
++    LoProp analysis:
      ----------------
 
 
 
      Input file to MOLDEN was generated!
 
 
++    Static properties:
      ------------------
 
 
      LoProp Charges per center
 

                   B1       LI2   
      Nuclear      5.0000   3.0000
      Electronic  -5.7166  -2.2834
 
      Total       -0.7166   0.7166
--
 
 
      Natural Bond Order analysis for root number:  1
 
++    Natural Bond Order analysis
      ---------------------------
      Based on LoProp computed density
      -------------------------------------------------------------------------------------
      Atom A       Atom B       Bond Order
        B1           LI2            0.727
      -------------------------------------------------------------------------------------
      NBO located      1.453 electrons involved in    1 bonds.
      NBO located      0.995 non-bonded electrons on atom B1        
      The remaining    1.844 electrons are to be considered as diffuse
--
 
--
 
 
      Input file to MOLDEN was generated!
 
      Average orbitals are written to the RASORB file
      Natural orbitals for root   1 are written to the RASORB.1 file
      Spin density orbitals for root   1 are written to the SPDORB.1 file
 
--- Stop Module: rasscf at Thu Apr 25 13:36:09 2024 /rc=_RC_ALL_IS_WELL_ ---
*** files: 0.80.LprOrb 0.80.rasscf.molden 0.80.LoProp.molden 0.80.RasOrb.1 0.80.RasOrb 0.80.rasscf.h5 0.80.SpdOrb.1 xmldump
    saved to directory /home/grierjones/DDCASPT2/delta_ML/BLi/0.80

*** symbolic link created: INPORB -> 0.80.RasOrb
--- Start Module: caspt2 at Thu Apr 25 13:36:09 2024 ---
 
()()()()()()()()()()()()()()()()()()()()()()()()()()()()()()()()()()()()()()()()()()()()()()()()()()

                                              &CASPT2

                                   only a single process is used
                       available to each process: 2.0 GB of memory, 1 thread?
                                             pid: 96520
()()()()()()()()()()()()()()()()()()()()()()()()()()()()()()()()()()()()()()()()()()()()()()()()()()
 
 ###############################################################################
 ###############################################################################
 ###                                                                         ###
 ###                                                                         ###
 ###    WARNING: User changed nr of frozen orbitals.                         ###
 ###                                                                         ###
 ###                                                                         ###
 ###############################################################################
 ###############################################################################
 
++    Wave function specifications:
      -----------------------------
 
      Number of closed shell electrons           6
      Number of electrons in active shells       2
      Max number of holes in RAS1 space          0
      Max number of electrons in RAS3 space      0
      Number of inactive orbitals                3
      Number of active orbitals                  2
      Number of secondary orbitals               5
      Spin quantum number                      0.0
      State symmetry                             1
      Number of CSFs                             3
      Number of CASSCF root(s) available         1
      CASPT2 state passed to geometry opt.       1
      A file JOBMIX will be created
      This is a CASSCF or RASSCF reference function
--
 
++    Orbital specifications:
      -----------------------
 
      Symmetry species                           1
                                                 a
      Frozen orbitals                            0
      Inactive orbitals                          3
      Active orbitals                            2
      Secondary orbitals                         5
      Deleted orbitals                           0
      Number of basis functions                 10
--
 
++    CASPT2 specifications:
      ----------------------
 
      Type of calculation                        SS-CASPT2
      Fock operator                              state-specific
      IPEA shift                                 0.25
      Real shift                                 0.00
      Imaginary shift                            0.00
      The input orbitals will be transformed to quasi-canonical
--
 
--------------------------------------------------------------------------------
 Estimated memory requirements:
  POLY3 :                   250070
  RHS:                      250476
  SIGMA :                   250480
  PRPCTL:                        0
 Available workspace:    230392690
 
++ CASPT2 computation for group   1
 
********************************************************************************
 Multi-State initialization phase begins for group   1
--------------------------------------------------------------------------------
********************************************************************************
 Compute H0 matrices for state    1
--------------------------------------------------------------------------------
--------------------------------------------------------------------------------
 H0 matrices have been computed.
 
********************************************************************************
  CASPT2 EQUATION SOLUTION
--------------------------------------------------------------------------------
 
  Total nr of CASPT2 parameters:
   Before reduction:         620
   After  reduction:         457
 
 Variance of |WF0>:       0.0368873519
 
 The contributions to the second order correlation energy in atomic units.
-----------------------------------------------------------------------------------------------------------------------------
  IT.      VJTU        VJTI        ATVX        AIVX        VJAI        BVAT        BJAT        BJAI        TOTAL       RNORM  
-----------------------------------------------------------------------------------------------------------------------------
   1    -0.000000   -0.000000   -0.000000   -0.000000   -0.001450   -0.002677   -0.006037   -0.008718   -0.018881    0.000521
   2    -0.000000   -0.000000   -0.000000   -0.000000   -0.001451   -0.002701   -0.006059   -0.008719   -0.018930    0.000016
   3    -0.000000   -0.000000   -0.000000   -0.000000   -0.001451   -0.002701   -0.006059   -0.008719   -0.018930    0.000001
-----------------------------------------------------------------------------------------------------------------------------
 
  FINAL CASPT2 RESULT:
 
      Reference energy:         -31.1422860907
      E2 (Non-variational):      -0.0189300166
      E2 (Variational):          -0.0189300162
      Total energy:             -31.1612161068
      Residual norm:              0.0000000307
      Reference weight:           0.98476
 
      Contributions to the CASPT2 correlation energy
      Active & Virtual Only:         -0.0027010854
      One Inactive Excited:          -0.0060588879
      Two Inactive Excited:          -0.0101700433
 
 
++ Denominators, etc.
--------------------------------------------------------------------------------------------------------------
 Report on small energy denominators, large coefficients, and large energy contributions.
CASE  SYMM ACTIVE-MIX  NON-ACTIVE INDICES          DENOMINATOR     RHS VALUE       COEFFICIENT     CONTRIBUTION
ATVX     1  Mu1.0001  Se1.006                       0.27059130      0.00000000     -0.00000000     -0.00000000
ATVX     1  Mu1.0002  Se1.006                       0.27059130      0.00000000     -0.00000000     -0.00000000
VJAIP    1  Mu1.0001  Se1.007 In1.003 In1.003       0.98790342      0.02630353     -0.02611211     -0.00068684
VJAIP    1  Mu1.0002  Se1.008 In1.003 In1.003       0.98790342      0.02630353     -0.02611211     -0.00068684
BVATP    1  Mu1.0001  Se1.007 Se1.007               0.77791146     -0.03226219      0.04184993     -0.00135017
BVATP    1  Mu1.0001  Se1.008 Se1.008               0.77791146      0.03226219     -0.04184993     -0.00135017
BJATP    1  Mu1.0002  In1.003 Se1.009 Se1.007       1.13675120      0.03643089     -0.03211924     -0.00117013
BJATP    1  Mu1.0001  In1.003 Se1.009 Se1.008       1.13675120      0.03643089     -0.03211924     -0.00117013
BJATM    1  Mu1.0002  In1.003 Se1.009 Se1.007       1.13675120     -0.03287358      0.02904183     -0.00095471
BJATM    1  Mu1.0001  In1.003 Se1.009 Se1.008       1.13675120     -0.03287358      0.02904183     -0.00095471
BJAIP    1  Se1.006 In1.003 Se1.009 In1.003         1.09911062     -0.02929377      0.02665225     -0.00078075
BJAIP    1  Se1.009 In1.003 Se1.009 In1.003         1.32892428      0.04650080     -0.03499131     -0.00162712
BJAIP    1  Se1.010 In1.003 Se1.010 In1.003         1.86138029      0.06823207     -0.03665670     -0.00250116
--
 
   (Skipping property calculation,
    use PROP keyword to activate)
--
 
  Total CASPT2 energies:
::    CASPT2 Root  1     Total energy:    -31.16121611
 
  A NEW JOBIPH FILE NAMED 'JOBMIX' IS PREPARED.
********************************************************************************
--- Stop Module: caspt2 at Thu Apr 25 13:36:10 2024 /rc=_RC_ALL_IS_WELL_ ---
*** files: xmldump
    saved to directory /home/grierjones/DDCASPT2/delta_ML/BLi/0.80

.##################.
.# Happy landing! #.
.##################.

    Timing: Wall=2.29 User=1.57 System=0.22
************************************
*** WorkDir at /tmp/0.80 removed ***
************************************
