*******************************************************************************************
*** WorkDir at /lustre/isaac/scratch/gjones39/ANO-RCC-VTZP/ozone_140.00/3189852 cleaned ***
*******************************************************************************************
   This run of MOLCAS is using the pymolcas driver

                             OPE
                             OPE          NMOL  CASOP  ENMOLC A   SO
                 OPE        NMOLC        AS  OP EN  MO LC     AS  OP
                OPENM       OL CA        SO  PE NM  OL CA     SOP EN
                OP EN      MO   LC       AS  OP ENMOL  CASO   PENMOL
                OP  EN     MO   LC       AS  OP EN     MO     LC ASO
               OP   E  NMOL  C  AS       OP  EN MO     LC     AS  OP
               OP  E   NMO   LC AS        OPEN  MO     LCASOP EN   M
               O  PEN   MO  LCA  SO
            OPE   NMO   L   CAS    OP
        OPENMOL  CASOP     ENMOL   CASOPE
     OPENMOLCA   SOPENMOLCASOPEN   MOLCASOPE
    OPENMOLCAS   OP           EN   MOL    CAS
    OPENMOLCAS       OP  ENM        O     LCA
    OPENMOLCAS    OPEN  MOLCASO     P  E  NMO
    OPENMOLCAS     OP               E  N  MOL
    OPENMOLCA   SO           PENM   O  L  CAS    OPEN    MO    LCAS
    OPENMOLCA   SOP           ENM   O  L  CAS   OP  EN  MOLC  AS   O
    OPENMOLCA   SOPE           NM      O  LCA   S      OP  EN MO
    OPENMOLC                AS         O  PEN   M      OL  CA  SOPE
    OPENMO        LCASOPE  NMOL        C  ASO   P      ENMOLC     AS
    OPE     NMO      LCA  SO     P     E   NM   OL  CA SO  PE N   MO
          OPENMOLCA            SOPE   NMO        LCAS  O    P  ENMO
     OPENMOLCASOPENMOLCASOPENMOLCASOPENMOLCA
        OPENMOLCASOPENMOLCASOPENMOLCASOPE
            OPENMOLCASOPENMOLCASOPENM
               OPENMOLCASOPENMOLCA        version: f37762c57-dirty
                   OPENMOLCASO
                       OPE                tag:

 OpenMolcas is free software; you can redistribute it and/or modify it
 under the terms of the GNU Lesser General Public License version 2.1.
 OpenMolcas is distributed in the hope that it will be useful, but it
 is provided "as is" and without any express or implied warranties.
 For more details see the full text of the license in the file
 LICENSE or in <http://www.gnu.org/licenses/>.

                 Copyright (C) The OpenMolcas Authors
           For the author list and the recommended citation,
                   consult the file CONTRIBUTORS.md

           *************************************************
           * pymolcas version py2.05                       *
           *   build c53fbf9a0f911de0c7c16766b0715e61      *
           *   (after the EMIL interpreter by V. Veryazov) *
           *************************************************

configuration info
------------------
C Compiler ID: GNU
C flags: -std=gnu99
Fortran Compiler ID: Intel
Fortran flags: -fpp -i8 -r8 -heap-arrays
Definitions: _MOLCAS_;_I8_;_LINUX_
Parallel: OFF (GA=OFF)


   ---------------------------------------------------------------------------------------
  |
  |              Project: ozone_140.00
  |       Submitted from: /lustre/isaac/scratch/gjones39/ANO-RCC-VTZP/ozone_140.00
  |         Scratch area: /lustre/isaac/scratch/gjones39/ANO-RCC-VTZP/ozone_140.00/3189852
  |      Save outputs to: /lustre/isaac/scratch/gjones39/ANO-RCC-VTZP/ozone_140.00
  |               Molcas: /lustre/isaac/proj/UTK0022/Grier2025/Test/build
  |
  | Scratch area is empty
  |
  |       MOLCAS_DRIVER = /nfs/home/gjones39/bin/pymolcas
  | MOLCAS_KEEP_WORKDIR = NO
  |      MOLCAS_MAXITER = 100
  |  MOLCAS_NEW_WORKDIR = YES
  |       MOLCAS_NPROCS = 1
  |       MOLCAS_SOURCE = /lustre/isaac/proj/UTK0022/Grier2025/Test
  |    MOLCAS_STRUCTURE = 0
  |
   ---------------------------------------------------------------------------------------

++ ---------   Input file   ---------

&GATEWAY
coord=ozone_140.00.xyz
Basis = ANO-RCC-VTZP
Group = nosymm
End of Input

&SEWARD
End of Input

&SCF
FileOrb
/lustre/isaac/scratch/gjones39/ANO-RCC-VTZP/ozone_139.75/ozone_139.75.ScfOrb

>>> COPY $WorkDir/ozone_140.00.scf.h5 $CurrDir/

&RASSCF
Title= RASSCF
ITERation
200 100
CIMX
200
SDAV
500
FileOrb
/lustre/isaac/scratch/gjones39/ANO-RCC-VTZP/ozone_139.75/ozone_139.75.RasOrb
CIROOT
3 3 1
NACTEL
12 0 0
Inactive
6
RAS2
9
Symmetry
1
Spin
1
orblisting
all

>>> COPY $WorkDir/ozone_140.00.rasscf.h5 $CurrDir/

>>> COPY $WorkDir/GMJ_Fock_MO.csv $CurrDir/ozone_140.00.GMJ_Fock_MO.csv

&MOTRA
Frozen=0
LUMORB

>>> COPY $WorkDir/GMJ_one_int_indx.csv $CurrDir/ozone_140.00.GMJ_one_int_indx.csv

>>> COPY $WorkDir/GMJ_one_int.csv $CurrDir/ozone_140.00.GMJ_one_int.csv

>>> COPY $WorkDir/GMJ_two_int_indx.csv $CurrDir/ozone_140.00.GMJ_two_int_indx.csv

>>> COPY $WorkDir/GMJ_two_int.csv $CurrDir/ozone_140.00.GMJ_two_int.csv

&CASPT2

Multistate
ALL

Frozen
0

MAXITER
50

>>> FOREACH k IN (1,2,3)

  >>> FOREACH i IN (B,E,F,G,H)

    >>> FOREACH j IN (P,M)

      >>> IF (-FILE GMJ_e2_${i}_${j}_${k}_.csv)

        >>> COPY $WorkDir/GMJ_RHS_${i}_${j}_${k}_.csv $CurrDir/GMJ_RHS_${i}_${j}_${k}_.csv

        >>> COPY $WorkDir/GMJ_IVECW_${i}_${j}_${k}_.csv $CurrDir/GMJ_IVECW_${i}_${j}_${k}_.csv

        >>> COPY $WorkDir/GMJ_IVECX_${i}_${j}_${k}_.csv $CurrDir/GMJ_IVECX_${i}_${j}_${k}_.csv

        >>> COPY $WorkDir/GMJ_IVECC2_${i}_${j}_${k}_.csv $CurrDir/GMJ_IVECC2_${i}_${j}_${k}_.csv

        >>> COPY $WorkDir/GMJ_e2_${i}_${j}_${k}_.csv $CurrDir/GMJ_e2_${i}_${j}_${k}_.csv

      >>> END IF

    >>> END FOREACH

  >>> END FOREACH

>>> END FOREACH

>>> FOREACH j IN (1,2,3)

  >>> FOREACH i IN (A,C,D)

    >>> IF (-FILE GMJ_e2_${i}_${j}_.csv)

      >>> COPY $WorkDir/GMJ_RHS_${i}_${j}_.csv $CurrDir/GMJ_RHS_${i}_${j}_.csv

      >>> COPY $WorkDir/GMJ_IVECW_${i}_${j}_.csv $CurrDir/GMJ_IVECW_${i}_${j}_.csv

      >>> COPY $WorkDir/GMJ_IVECX_${i}_${j}_.csv $CurrDir/GMJ_IVECX_${i}_${j}_.csv

      >>> COPY $WorkDir/GMJ_IVECC2_${i}_${j}_.csv $CurrDir/GMJ_IVECC2_${i}_${j}_.csv

      >>> COPY $WorkDir/GMJ_e2_${i}_${j}_.csv $CurrDir/GMJ_e2_${i}_${j}_.csv

    >>> END IF

  >>> END FOREACH

>>> END FOREACH

-- ----------------------------------

--- Start Module: gateway at Tue Apr 29 17:34:38 2025 ---
 
()()()()()()()()()()()()()()()()()()()()()()()()()()()()()()()()()()()()()()()()()()()()()()()()()()

                                              &GATEWAY

                                   only a single process is used
                       available to each process: 62 GB of memory, 1 thread?
()()()()()()()()()()()()()()()()()()()()()()()()()()()()()()()()()()()()()()()()()()()()()()()()()()
 
 
++    Symmetry information:
      ---------------------
 
                    Character Table for C1 
 
                             E  
                    a        1  x, y, xy, Rz, z, xz, Ry, yz, Rx, I
--
 
 
++    Basis set information:
      ----------------------
 
 
      Basis set label: O.ANO-RCC...4S3P2D1F.
 
      Electronic valence basis set:
      ------------------
      Associated Effective Charge   8.000000 au
      Associated Actual Charge      8.000000 au
      Nuclear Model: Point charge
 
      Shell  nPrim  nBasis  Cartesian Spherical Contaminant
         s      14       4        X                  
         p       9       3        X                  
         d       4       2                 X         
         f       3       1                 X         
--
 
 
++    Molecular structure info:
      -------------------------
 
                    ************************************************ 
                    **** Cartesian Coordinates / Bohr, Angstrom **** 
                    ************************************************ 
 
     Center  Label                x              y              z                     x              y              z
        1      O1               0.826003       2.269423       0.000000              0.437102       1.200927       0.000000
        2      O2               0.000000       0.000000       0.000000              0.000000       0.000000       0.000000
        3      O3               0.826003      -2.269423       0.000000              0.437102      -1.200927       0.000000
 
                    *************************************** 
                    *    InterNuclear Distances / Bohr    * 
                    *************************************** 
 
               1 O1            2 O2            3 O3    
    1 O1       0.000000
    2 O2       2.415070        0.000000
    3 O3       4.538846        2.415070        0.000000
 
                    ******************************************* 
                    *    InterNuclear Distances / Angstrom    * 
                    ******************************************* 
 
               1 O1            2 O2            3 O3    
    1 O1       0.000000
    2 O2       1.278000        0.000000
    3 O3       2.401854        1.278000        0.000000
 
                    ************************************** 
                    *    Valence Bond Angles / Degree    * 
                    ************************************** 
                          Atom centers                 Phi
                      1 O1       2 O2       3 O3       140.00
--
 
 
            Nuclear Potential Energy             67.10103701 au
 
--- Stop Module: gateway at Tue Apr 29 17:34:45 2025 /rc=_RC_ALL_IS_WELL_ ---
*** files: xmldump
    saved to directory /lustre/isaac/scratch/gjones39/ANO-RCC-VTZP/ozone_140.00
--- Module gateway spent 7 seconds ---

--- Start Module: seward at Tue Apr 29 17:34:45 2025 ---
 
()()()()()()()()()()()()()()()()()()()()()()()()()()()()()()()()()()()()()()()()()()()()()()()()()()

                                              &SEWARD

                                   only a single process is used
                       available to each process: 62 GB of memory, 1 thread?
()()()()()()()()()()()()()()()()()()()()()()()()()()()()()()()()()()()()()()()()()()()()()()()()()()
 
               SEWARD will generate:
                  Multipole Moment integrals up to order  2
                  Kinetic Energy integrals
                  Nuclear Attraction integrals (point charge)
                  One-Electron Hamiltonian integrals
                  Velocity integrals
                  Relativistic Douglas-Kroll-Hess integrals:
                    - Parametrization         : EXP
                    - DKH order of Hamiltonian: 2
                    - DKH order of Properties : 0
                         - multipole moment operators
                         - electric potential operators
                         - contact operators
                  Atomic mean-field integrals
                  Two-Electron Repulsion integrals
 
                   Integrals are discarded if absolute value <: 0.10E-13
                   Integral cutoff threshold is set to       <: 0.10E-15
 
            Nuclear Potential Energy             67.10103701 au
 
 
      Basis set specifications :
      Symmetry species         a  
      Basis functions           90
 
 
  Input file to MOLDEN was generated!
 
--- Stop Module: seward at Tue Apr 29 17:35:03 2025 /rc=_RC_ALL_IS_WELL_ ---
*** files: ozone_140.00.GssOrb ozone_140.00.guessorb.h5 ozone_140.00.guessorb.molden xmldump
    saved to directory /lustre/isaac/scratch/gjones39/ANO-RCC-VTZP/ozone_140.00
--- Module seward spent 17 seconds ---

*** symbolic link created: INPORB -> ozone_140.00.GssOrb
--- Start Module: scf at Tue Apr 29 17:35:03 2025 ---
 
()()()()()()()()()()()()()()()()()()()()()()()()()()()()()()()()()()()()()()()()()()()()()()()()()()

                                                &SCF

                                   only a single process is used
                       available to each process: 62 GB of memory, 1 thread?
()()()()()()()()()()()()()()()()()()()()()()()()()()()()()()()()()()()()()()()()()()()()()()()()()()
 
++    Input section:
      --------------
 
      Header of the integral files:
      
       Integrals generated by seward 4.2.0  , Tue Apr 29 17:34:46 2025
 
 
      Cartesian coordinates in Angstrom:
      -----------------------------------------------------
      No.  Label        X            Y            Z        
      -----------------------------------------------------
       1   O1         0.43710200   1.20092700   0.00000000
       2   O2         0.00000000   0.00000000   0.00000000
       3   O3         0.43710200  -1.20092700   0.00000000
      -----------------------------------------------------
      Nuclear repulsion energy =   67.10103701
--
 
++    Orbital specifications:
      -----------------------
 
      Symmetry species               1
                                     a
      Frozen orbitals                0
      Occupied orbitals             12
      Secondary orbitals            78
      Deleted orbitals               0
      Total number of orbitals      90
      Number of basis functions     90
--
 
      Molecular charge                           0.000
 
++    Optimization specifications:
      ----------------------------
 
      SCF Algorithm: Conventional
      Minimized density differences are used
      Number of density matrices in core                5
      Maximum number of NDDO SCF iterations           400
      Maximum number of HF SCF iterations             400
      Threshold for SCF energy change            0.10E-08
      Threshold for density matrix               0.10E-03
      Threshold for Fock matrix                  0.15E-03
      Threshold for linear dependence            0.10E-08
      Threshold at which DIIS is turned on       0.15E+00
      Threshold at which QNR/C2DIIS is turned on 0.75E-01
      Threshold for Norm(delta) (QNR/C2DIIS)     0.20E-04
      DIIS extrapolation of the SCF procedure
      All orbitals punched on: SCFORB
--
 
      Input vectors read from INPORB
      Orbital file label: * SCF orbitals
 
 
++ Convergence information
                                   SCF        iterations: Energy and convergence statistics
 
Iter     Tot. SCF        One-elec.       Two-elec.     Energy      Max Dij or  Max Fij      DNorm      TNorm      AccCon     Time
         Energy          Energy          Energy        Change      Delta Norm                                                in Sec.
   1  -224.484463640  -441.830386994   150.244886346   0.00E+00    0.12E-02*   0.66E-03*    0.75E+01   0.11E+03   None         0.
   2  -224.484468929  -441.829975015   150.244469079  -0.53E-05*   0.56E-03*   0.31E-03*    0.70E-02   0.11E+03   EDIIS        0.
   3  -224.484469913  -441.830695344   150.245188423  -0.98E-06*   0.33E-03*   0.27E-03*    0.96E-03   0.11E+03   c2DIIS       0.
   4  -224.484470260  -441.830053369   150.244546101  -0.35E-06*   0.19E-03*   0.80E-04     0.11E-02   0.11E+03   QNRc2DIIS    0.
   5  -224.484470272  -441.831053264   150.245545984  -0.12E-07*   0.96E-04*   0.10E-03     0.61E-03   0.11E+03   QNRc2DIIS    0.
   6  -224.484470317  -441.830592347   150.245085022  -0.45E-07*   0.73E-04*   0.13E-04     0.56E-04   0.11E+03   QNRc2DIIS    0.
   7  -224.484470321  -441.830508199   150.245000870  -0.41E-08*   0.62E-05    0.12E-05     0.40E-04   0.11E+03   QNRc2DIIS    0.
   8  -224.484470321  -441.830558379   150.245051050  -0.24E-10    0.24E-05    0.16E-05     0.33E-03   0.11E+03   QNRc2DIIS    0.
 
       Convergence after  8 Macro Iterations
--
 
 *****************************************************************************************************************************
 *                                                                                                                           *
 *                                             SCF/KS-DFT Program, Final results                                             *
 *                                                                                                                           *
 *                                                                                                                           *
 *                                                                                                                           *
 *                                                       Final Results                                                       *
 *                                                                                                                           *
 *****************************************************************************************************************************
 
::    Total SCF energy                               -224.4844703214
      One-electron energy                            -441.8305583793
      Two-electron energy                             150.2450510501
      Nuclear repulsion energy                         67.1010370079
      Kinetic energy (interpolated)                   225.0680370110
      Virial theorem                                    0.9974071543
      Total spin, S(S+1)                                0.0000000000
      Total spin, S                                     0.0000000000
      Max non-diagonal density matrix element           0.0000034080
      Max non-diagonal Fock matrix element              0.0000007783
 
 
      All orbitals with orbital energies smaller than  E(LUMO)+0.5 are printed
 
++    Molecular orbitals:
      -------------------
 
      Title: SCF orbitals

      Molecular orbitals for symmetry species 1: a  
 
          Orbital            1         2         3         4         5         6         7         8         9        10    
          Energy          -20.9135  -20.7368  -20.7367   -1.7292   -1.4574   -1.0785   -0.8322   -0.8028   -0.7702   -0.5927
          Occ. No.          2.0000    2.0000    2.0000    2.0000    2.0000    2.0000    2.0000    2.0000    2.0000    2.0000
 
        1 O1     1s         0.0023   -0.7742    0.6312   -0.0129    0.0122    0.0122   -0.0083   -0.0234    0.0000    0.0076
        2 O1     2s         0.0025    0.0059   -0.0050    0.3401   -0.5625    0.6279   -0.1808   -0.4336    0.0000    0.0790
        3 O1     3s         0.0015    0.0042   -0.0035   -0.0086    0.0202    0.0203   -0.0141   -0.0515    0.0000    0.0172
        4 O1     4s         0.0003    0.0009   -0.0007   -0.0002    0.0040    0.0034   -0.0029   -0.0109   -0.0000    0.0039
        5 O1     2px       -0.0005   -0.0011    0.0008   -0.0338    0.0454    0.0846    0.2562   -0.2682   -0.0000   -0.6172
        6 O1     3px       -0.0005   -0.0011    0.0006    0.0109   -0.0065   -0.0144   -0.0163    0.0232   -0.0000   -0.0022
        7 O1     4px       -0.0001    0.0004   -0.0005    0.0022    0.0004    0.0005   -0.0009    0.0012   -0.0000    0.0048
        8 O1     2py       -0.0016   -0.0025    0.0025   -0.1143    0.0827    0.1349   -0.2588   -0.3265    0.0000    0.3453
        9 O1     3py       -0.0009   -0.0025    0.0024    0.0129   -0.0176   -0.0225    0.0236    0.0436   -0.0000   -0.0056
       10 O1     4py        0.0004    0.0017   -0.0014    0.0010   -0.0037    0.0010    0.0037    0.0037    0.0000   -0.0028
       11 O1     2pz       -0.0000    0.0000    0.0000    0.0000    0.0000   -0.0000    0.0000    0.0000    0.3944    0.0000
       12 O1     3pz        0.0000    0.0000    0.0000   -0.0000   -0.0000   -0.0000   -0.0000    0.0000   -0.0163    0.0000
       13 O1     4pz       -0.0000    0.0000    0.0000   -0.0000    0.0000   -0.0000   -0.0000   -0.0000   -0.0067    0.0000
       14 O1     3d2-       0.0002    0.0008   -0.0007    0.0106   -0.0112   -0.0104   -0.0094    0.0213    0.0000    0.0065
       15 O1     4d2-       0.0000    0.0005   -0.0003    0.0008   -0.0013   -0.0006   -0.0009    0.0016    0.0000    0.0012
       16 O1     3d1-      -0.0000    0.0000    0.0000    0.0000    0.0000   -0.0000   -0.0000    0.0000   -0.0305    0.0000
       17 O1     4d1-      -0.0000    0.0000    0.0000    0.0000    0.0000   -0.0000   -0.0000    0.0000   -0.0051    0.0000
       18 O1     3d0       -0.0002   -0.0006    0.0005   -0.0105    0.0091    0.0054   -0.0076   -0.0145    0.0000    0.0054
       19 O1     4d0       -0.0001   -0.0004    0.0004   -0.0007    0.0009    0.0001   -0.0008   -0.0008   -0.0000    0.0008
       20 O1     3d1+       0.0000   -0.0000   -0.0000    0.0000    0.0000    0.0000   -0.0000    0.0000   -0.0106    0.0000
       21 O1     4d1+      -0.0000    0.0000    0.0000   -0.0000   -0.0000   -0.0000   -0.0000   -0.0000   -0.0021   -0.0000
       22 O1     3d2+      -0.0004   -0.0010    0.0009   -0.0170    0.0115    0.0093   -0.0238   -0.0190    0.0000    0.0168
       23 O1     4d2+      -0.0002   -0.0005    0.0005   -0.0025    0.0015    0.0012   -0.0025   -0.0014    0.0000    0.0025
       24 O1     4f3-       0.0001    0.0001   -0.0001    0.0035   -0.0026   -0.0006    0.0073    0.0024   -0.0000   -0.0055
       25 O1     4f2-      -0.0000   -0.0000   -0.0000   -0.0000   -0.0000   -0.0000    0.0000    0.0000    0.0040    0.0000
       26 O1     4f1-       0.0000    0.0002   -0.0001    0.0032   -0.0030   -0.0013    0.0020    0.0036   -0.0000   -0.0011
       27 O1     4f0        0.0000   -0.0000   -0.0000    0.0000    0.0000    0.0000   -0.0000    0.0000   -0.0038   -0.0000
       28 O1     4f1+       0.0000    0.0001   -0.0001    0.0010   -0.0010   -0.0006   -0.0001    0.0011    0.0000   -0.0010
       29 O1     4f2+      -0.0000    0.0000    0.0000    0.0000    0.0000    0.0000   -0.0000   -0.0000   -0.0058   -0.0000
       30 O1     4f3+       0.0000    0.0002   -0.0001    0.0043   -0.0047   -0.0030   -0.0020    0.0065    0.0000    0.0016
       31 O2     1s         0.9993    0.0001   -0.0009   -0.0278   -0.0000   -0.0163   -0.0066   -0.0000    0.0000   -0.0000
       32 O2     2s        -0.0051   -0.0012    0.0115    0.6230    0.0000   -0.6452   -0.0706   -0.0000    0.0000   -0.0000
       33 O2     3s        -0.0037   -0.0007    0.0066   -0.0696   -0.0000   -0.0180   -0.0120   -0.0000    0.0000   -0.0000
       34 O2     4s        -0.0008   -0.0001    0.0011   -0.0127   -0.0000   -0.0044   -0.0042   -0.0000    0.0000   -0.0000
       35 O2     2px       -0.0003   -0.0003    0.0027    0.0746    0.0000    0.1765    0.6979   -0.0000   -0.0000    0.0000
       36 O2     3px       -0.0012   -0.0002    0.0018   -0.0325   -0.0000   -0.0230   -0.0740    0.0000    0.0000   -0.0000
       37 O2     4px        0.0014    0.0001   -0.0005   -0.0039   -0.0000    0.0014   -0.0098    0.0000    0.0000   -0.0000
       38 O2     2py        0.0000   -0.0064   -0.0007    0.0000   -0.3344   -0.0000    0.0000    0.5469   -0.0000   -0.1415
       39 O2     3py       -0.0000   -0.0043   -0.0004   -0.0000    0.0649    0.0000   -0.0000   -0.0563   -0.0000   -0.0066
       40 O2     4py        0.0000    0.0012    0.0001    0.0000   -0.0018    0.0000   -0.0000   -0.0096   -0.0000    0.0002
       41 O2     2pz       -0.0000    0.0000    0.0000    0.0000    0.0000    0.0000    0.0000   -0.0000    0.6650   -0.0000
       42 O2     3pz       -0.0000   -0.0000   -0.0000    0.0000    0.0000    0.0000    0.0000   -0.0000   -0.0457   -0.0000
       43 O2     4pz        0.0000   -0.0000   -0.0000    0.0000    0.0000    0.0000    0.0000   -0.0000   -0.0173   -0.0000
       44 O2     3d2-      -0.0000   -0.0012   -0.0001    0.0000   -0.0323   -0.0000    0.0000    0.0224   -0.0000   -0.0443
       45 O2     4d2-      -0.0000   -0.0006   -0.0001    0.0000   -0.0035   -0.0000    0.0000    0.0020   -0.0000   -0.0076
       46 O2     3d1-      -0.0000    0.0000    0.0000   -0.0000    0.0000    0.0000    0.0000    0.0000    0.0000    0.0000
       47 O2     4d1-      -0.0000    0.0000    0.0000    0.0000    0.0000    0.0000    0.0000    0.0000    0.0000    0.0000
       48 O2     3d0        0.0003    0.0001   -0.0011   -0.0148   -0.0000   -0.0043   -0.0131    0.0000    0.0000   -0.0000
       49 O2     4d0        0.0004    0.0001   -0.0006    0.0008    0.0000   -0.0000   -0.0008    0.0000   -0.0000   -0.0000
       50 O2     3d1+       0.0000    0.0000    0.0000    0.0000    0.0000    0.0000    0.0000   -0.0000    0.0254   -0.0000
       51 O2     4d1+      -0.0000   -0.0000   -0.0000   -0.0000    0.0000    0.0000    0.0000    0.0000    0.0037   -0.0000
       52 O2     3d2+       0.0006    0.0001   -0.0014   -0.0193   -0.0000   -0.0033    0.0152   -0.0000   -0.0000   -0.0000
       53 O2     4d2+       0.0003    0.0001   -0.0007   -0.0016   -0.0000   -0.0005    0.0010   -0.0000   -0.0000   -0.0000
       54 O2     4f3-       0.0000    0.0001    0.0000   -0.0000    0.0054    0.0000   -0.0000   -0.0069    0.0000   -0.0073
       55 O2     4f2-      -0.0000    0.0000   -0.0000    0.0000   -0.0000   -0.0000    0.0000    0.0000    0.0000    0.0000
       56 O2     4f1-       0.0000    0.0001    0.0000   -0.0000    0.0054    0.0000   -0.0000   -0.0045   -0.0000    0.0010
       57 O2     4f0        0.0000   -0.0000   -0.0000    0.0000   -0.0000    0.0000   -0.0000   -0.0000   -0.0059    0.0000
       58 O2     4f1+       0.0001    0.0000   -0.0001   -0.0021   -0.0000   -0.0000   -0.0012    0.0000   -0.0000    0.0000
       59 O2     4f2+       0.0000   -0.0000   -0.0000    0.0000    0.0000    0.0000   -0.0000   -0.0000   -0.0085   -0.0000
       60 O2     4f3+       0.0001    0.0000   -0.0002   -0.0090   -0.0000   -0.0013   -0.0081    0.0000    0.0000   -0.0000
       61 O3     1s         0.0023    0.6312    0.7741   -0.0129   -0.0122    0.0122   -0.0083    0.0234   -0.0000   -0.0076
       62 O3     2s         0.0025   -0.0048   -0.0061    0.3401    0.5625    0.6279   -0.1808    0.4336   -0.0000   -0.0790
       63 O3     3s         0.0015   -0.0034   -0.0042   -0.0086   -0.0202    0.0203   -0.0141    0.0515   -0.0000   -0.0172
       64 O3     4s         0.0003   -0.0007   -0.0008   -0.0002   -0.0040    0.0034   -0.0029    0.0109   -0.0000   -0.0039
       65 O3     2px       -0.0005    0.0009    0.0010   -0.0338   -0.0454    0.0846    0.2562    0.2681   -0.0000    0.6172
       66 O3     3px       -0.0005    0.0009    0.0008    0.0109    0.0065   -0.0144   -0.0163   -0.0232    0.0000    0.0022
       67 O3     4px       -0.0001   -0.0003   -0.0005    0.0022   -0.0004    0.0005   -0.0009   -0.0012    0.0000   -0.0048
       68 O3     2py        0.0016   -0.0020   -0.0029    0.1143    0.0827   -0.1349    0.2588   -0.3265   -0.0000    0.3453
       69 O3     3py        0.0009   -0.0020   -0.0029   -0.0129   -0.0176    0.0225   -0.0236    0.0436   -0.0000   -0.0056
       70 O3     4py       -0.0004    0.0013    0.0017   -0.0010   -0.0037   -0.0010   -0.0037    0.0037    0.0000   -0.0028
       71 O3     2pz       -0.0000    0.0000    0.0000   -0.0000   -0.0000    0.0000    0.0000    0.0000    0.3944   -0.0000
       72 O3     3pz       -0.0000    0.0000    0.0000   -0.0000   -0.0000   -0.0000   -0.0000    0.0000   -0.0163    0.0000
       73 O3     4pz       -0.0000   -0.0000    0.0000   -0.0000   -0.0000   -0.0000   -0.0000    0.0000   -0.0067   -0.0000
       74 O3     3d2-      -0.0002    0.0006    0.0008   -0.0106   -0.0112    0.0104    0.0094    0.0213    0.0000    0.0065
       75 O3     4d2-      -0.0000    0.0004    0.0004   -0.0008   -0.0013    0.0006    0.0009    0.0016    0.0000    0.0012
       76 O3     3d1-      -0.0000    0.0000   -0.0000   -0.0000   -0.0000    0.0000    0.0000    0.0000    0.0305   -0.0000
       77 O3     4d1-      -0.0000    0.0000    0.0000   -0.0000   -0.0000    0.0000   -0.0000    0.0000    0.0051   -0.0000
       78 O3     3d0       -0.0002    0.0004    0.0006   -0.0105   -0.0091    0.0054   -0.0076    0.0145    0.0000   -0.0054
       79 O3     4d0       -0.0001    0.0003    0.0005   -0.0007   -0.0009    0.0001   -0.0008    0.0008    0.0000   -0.0008
       80 O3     3d1+       0.0000    0.0000    0.0000    0.0000    0.0000    0.0000   -0.0000    0.0000   -0.0106    0.0000
       81 O3     4d1+      -0.0000   -0.0000   -0.0000    0.0000    0.0000    0.0000   -0.0000   -0.0000   -0.0021   -0.0000
       82 O3     3d2+      -0.0004    0.0008    0.0011   -0.0170   -0.0115    0.0093   -0.0238    0.0190    0.0000   -0.0168
       83 O3     4d2+      -0.0002    0.0004    0.0006   -0.0025   -0.0015    0.0012   -0.0025    0.0014   -0.0000   -0.0025
       84 O3     4f3-      -0.0001    0.0001    0.0001   -0.0035   -0.0026    0.0006   -0.0073    0.0024    0.0000   -0.0055
       85 O3     4f2-       0.0000   -0.0000   -0.0000    0.0000   -0.0000    0.0000   -0.0000    0.0000   -0.0040    0.0000
       86 O3     4f1-      -0.0000    0.0001    0.0002   -0.0032   -0.0030    0.0013   -0.0020    0.0036    0.0000   -0.0011
       87 O3     4f0        0.0000    0.0000    0.0000    0.0000   -0.0000    0.0000   -0.0000   -0.0000   -0.0038    0.0000
       88 O3     4f1+       0.0000   -0.0000   -0.0001    0.0010    0.0010   -0.0006   -0.0001   -0.0011   -0.0000    0.0010
       89 O3     4f2+      -0.0000   -0.0000    0.0000    0.0000    0.0000    0.0000   -0.0000    0.0000   -0.0058    0.0000
       90 O3     4f3+       0.0000   -0.0002   -0.0002    0.0043    0.0047   -0.0030   -0.0020   -0.0065   -0.0000   -0.0016
 
          Orbital           11        12        13        14        15        16        17        18        19        20    
          Energy           -0.5177   -0.5025   -0.0404    0.1725    0.1796    0.2352    0.2363    0.3202    0.3551    0.3740
          Occ. No.          2.0000    2.0000    0.0000    0.0000    0.0000    0.0000    0.0000    0.0000    0.0000    0.0000
 
        1 O1     1s         0.0033   -0.0000    0.0000   -0.2109   -0.1057   -0.0000   -0.0389    0.0758   -0.0187   -0.0000
        2 O1     2s         0.0121   -0.0000    0.0000   -1.5404   -0.8494   -0.0000   -0.2023    0.4614   -0.0583   -0.0000
        3 O1     3s         0.0156   -0.0000    0.0000   -0.9048   -0.3920   -0.0000   -0.2401    0.5522   -0.0294   -0.0000
        4 O1     4s         0.0049    0.0000   -0.0000   -0.2037   -0.0743   -0.0000   -0.0633    0.1516   -0.0008   -0.0000
        5 O1     2px        0.6675   -0.0000   -0.0000    0.3365    0.1232   -0.0000   -0.0407   -0.1041   -0.1979   -0.0000
        6 O1     3px        0.0206    0.0000   -0.0000    0.3380    0.1714    0.0000    0.3589    0.1267   -0.7972   -0.0000
        7 O1     4px       -0.0032    0.0000   -0.0000    0.0407    0.0400    0.0000    0.1648    0.0976   -0.3177   -0.0000
        8 O1     2py        0.0133    0.0000   -0.0000    0.5975    0.9653   -0.0000   -0.1365   -0.1948   -0.2217    0.0000
        9 O1     3py       -0.0147    0.0000   -0.0000    0.7517    0.6810    0.0000    0.0485   -0.8589   -0.1481    0.0000
       10 O1     4py       -0.0021   -0.0000   -0.0000    0.1069    0.0962   -0.0000   -0.0328   -0.2091   -0.0295   -0.0000
       11 O1     2pz       -0.0000   -0.6985    0.6693    0.0000    0.0000   -0.1354    0.0000    0.0000    0.0000   -0.1575
       12 O1     3pz       -0.0000   -0.0297    0.1683    0.0000    0.0000    0.3550   -0.0000    0.0000    0.0000   -0.8965
       13 O1     4pz        0.0000    0.0070    0.0266    0.0000    0.0000    0.1986   -0.0000    0.0000    0.0000   -0.3610
       14 O1     3d2-      -0.0077   -0.0000    0.0000   -0.0613   -0.0335   -0.0000   -0.0133    0.0257    0.0042    0.0000
       15 O1     4d2-      -0.0009   -0.0000    0.0000   -0.0406   -0.0207   -0.0000   -0.0107    0.0182    0.0147    0.0000
       16 O1     3d1-       0.0000    0.0245    0.0109   -0.0000    0.0000    0.0086   -0.0000   -0.0000    0.0000    0.0051
       17 O1     4d1-      -0.0000    0.0059    0.0008   -0.0000   -0.0000    0.0007   -0.0000   -0.0000    0.0000    0.0113
       18 O1     3d0        0.0047   -0.0000    0.0000    0.0519    0.0320    0.0000    0.0265   -0.0489   -0.0071    0.0000
       19 O1     4d0        0.0003    0.0000   -0.0000    0.0330    0.0227    0.0000    0.0152   -0.0318   -0.0102    0.0000
       20 O1     3d1+       0.0000    0.0079    0.0047    0.0000   -0.0000    0.0031   -0.0000   -0.0000   -0.0000    0.0128
       21 O1     4d1+       0.0000    0.0018    0.0003   -0.0000    0.0000    0.0000   -0.0000   -0.0000   -0.0000    0.0107
       22 O1     3d2+       0.0062   -0.0000    0.0000    0.0677    0.0354    0.0000    0.0506   -0.0994    0.0045   -0.0000
       23 O1     4d2+      -0.0004   -0.0000    0.0000    0.0403    0.0293    0.0000    0.0257   -0.0654   -0.0007   -0.0000
       24 O1     4f3-      -0.0001   -0.0000    0.0000   -0.0060   -0.0023    0.0000    0.0015    0.0101   -0.0022   -0.0000
       25 O1     4f2-      -0.0000   -0.0030   -0.0002    0.0000    0.0000    0.0013   -0.0000    0.0000   -0.0000   -0.0055
       26 O1     4f1-      -0.0014    0.0000   -0.0000   -0.0053   -0.0042   -0.0000   -0.0023    0.0096    0.0051   -0.0000
       27 O1     4f0        0.0000    0.0017    0.0015   -0.0000   -0.0000   -0.0019    0.0000   -0.0000   -0.0000    0.0059
       28 O1     4f1+       0.0007   -0.0000    0.0000   -0.0011   -0.0020   -0.0000   -0.0016    0.0019    0.0041    0.0000
       29 O1     4f2+       0.0000    0.0045   -0.0005   -0.0000   -0.0000   -0.0016    0.0000    0.0000    0.0000    0.0041
       30 O1     4f3+      -0.0034    0.0000    0.0000   -0.0066   -0.0056   -0.0000   -0.0025    0.0061    0.0091    0.0000
       31 O2     1s         0.0226   -0.0000    0.0000    0.0000    0.2855    0.0000    0.0598   -0.2366   -0.0000   -0.0000
       32 O2     2s         0.2703   -0.0000   -0.0000    0.0001    2.1616    0.0000    0.2854   -1.4095   -0.0000    0.0000
       33 O2     3s         0.0566   -0.0000    0.0000    0.0000    1.0857    0.0000    0.3072   -0.9018   -0.0000   -0.0000
       34 O2     4s         0.0139   -0.0000   -0.0000    0.0000    0.2337    0.0000    0.0598   -0.1599    0.0000   -0.0000
       35 O2     2px       -0.5655    0.0000    0.0000    0.0000    0.6610   -0.0000   -0.1558   -0.1661    0.0000    0.0000
       36 O2     3px       -0.0170   -0.0000    0.0000    0.0000    0.4713    0.0000    0.3760   -0.4787    0.0000    0.0000
       37 O2     4px       -0.0028    0.0000    0.0000    0.0000    0.0702    0.0000    0.1644   -0.0326    0.0000    0.0000
       38 O2     2py       -0.0000    0.0000   -0.0000    1.4867   -0.0001   -0.0000    0.0000    0.0000   -0.0847    0.0000
       39 O2     3py       -0.0000    0.0000   -0.0000    1.4975   -0.0001   -0.0000    0.0000    0.0000    0.3794   -0.0000
       40 O2     4py       -0.0000    0.0000   -0.0000    0.1516   -0.0000   -0.0000    0.0000   -0.0000    0.1830   -0.0000
       41 O2     2pz       -0.0000    0.0000   -0.8809   -0.0000   -0.0000   -0.0178    0.0000   -0.0000    0.0000    0.0000
       42 O2     3pz        0.0000   -0.0000   -0.1925    0.0000    0.0000    0.3202   -0.0000   -0.0000    0.0000    0.0000
       43 O2     4pz        0.0000   -0.0000   -0.0209    0.0000    0.0000    0.1875   -0.0000   -0.0000    0.0000    0.0000
       44 O2     3d2-      -0.0000    0.0000   -0.0000    0.1175   -0.0000   -0.0000    0.0000   -0.0000    0.0892    0.0000
       45 O2     4d2-      -0.0000    0.0000   -0.0000    0.0722   -0.0000   -0.0000    0.0000   -0.0000    0.0633    0.0000
       46 O2     3d1-      -0.0000   -0.0610   -0.0000   -0.0000   -0.0000   -0.0000   -0.0000   -0.0000   -0.0000    0.1081
       47 O2     4d1-      -0.0000   -0.0142   -0.0000   -0.0000   -0.0000   -0.0000   -0.0000   -0.0000   -0.0000    0.0651
       48 O2     3d0        0.0189   -0.0000   -0.0000   -0.0000   -0.0271   -0.0000   -0.0681    0.1395    0.0000    0.0000
       49 O2     4d0        0.0022    0.0000   -0.0000   -0.0000   -0.0243   -0.0000   -0.0339    0.0654    0.0000    0.0000
       50 O2     3d1+       0.0000    0.0000    0.0003   -0.0000   -0.0000   -0.0222    0.0000   -0.0000    0.0000   -0.0000
       51 O2     4d1+       0.0000    0.0000    0.0004   -0.0000   -0.0000   -0.0094    0.0000   -0.0000    0.0000    0.0000
       52 O2     3d2+       0.0362   -0.0000   -0.0000   -0.0000   -0.0290   -0.0000   -0.1113    0.1136    0.0000   -0.0000
       53 O2     4d2+       0.0070   -0.0000   -0.0000   -0.0000   -0.0277   -0.0000   -0.0482    0.0357    0.0000   -0.0000
       54 O2     4f3-      -0.0000   -0.0000    0.0000   -0.0104    0.0000    0.0000   -0.0000   -0.0000   -0.0011    0.0000
       55 O2     4f2-      -0.0000   -0.0067   -0.0000   -0.0000    0.0000   -0.0000   -0.0000   -0.0000   -0.0000    0.0055
       56 O2     4f1-       0.0000   -0.0000    0.0000   -0.0100    0.0000    0.0000   -0.0000    0.0000   -0.0093    0.0000
       57 O2     4f0       -0.0000   -0.0000   -0.0021   -0.0000   -0.0000   -0.0015    0.0000    0.0000   -0.0000   -0.0000
       58 O2     4f1+      -0.0010    0.0000   -0.0000   -0.0000   -0.0009   -0.0000   -0.0041    0.0064    0.0000   -0.0000
       59 O2     4f2+       0.0000   -0.0000    0.0011   -0.0000   -0.0000   -0.0019    0.0000    0.0000   -0.0000   -0.0000
       60 O2     4f3+       0.0037   -0.0000   -0.0000   -0.0000   -0.0050   -0.0000   -0.0092    0.0119   -0.0000   -0.0000
       61 O3     1s         0.0033    0.0000   -0.0000    0.2109   -0.1057   -0.0000   -0.0389    0.0758    0.0187   -0.0000
       62 O3     2s         0.0121    0.0000   -0.0000    1.5403   -0.8495   -0.0000   -0.2023    0.4614    0.0583   -0.0000
       63 O3     3s         0.0156    0.0000   -0.0000    0.9048   -0.3921   -0.0000   -0.2401    0.5522    0.0294   -0.0000
       64 O3     4s         0.0049    0.0000   -0.0000    0.2037   -0.0743   -0.0000   -0.0633    0.1516    0.0008   -0.0000
       65 O3     2px        0.6676   -0.0000   -0.0000   -0.3364    0.1232   -0.0000   -0.0407   -0.1041    0.1978   -0.0000
       66 O3     3px        0.0206   -0.0000   -0.0000   -0.3380    0.1715    0.0000    0.3589    0.1267    0.7972    0.0000
       67 O3     4px       -0.0032    0.0000   -0.0000   -0.0407    0.0400    0.0000    0.1648    0.0976    0.3177    0.0000
       68 O3     2py       -0.0133    0.0000   -0.0000    0.5975   -0.9653    0.0000    0.1365    0.1948   -0.2217    0.0000
       69 O3     3py        0.0147    0.0000   -0.0000    0.7517   -0.6810   -0.0000   -0.0485    0.8589   -0.1481    0.0000
       70 O3     4py        0.0021   -0.0000    0.0000    0.1069   -0.0962    0.0000    0.0328    0.2091   -0.0295    0.0000
       71 O3     2pz        0.0000    0.6985    0.6693   -0.0000   -0.0000   -0.1354    0.0000   -0.0000   -0.0000    0.1575
       72 O3     3pz        0.0000    0.0297    0.1683    0.0000    0.0000    0.3550   -0.0000   -0.0000   -0.0000    0.8965
       73 O3     4pz       -0.0000   -0.0070    0.0266    0.0000    0.0000    0.1986   -0.0000   -0.0000   -0.0000    0.3610
       74 O3     3d2-       0.0077   -0.0000    0.0000   -0.0613    0.0335    0.0000    0.0133   -0.0257    0.0042   -0.0000
       75 O3     4d2-       0.0009   -0.0000    0.0000   -0.0406    0.0207    0.0000    0.0107   -0.0182    0.0147   -0.0000
       76 O3     3d1-       0.0000    0.0245   -0.0109   -0.0000   -0.0000   -0.0086    0.0000   -0.0000   -0.0000    0.0051
       77 O3     4d1-       0.0000    0.0059   -0.0008    0.0000   -0.0000   -0.0007    0.0000   -0.0000   -0.0000    0.0113
       78 O3     3d0        0.0047   -0.0000    0.0000   -0.0519    0.0320    0.0000    0.0265   -0.0489    0.0071   -0.0000
       79 O3     4d0        0.0003   -0.0000    0.0000   -0.0330    0.0227    0.0000    0.0152   -0.0318    0.0102   -0.0000
       80 O3     3d1+      -0.0000   -0.0079    0.0047    0.0000   -0.0000    0.0031   -0.0000    0.0000    0.0000   -0.0128
       81 O3     4d1+      -0.0000   -0.0018    0.0003    0.0000   -0.0000    0.0000    0.0000    0.0000    0.0000   -0.0107
       82 O3     3d2+       0.0062   -0.0000    0.0000   -0.0677    0.0354    0.0000    0.0506   -0.0994   -0.0045   -0.0000
       83 O3     4d2+      -0.0004   -0.0000    0.0000   -0.0403    0.0293    0.0000    0.0257   -0.0654    0.0007   -0.0000
       84 O3     4f3-       0.0001   -0.0000    0.0000   -0.0060    0.0023   -0.0000   -0.0015   -0.0101   -0.0022   -0.0000
       85 O3     4f2-      -0.0000   -0.0030    0.0002    0.0000   -0.0000   -0.0013    0.0000    0.0000    0.0000   -0.0055
       86 O3     4f1-       0.0014   -0.0000    0.0000   -0.0053    0.0042    0.0000    0.0023   -0.0096    0.0051   -0.0000
       87 O3     4f0       -0.0000   -0.0017    0.0015    0.0000   -0.0000   -0.0019    0.0000    0.0000    0.0000   -0.0059
       88 O3     4f1+       0.0007   -0.0000   -0.0000    0.0011   -0.0020   -0.0000   -0.0016    0.0019   -0.0041    0.0000
       89 O3     4f2+      -0.0000   -0.0045   -0.0005    0.0000    0.0000   -0.0016    0.0000    0.0000    0.0000   -0.0041
       90 O3     4f3+      -0.0034    0.0000   -0.0000    0.0066   -0.0056   -0.0000   -0.0025    0.0061   -0.0091    0.0000
 
          Orbital           21    
          Energy            0.4410
          Occ. No.          0.0000
 
        1 O1     1s        -0.0307
        2 O1     2s        -0.1757
        3 O1     3s         0.2277
        4 O1     4s         0.1338
        5 O1     2px        0.2359
        6 O1     3px        0.5259
        7 O1     4px        0.1339
        8 O1     2py       -0.0311
        9 O1     3py        0.4427
       10 O1     4py        0.1230
       11 O1     2pz        0.0000
       12 O1     3pz       -0.0000
       13 O1     4pz       -0.0000
       14 O1     3d2-      -0.0949
       15 O1     4d2-      -0.0621
       16 O1     3d1-      -0.0000
       17 O1     4d1-      -0.0000
       18 O1     3d0        0.0478
       19 O1     4d0        0.0296
       20 O1     3d1+       0.0000
       21 O1     4d1+       0.0000
       22 O1     3d2+       0.0555
       23 O1     4d2+       0.0312
       24 O1     4f3-       0.0002
       25 O1     4f2-      -0.0000
       26 O1     4f1-      -0.0042
       27 O1     4f0        0.0000
       28 O1     4f1+      -0.0030
       29 O1     4f2+       0.0000
       30 O1     4f3+      -0.0091
       31 O2     1s         0.0924
       32 O2     2s         0.5267
       33 O2     3s         0.8245
       34 O2     4s         0.2474
       35 O2     2px       -0.3628
       36 O2     3px       -0.7659
       37 O2     4px       -0.2631
       38 O2     2py       -0.0000
       39 O2     3py        0.0000
       40 O2     4py        0.0000
       41 O2     2pz       -0.0000
       42 O2     3pz       -0.0000
       43 O2     4pz       -0.0000
       44 O2     3d2-       0.0000
       45 O2     4d2-       0.0000
       46 O2     3d1-       0.0000
       47 O2     4d1-       0.0000
       48 O2     3d0       -0.0299
       49 O2     4d0       -0.0048
       50 O2     3d1+       0.0000
       51 O2     4d1+       0.0000
       52 O2     3d2+      -0.0679
       53 O2     4d2+      -0.0315
       54 O2     4f3-      -0.0000
       55 O2     4f2-       0.0000
       56 O2     4f1-      -0.0000
       57 O2     4f0        0.0000
       58 O2     4f1+       0.0012
       59 O2     4f2+       0.0000
       60 O2     4f3+      -0.0010
       61 O3     1s        -0.0307
       62 O3     2s        -0.1757
       63 O3     3s         0.2277
       64 O3     4s         0.1338
       65 O3     2px        0.2360
       66 O3     3px        0.5259
       67 O3     4px        0.1339
       68 O3     2py        0.0310
       69 O3     3py       -0.4427
       70 O3     4py       -0.1230
       71 O3     2pz        0.0000
       72 O3     3pz        0.0000
       73 O3     4pz        0.0000
       74 O3     3d2-       0.0949
       75 O3     4d2-       0.0621
       76 O3     3d1-      -0.0000
       77 O3     4d1-       0.0000
       78 O3     3d0        0.0478
       79 O3     4d0        0.0296
       80 O3     3d1+       0.0000
       81 O3     4d1+      -0.0000
       82 O3     3d2+       0.0555
       83 O3     4d2+       0.0312
       84 O3     4f3-      -0.0002
       85 O3     4f2-      -0.0000
       86 O3     4f1-       0.0042
       87 O3     4f0        0.0000
       88 O3     4f1+      -0.0030
       89 O3     4f2+       0.0000
       90 O3     4f3+      -0.0091
--
 
 
++    Molecular charges:
      ------------------
 
      Mulliken charges per centre and basis function type
      ---------------------------------------------------
 
                O1      O2      O3    
      1s       1.9978  1.9985  1.9978
      2s       1.9504  1.6815  1.9504
      2px      1.9005  1.6643  1.9005
      2pz      1.3922  1.1254  1.3922
      2py      0.8976  1.0328  0.8976
      3s      -0.0037 -0.0294 -0.0037
      3px     -0.0136 -0.0264 -0.0136
      3pz     -0.0084 -0.0146 -0.0084
      3py      0.0022  0.0051  0.0022
      4s       0.0040  0.0019  0.0040
      3d2+     0.0183  0.0344  0.0183
      3d1+     0.0017  0.0052  0.0017
      3d0      0.0058  0.0073  0.0058
      3d1-     0.0135  0.0515  0.0135
      3d2-     0.0114  0.0404  0.0114
      4px      0.0005  0.0013  0.0005
      4pz      0.0012  0.0018  0.0012
      4py      0.0028  0.0036  0.0028
      4d2+     0.0012  0.0049  0.0012
      4d1+     0.0003  0.0007  0.0003
      4d0      0.0001 -0.0002  0.0001
      4d1-     0.0019  0.0130  0.0019
      4d2-     0.0004  0.0056  0.0004
      4f3+     0.0024  0.0029  0.0024
      4f2+     0.0013  0.0023  0.0013
      4f1+     0.0002  0.0004  0.0002
      4f0      0.0008  0.0016  0.0008
      4f1-     0.0011  0.0013  0.0011
      4f2-     0.0008  0.0025  0.0008
      4f3-     0.0027  0.0061  0.0027
      Total    8.1872  7.6256  8.1872
 
      N-E     -0.1872  0.3744 -0.1872
 
      Total electronic charge=   24.000000
 
      Total            charge=   -0.000000
--
 
 
  Input file to MOLDEN was generated!
 
 
++    Static properties:
      ------------------
 
 
      LoProp Charges per center
 

                   O1       O2       O3    
      Nuclear      8.0000   8.0000   8.0000
      Electronic  -8.1968  -7.6064  -8.1968
 
      Total       -0.1968   0.3936  -0.1968
--
 
 
++    Natural Bond Order analysis
      ---------------------------
      Based on LoProp computed density
      -------------------------------------------------------------------------------------
      Atom A       Atom B       Bond Order | Atom A       Atom B       Bond Order
        O1           O2             1.996  |   O2           O3             1.996
      -------------------------------------------------------------------------------------
      NBO located     11.999 core electrons.
      NBO located      3.945 lone pair electrons.
      NBO located      7.985 electrons involved in    2 bonds.
      The remaining    0.072 electrons are to be considered as diffuse
--
 
 
++    Molecular properties:
      ---------------------
 
      Charge (e):
                      =   -0.0000
      Dipole Moment (Debye):
      Origin of the operator (Ang)=    0.0000    0.0000    0.0000
                   X= -3.6368E-01               Y= -5.0932E-06               Z=  1.8376E-13           Total=  3.6368E-01
      Quadrupole Moment (Debye*Ang):
      Origin of the operator (Ang)=    0.2914    0.0000    0.0000
                  XX= -1.6185E+01              XY= -7.1286E-07              XZ= -6.0871E-15              YY= -1.7049E+01
                  YZ=  2.5136E-13              ZZ= -1.4920E+01
      In traceless form (Debye*Ang)
                  XX= -1.9984E-01              XY= -1.0693E-06              XZ= -9.1307E-15              YY= -1.4970E+00
                  YZ=  3.7704E-13              ZZ=  1.6969E+00
--
 
 
  Input file to MOLDEN was generated!
 
 ###############################################################################
 ###############################################################################
 ###                                                                         ###
 ###                                                                         ###
 ###    RunFile label nBas                                                   ###
 ###    was used       78 times                                              ###
 ###                                                                         ###
 ###                                                                         ###
 ###############################################################################
 ###############################################################################
--- Stop Module: scf at Tue Apr 29 17:35:19 2025 /rc=_RC_ALL_IS_WELL_ ---
*** files: ozone_140.00.LprOrb ozone_140.00.LoProp.molden ozone_140.00.scf.molden ozone_140.00.ScfOrb ozone_140.00.scf.h5 xmldump
    saved to directory /lustre/isaac/scratch/gjones39/ANO-RCC-VTZP/ozone_140.00
--- Module scf spent 15 seconds ---

>>> COPY /lustre/isaac/scratch/gjones39/ANO-RCC-VTZP/ozone_140.00/3189852/ozone_140.00.scf.h5 /lustre/isaac/scratch/gjones39/ANO-RCC-VTZP/ozone_140.00/

*** symbolic link created: INPORB -> ozone_140.00.ScfOrb
--- Start Module: rasscf at Tue Apr 29 17:35:20 2025 ---
 
()()()()()()()()()()()()()()()()()()()()()()()()()()()()()()()()()()()()()()()()()()()()()()()()()()

                                              &RASSCF

                                   only a single process is used
                       available to each process: 62 GB of memory, 1 thread?
()()()()()()()()()()()()()()()()()()()()()()()()()()()()()()()()()()()()()()()()()()()()()()()()()()
 
 
      Header of the ONEINT file:
      --------------------------
      
      Integrals generated by seward 4.2.0  , Tue Apr 29 17:34:46 2025
 
 
      OrdInt status: non-squared
 
 
      Cartesian coordinates in Angstrom:
      -----------------------------------------------------
      No.  Label        X            Y            Z        
      -----------------------------------------------------
       1   O1         0.43710200   1.20092700   0.00000000
       2   O2         0.00000000   0.00000000   0.00000000
       3   O3         0.43710200  -1.20092700   0.00000000
      -----------------------------------------------------
      Nuclear repulsion energy =   67.10103701
 
++    Wave function specifications:
      -----------------------------
 
      Number of closed shell electrons          12
      Number of electrons in active shells      12
      Max number of holes in RAS1 space          0
      Max nr of electrons in RAS3 space          0
      Number of inactive orbitals                6
      Number of active orbitals                  9
      Number of secondary orbitals              75
      Spin quantum number                      0.0
      State symmetry                             1
--
 
++    Orbital specifications:
      -----------------------
 
      Symmetry species                           1
                                                 a
      Frozen orbitals                            0
      Inactive orbitals                          6
      Active orbitals                            9
      RAS1 orbitals                              0
      RAS2 orbitals                              9
      RAS3 orbitals                              0
      Secondary orbitals                        75
      Deleted orbitals                           0
      Number of basis functions                 90
--
 
++    CI expansion specifications:
      ----------------------------
 
      Number of CSFs                          2520
      Number of determinants                  3570
      Number of root(s) required                 3
      Root chosen for geometry opt.              3
      CI roots used                              1     2     3
      weights                                0.333 0.333 0.333
      highest root included in the CI            3
      max. size of the explicit Hamiltonian    500
--
 
++    Optimization specifications:
      ----------------------------
 
      RASSCF algorithm: Conventional
      Maximum number of macro iterations       200
      Maximum number of SX iterations          100
      Threshold for RASSCF energy            0.100E-07
      Threshold for max MO rotation          0.100E+00
      Threshold for max BLB element          0.100E-03
      Level shift parameter                  0.500E+00
      Make Quasi-Newton update
--
 
      The MO-coefficients are taken from the file:
      /lustre/isaac/scratch/gjones39/ANO-RCC-VTZP/ozone_139.75/ozone_139.75.RasOrb                                                    
      Title: RASSCF average (pseudo-natural) orbitals                                      
 
      Total molecular charge    0.00
 
      ************************************************************************************************************************
      *                                                                                                                      *
      *                                            Wave function control section                                             *
      *                                                                                                                      *
      ************************************************************************************************************************
 
 
                                         RASSCF iterations: Energy and convergence statistics
                                         ----------------------------------------------------
 
      Iter CI   SX   CI       RASSCF       Energy    max ROT     max BLB   max BLB  Level Ln srch  Step   QN   Walltime
          iter iter root      energy       change     param      element    value   shift minimum  type update hh:mm:ss
 Nr of preliminary CI iterations:   6
        1   1    6    0  -224.64655046    0.00E+00   0.30E-03    4  14 1  0.10E-02*  0.00   0.00    SX    NO    0:00:02
        2   1    6    0  -224.64655271   -0.23E-05* -0.16E-03    4  14 1  0.19E-03*  0.00   0.00    SX    NO    0:00:00
        3   1    5    0  -224.64655279   -0.83E-07* -0.99E-04    6  14 1 -0.53E-04   0.00   0.00    SX    NO    0:00:00
        4   7    6    0  -224.64655505   -0.23E-05*  0.17E-03    4  14 1  0.17E-03*  0.00   0.00    SX    NO    0:00:01
        5   3    5    0  -224.64655517   -0.12E-06* -0.60E-04    6  22 1  0.64E-04   0.00   1.28    QN   YES    0:00:01
        6   4    5    0  -224.64655519   -0.21E-07* -0.36E-04    6  22 1  0.14E-04   0.00   0.98    QN   YES    0:00:00
        7   1    4    0  -224.64655519   -0.18E-08  -0.10E-03    6  22 1  0.23E-04   0.00   1.36    QN   YES    0:00:00
      Convergence after  7 iterations
 
  Dmat in MO in SXCTL bf call to SXHAM                                                                                    
  mat. size =     9x    9
 
        1.9607247341725127
        0.0000000151515874      1.9489586174357600
        0.0000000068473879     -0.0000000001494087      1.9736087389533552
        0.0006725924693103     -0.0000000239156697      0.0000001776632812      1.6148339244839913
       -0.0000001188102031     -0.0003937971250986      0.0000000121828286      0.0000000062735404      1.6950496290053081
        0.0000000009479216      0.0000000148693925      0.0000000634654336      0.0000000067151110      0.0000000366279481
        1.8095262059383779
       -0.0000002071154460     -0.0000000005871401      0.0002307730459857     -0.0000000735838272     -0.0000000056408196
        0.0000001452586526      0.8820530644639430
        0.0014589056453073      0.0000000348021290      0.0000000123315280      0.0020392286876385     -0.0000000399936320
        0.0000000008800090      0.0000000783879953      0.0716576105735995
        0.0000000001178430     -0.0000284501064551      0.0000000000903770     -0.0000000327837355     -0.0021626413302779
       -0.0000000079211543      0.0000000016665005     -0.0000000301681325      0.0435874749731560
        8   3    4    0  -224.64655519    0.15E-08  -0.10E-03    6  22 1 -0.32E-04   0.00   1.36    QN   YES    0:00:01
 
      ************************************************************************************************************************
                                                      Wave function printout:
                       occupation of active orbitals, and spin coupling of open shells (u,d: Spin up or down)
      ************************************************************************************************************************
 
      Note: transformation to natural orbitals
      has been made, which may change the order of the CSFs.
 
      printout of CI-coefficients larger than  0.05 for root  1
      energy=    -224.704860
      conf/sym  111111111     Coeff  Weight
             1  222222000   0.90523 0.81944
             4  222220200  -0.28592 0.08175
            10  2222udud0  -0.06092 0.00371
            12  2222uudd0  -0.06466 0.00418
            72  222u2du0d   0.05693 0.00324
            74  222u2ud0d   0.05834 0.00340
           126  22u222d00   0.06451 0.00416
           205  2u222dud0  -0.07305 0.00534
           207  2u222udd0  -0.07071 0.00500
           551  220222200  -0.07778 0.00605
           611  2ud222u0d  -0.06302 0.00397
           652  u2d222ud0   0.06567 0.00431
           731  202222002  -0.05887 0.00347
           764  ud22220ud   0.06832 0.00467
           805  022222020  -0.06798 0.00462
           992  2uu222d0d  -0.06538 0.00427
          1031  u2u222dd0   0.05486 0.00301
 
      printout of CI-coefficients larger than  0.05 for root  2
      energy=    -224.634890
      conf/sym  111111111     Coeff  Weight
             5  2222ud200  -0.32050 0.10272
            11  222202ud0  -0.05612 0.00315
            51  222u22d00   0.90333 0.81601
           202  2u222d200   0.07140 0.00510
           208  2u22u2dd0  -0.06368 0.00405
           897  2u2u2d2d0  -0.05447 0.00297
          1285  2udu2220d  -0.05216 0.00272
          1381  202u22d02  -0.06063 0.00368
          1406  ud2u22dud   0.07347 0.00540
          1442  022u22d20  -0.07543 0.00569
          1485  2uud2220d  -0.05988 0.00359
          1521  u2ud222d0   0.05554 0.00308
 
      printout of CI-coefficients larger than  0.05 for root  3
      energy=    -224.599915
      conf/sym  111111111     Coeff  Weight
             3  2222u2d00   0.83996 0.70554
            52  222u2d200  -0.46499 0.21622
           277  u2222d200   0.05832 0.00340
           361  222022u0d   0.05569 0.00310
           466  2u2du2dud   0.05037 0.00254
           654  u2d2u22d0   0.05482 0.00301
           733  2022u2d02  -0.05701 0.00325
           766  ud22u2dud   0.07005 0.00491
           807  0222u2d20  -0.07209 0.00520
           994  2uu2d220d  -0.05387 0.00290
          1033  u2u2d22d0   0.05304 0.00281
          1407  ud2u2d2ud  -0.05068 0.00257
 
      Natural orbitals and occupation numbers for root  1
      sym 1:   1.953985   1.942146   1.959755   1.988608   1.990377   1.790247   0.251589   0.075710   0.047583
 
      Natural orbitals and occupation numbers for root  2
      sym 1:   1.963695   1.947527   1.983484   1.125674   1.855525   1.875155   1.138298   0.069981   0.040663
 
      Natural orbitals and occupation numbers for root  3
      sym 1:   1.957318   1.953719   1.983005   1.738482   1.244160   1.763176   1.250854   0.068196   0.041088
 
      ************************************************************************************************************************
      *                                                                                                                      *
      *                                                    Final results                                                     *
      *                                                                                                                      *
      ************************************************************************************************************************
 
 
++    Wave function specifications:
      -----------------------------
 
      Number of closed shell electrons          12
      Number of electrons in active shells      12
      Max number of holes in RAS1 space          0
      Max nr of electrons in RAS3 space          0
      Number of inactive orbitals                6
      Number of active orbitals                  9
      Number of secondary orbitals              75
      Spin quantum number                      0.0
      State symmetry                             1
--
 
++    Orbital specifications:
      -----------------------
 
      Symmetry species                           1
                                                 a
      Frozen orbitals                            0
      Inactive orbitals                          6
      Active orbitals                            9
      RAS1 orbitals                              0
      RAS2 orbitals                              9
      RAS3 orbitals                              0
      Secondary orbitals                        75
      Deleted orbitals                           0
      Number of basis functions                 90
--
 
++    CI expansion specifications:
      ----------------------------
 
      Number of CSFs                          2520
      Number of determinants                  3570
      Number of root(s) required                 3
      CI roots used                              1     2     3
      weights                                0.333 0.333 0.333
      highest root included in the CI            3
      Root passed to geometry opt.               3
--
 
++    Final optimization conditions:
      ------------------------------
 
      Average CI energy                            -224.64655519
      RASSCF energy for state  3                   -224.59991502
      Super-CI energy                                -0.00000000
      RASSCF energy change                            0.00000000
      Max change in MO coefficients               0.951E-04
      Max non-diagonal density matrix element    -0.102E-03
      Maximum BLB matrix element                 -0.318E-04
      (orbital pair   6,  22 in symmetry   1)
      Norm of electronic gradient            0.761E-01
--
 
 
      Final state energy(ies):
      ------------------------
 
::    RASSCF root number  1 Total energy:   -224.70486045
::    RASSCF root number  2 Total energy:   -224.63489010
::    RASSCF root number  3 Total energy:   -224.59991502
 
++    Molecular orbitals:
      -------------------
 
      Pseudonatural active orbitals and approximate occupation numbers
 
 
 
 
      Molecular orbitals for symmetry species 1: a  
 
 
      Orbital                1         2         3         4         5         6         7         8         9        10
      Energy          -20.7875  -20.7060  -20.7060   -1.5200   -1.3174   -1.0273    0.0000    0.0000    0.0000    0.0000
      Occ. No.          2.0000    2.0000    2.0000    2.0000    2.0000    2.0000    1.9607    1.9490    1.9736    1.6148
 
    1 O1     1s         0.0041   -0.7038    0.7090   -0.0065    0.0002    0.0120   -0.0145   -0.0252    0.0000   -0.0008
    2 O1     2s         0.0032    0.0047   -0.0050    0.4902   -0.7010    0.5402   -0.1146   -0.1285   -0.0000   -0.0538
    3 O1     3s         0.0018    0.0035   -0.0036    0.0011   -0.0064    0.0201   -0.0223   -0.0553    0.0000    0.0116
    4 O1     4s         0.0003    0.0006   -0.0006    0.0013   -0.0008    0.0023   -0.0037   -0.0110    0.0000    0.0044
    5 O1     2px       -0.0006   -0.0008    0.0008   -0.0524   -0.0360    0.1044    0.1145   -0.1863    0.0000    0.7081
    6 O1     3px       -0.0006   -0.0009    0.0006    0.0156    0.0031   -0.0207   -0.0078    0.0226    0.0000    0.0156
    7 O1     4px       -0.0001    0.0003   -0.0005    0.0024    0.0008   -0.0007   -0.0012    0.0001   -0.0000   -0.0046
    8 O1     2py       -0.0018   -0.0017    0.0022    0.0336   -0.0867    0.0603   -0.3398   -0.4010    0.0000    0.0548
    9 O1     3py       -0.0011   -0.0020    0.0024   -0.0004    0.0026   -0.0175    0.0343    0.0514   -0.0000   -0.0125
   10 O1     4py        0.0005    0.0013   -0.0014   -0.0014   -0.0015    0.0030    0.0035    0.0041   -0.0000   -0.0020
   11 O1     2pz        0.0000    0.0000    0.0000   -0.0000   -0.0000    0.0000    0.0000   -0.0000    0.3528   -0.0000
   12 O1     3pz       -0.0000    0.0000   -0.0000    0.0000   -0.0000   -0.0000   -0.0000   -0.0000   -0.0246    0.0000
   13 O1     4pz       -0.0000   -0.0000    0.0000   -0.0000    0.0000   -0.0000   -0.0000    0.0000   -0.0046    0.0000
   14 O1     3d2-       0.0002    0.0006   -0.0006    0.0108   -0.0014   -0.0130   -0.0032    0.0208   -0.0000   -0.0089
   15 O1     4d2-       0.0001    0.0004   -0.0004    0.0009   -0.0005   -0.0010   -0.0010    0.0015   -0.0000   -0.0007
   16 O1     3d1-      -0.0000   -0.0000    0.0000    0.0000    0.0000   -0.0000   -0.0000    0.0000   -0.0255    0.0000
   17 O1     4d1-      -0.0000   -0.0000   -0.0000   -0.0000    0.0000   -0.0000   -0.0000    0.0000   -0.0034    0.0000
   18 O1     3d0       -0.0003   -0.0005    0.0006   -0.0053    0.0017    0.0048   -0.0125   -0.0169    0.0000    0.0029
   19 O1     4d0       -0.0002   -0.0003    0.0004   -0.0004    0.0006    0.0001   -0.0010   -0.0011   -0.0000   -0.0005
   20 O1     3d1+       0.0000   -0.0000    0.0000    0.0000   -0.0000   -0.0000   -0.0000    0.0000   -0.0080    0.0000
   21 O1     4d1+      -0.0000   -0.0000    0.0000    0.0000   -0.0000   -0.0000   -0.0000    0.0000   -0.0010    0.0000
   22 O1     3d2+      -0.0005   -0.0007    0.0008   -0.0037    0.0019    0.0028   -0.0292   -0.0221    0.0000    0.0018
   23 O1     4d2+      -0.0003   -0.0004    0.0005   -0.0008    0.0007    0.0003   -0.0031   -0.0017   -0.0000   -0.0011
   24 O1     4f3-       0.0001    0.0001   -0.0001    0.0002   -0.0011    0.0011    0.0071    0.0035   -0.0000    0.0003
   25 O1     4f2-      -0.0000    0.0000   -0.0000   -0.0000    0.0000   -0.0000    0.0000   -0.0000    0.0031   -0.0000
   26 O1     4f1-       0.0001    0.0001   -0.0001    0.0020   -0.0013   -0.0010    0.0039    0.0048   -0.0000   -0.0012
   27 O1     4f0       -0.0000   -0.0000    0.0000   -0.0000    0.0000   -0.0000   -0.0000    0.0000   -0.0043    0.0000
   28 O1     4f1+       0.0000    0.0000   -0.0001    0.0012   -0.0004   -0.0010    0.0000    0.0018   -0.0000   -0.0008
   29 O1     4f2+      -0.0000   -0.0000    0.0000   -0.0000    0.0000   -0.0000   -0.0000    0.0000   -0.0049    0.0000
   30 O1     4f3+       0.0000    0.0001   -0.0001    0.0035   -0.0015   -0.0032    0.0006    0.0065   -0.0000   -0.0028
   31 O2     1s         0.9991   -0.0000   -0.0036   -0.0219    0.0000   -0.0188   -0.0201    0.0000    0.0000    0.0300
   32 O2     2s        -0.0060    0.0000    0.0104    0.5006   -0.0000   -0.7387    0.2606   -0.0000    0.0000    0.3096
   33 O2     3s        -0.0045    0.0000    0.0058   -0.0436    0.0000   -0.0369   -0.0519    0.0000    0.0000    0.0814
   34 O2     4s        -0.0007    0.0000    0.0009   -0.0081    0.0000   -0.0074   -0.0109    0.0000    0.0000    0.0178
   35 O2     2px       -0.0009    0.0000    0.0029   -0.2158    0.0000    0.3563    0.6422   -0.0000   -0.0000   -0.4007
   36 O2     3px       -0.0013    0.0000    0.0015   -0.0123    0.0000   -0.0242   -0.0579    0.0000   -0.0000   -0.0364
   37 O2     4px        0.0016   -0.0000   -0.0005    0.0010   -0.0000   -0.0019   -0.0105    0.0000   -0.0000   -0.0043
   38 O2     2py        0.0000   -0.0060    0.0000   -0.0000   -0.0501    0.0000    0.0000    0.6051   -0.0000   -0.0000
   39 O2     3py       -0.0000   -0.0037    0.0000    0.0000    0.0353   -0.0000   -0.0000   -0.0776    0.0000   -0.0000
   40 O2     4py       -0.0000    0.0010   -0.0000   -0.0000   -0.0055    0.0000   -0.0000   -0.0043    0.0000    0.0000
   41 O2     2pz       -0.0000    0.0000    0.0000   -0.0000    0.0000    0.0000    0.0000    0.0000    0.7243   -0.0000
   42 O2     3pz       -0.0000   -0.0000   -0.0000   -0.0000   -0.0000    0.0000   -0.0000   -0.0000   -0.0502    0.0000
   43 O2     4pz        0.0000    0.0000   -0.0000   -0.0000   -0.0000   -0.0000   -0.0000   -0.0000   -0.0135    0.0000
   44 O2     3d2-       0.0000   -0.0011    0.0000   -0.0000   -0.0154    0.0000    0.0000    0.0376   -0.0000   -0.0000
   45 O2     4d2-       0.0000   -0.0005    0.0000   -0.0000   -0.0013    0.0000    0.0000    0.0031    0.0000   -0.0000
   46 O2     3d1-      -0.0000   -0.0000    0.0000   -0.0000   -0.0000    0.0000    0.0000   -0.0000    0.0000    0.0000
   47 O2     4d1-       0.0000   -0.0000    0.0000   -0.0000   -0.0000    0.0000    0.0000   -0.0000    0.0000    0.0000
   48 O2     3d0        0.0007   -0.0000   -0.0010   -0.0066    0.0000   -0.0099   -0.0202    0.0000    0.0000    0.0192
   49 O2     4d0        0.0005   -0.0000   -0.0005    0.0010   -0.0000   -0.0009   -0.0010   -0.0000    0.0000    0.0022
   50 O2     3d1+      -0.0000    0.0000    0.0000   -0.0000    0.0000    0.0000    0.0000    0.0000    0.0239   -0.0000
   51 O2     4d1+       0.0000    0.0000    0.0000    0.0000   -0.0000    0.0000    0.0000    0.0000    0.0027   -0.0000
   52 O2     3d2+       0.0008   -0.0000   -0.0012   -0.0203    0.0000    0.0029    0.0059   -0.0000    0.0000    0.0378
   53 O2     4d2+       0.0005   -0.0000   -0.0006   -0.0013   -0.0000    0.0008    0.0008   -0.0000    0.0000    0.0059
   54 O2     4f3-      -0.0000    0.0001   -0.0000   -0.0000    0.0020   -0.0000   -0.0000   -0.0068   -0.0000   -0.0000
   55 O2     4f2-       0.0000   -0.0000    0.0000   -0.0000   -0.0000    0.0000    0.0000   -0.0000    0.0000    0.0000
   56 O2     4f1-      -0.0000    0.0001   -0.0000    0.0000    0.0035   -0.0000   -0.0000   -0.0084    0.0000    0.0000
   57 O2     4f0        0.0000   -0.0000   -0.0000    0.0000   -0.0000   -0.0000   -0.0000   -0.0000   -0.0075    0.0000
   58 O2     4f1+       0.0001   -0.0000   -0.0001   -0.0010    0.0000   -0.0014   -0.0041    0.0000    0.0000    0.0005
   59 O2     4f2+       0.0000   -0.0000   -0.0000   -0.0000   -0.0000    0.0000   -0.0000   -0.0000   -0.0070    0.0000
   60 O2     4f3+       0.0002   -0.0000   -0.0002   -0.0043    0.0000   -0.0028   -0.0103    0.0000    0.0000    0.0034
   61 O3     1s         0.0041    0.7090    0.7038   -0.0065   -0.0002    0.0120   -0.0145    0.0252    0.0000   -0.0008
   62 O3     2s         0.0032   -0.0047   -0.0050    0.4902    0.7010    0.5402   -0.1146    0.1285   -0.0000   -0.0538
   63 O3     3s         0.0018   -0.0035   -0.0036    0.0011    0.0064    0.0201   -0.0223    0.0553    0.0000    0.0116
   64 O3     4s         0.0003   -0.0006   -0.0006    0.0013    0.0008    0.0023   -0.0037    0.0110    0.0000    0.0044
   65 O3     2px       -0.0006    0.0008    0.0008   -0.0524    0.0360    0.1044    0.1145    0.1863    0.0000    0.7081
   66 O3     3px       -0.0006    0.0009    0.0006    0.0156   -0.0031   -0.0207   -0.0078   -0.0226    0.0000    0.0156
   67 O3     4px       -0.0001   -0.0003   -0.0004    0.0024   -0.0008   -0.0007   -0.0012   -0.0001   -0.0000   -0.0046
   68 O3     2py        0.0018   -0.0017   -0.0022   -0.0336   -0.0867   -0.0603    0.3398   -0.4010   -0.0000   -0.0548
   69 O3     3py        0.0011   -0.0020   -0.0024    0.0004    0.0026    0.0175   -0.0343    0.0514    0.0000    0.0125
   70 O3     4py       -0.0005    0.0013    0.0014    0.0014   -0.0015   -0.0030   -0.0035    0.0041    0.0000    0.0020
   71 O3     2pz        0.0000   -0.0000    0.0000    0.0000    0.0000    0.0000    0.0000    0.0000    0.3528   -0.0000
   72 O3     3pz       -0.0000   -0.0000   -0.0000    0.0000    0.0000   -0.0000   -0.0000    0.0000   -0.0246    0.0000
   73 O3     4pz       -0.0000    0.0000    0.0000   -0.0000   -0.0000   -0.0000   -0.0000   -0.0000   -0.0046    0.0000
   74 O3     3d2-      -0.0002    0.0006    0.0006   -0.0108   -0.0014    0.0130    0.0032    0.0208    0.0000    0.0089
   75 O3     4d2-      -0.0001    0.0004    0.0004   -0.0009   -0.0005    0.0010    0.0010    0.0015    0.0000    0.0007
   76 O3     3d1-       0.0000   -0.0000   -0.0000   -0.0000    0.0000    0.0000    0.0000    0.0000    0.0255   -0.0000
   77 O3     4d1-       0.0000   -0.0000    0.0000    0.0000    0.0000    0.0000    0.0000    0.0000    0.0034   -0.0000
   78 O3     3d0       -0.0003    0.0005    0.0006   -0.0053   -0.0017    0.0048   -0.0125    0.0169    0.0000    0.0029
   79 O3     4d0       -0.0002    0.0003    0.0004   -0.0004   -0.0006    0.0001   -0.0010    0.0011   -0.0000   -0.0005
   80 O3     3d1+       0.0000    0.0000    0.0000    0.0000    0.0000   -0.0000   -0.0000   -0.0000   -0.0080    0.0000
   81 O3     4d1+      -0.0000    0.0000    0.0000    0.0000    0.0000   -0.0000   -0.0000   -0.0000   -0.0010    0.0000
   82 O3     3d2+      -0.0005    0.0008    0.0008   -0.0037   -0.0019    0.0028   -0.0292    0.0221    0.0000    0.0018
   83 O3     4d2+      -0.0003    0.0004    0.0005   -0.0008   -0.0007    0.0003   -0.0031    0.0017   -0.0000   -0.0011
   84 O3     4f3-      -0.0001    0.0001    0.0001   -0.0002   -0.0011   -0.0011   -0.0071    0.0035    0.0000   -0.0003
   85 O3     4f2-       0.0000    0.0000    0.0000    0.0000    0.0000    0.0000   -0.0000   -0.0000   -0.0031    0.0000
   86 O3     4f1-      -0.0001    0.0001    0.0001   -0.0020   -0.0013    0.0010   -0.0039    0.0048    0.0000    0.0012
   87 O3     4f0       -0.0000    0.0000    0.0000   -0.0000   -0.0000   -0.0000   -0.0000   -0.0000   -0.0043    0.0000
   88 O3     4f1+       0.0000   -0.0000   -0.0001    0.0012    0.0004   -0.0010    0.0000   -0.0018   -0.0000   -0.0008
   89 O3     4f2+      -0.0000    0.0000    0.0000   -0.0000   -0.0000   -0.0000   -0.0000   -0.0000   -0.0049    0.0000
   90 O3     4f3+       0.0000   -0.0001   -0.0001    0.0035    0.0015   -0.0032    0.0006   -0.0065   -0.0000   -0.0028
 
 
      Orbital               11        12        13        14        15        16        17        18        19        20
      Energy            0.0000    0.0000    0.0000    0.0000    0.0000    0.1809    0.2222    0.2366    0.2866    0.3605
      Occ. No.          1.6951    1.8095    0.8821    0.0717    0.0436    0.0000    0.0000    0.0000    0.0000    0.0000
 
    1 O1     1s         0.0021    0.0000   -0.0000   -0.0231   -0.0460   -0.2111   -0.1100   -0.0000    0.0886   -0.0084
    2 O1     2s        -0.0025    0.0000   -0.0000   -0.3048   -0.4577   -1.5197   -0.7722   -0.0000    0.6301   -0.0083
    3 O1     3s         0.0044    0.0000   -0.0000   -0.0479   -0.0980   -0.9247   -0.4980   -0.0000    0.4593    0.0239
    4 O1     4s         0.0013    0.0000   -0.0000   -0.0049   -0.0154   -0.2087   -0.1086   -0.0000    0.1057    0.0108
    5 O1     2px       -0.6408   -0.0000    0.0000    0.0411    0.2980    0.2981    0.0753    0.0000   -0.1428   -0.1866
    6 O1     3px        0.0004   -0.0000    0.0000    0.0326   -0.0754    0.3560    0.3921    0.0000    0.1917   -0.8491
    7 O1     4px        0.0066    0.0000   -0.0000   -0.0022    0.0113    0.0469    0.1455    0.0000    0.1408   -0.3368
    8 O1     2py        0.3127    0.0000    0.0000    0.6894    0.6046    0.5165    0.5247    0.0000   -0.5682   -0.1560
    9 O1     3py        0.0009   -0.0000   -0.0000   -0.0741   -0.0239    0.7586    0.6183    0.0000   -0.9723   -0.1402
   10 O1     4py       -0.0033   -0.0000   -0.0000   -0.0070   -0.0141    0.1118    0.0713   -0.0000   -0.2297   -0.0222
   11 O1     2pz        0.0000   -0.7038    0.6524   -0.0000   -0.0000    0.0000   -0.0000   -0.0446    0.0000   -0.0000
   12 O1     3pz       -0.0000    0.0005    0.0131    0.0000   -0.0000    0.0000   -0.0000    0.4082   -0.0000   -0.0000
   13 O1     4pz       -0.0000    0.0085   -0.0034    0.0000    0.0000    0.0000   -0.0000    0.2107   -0.0000   -0.0000
   14 O1     3d2-       0.0114    0.0000   -0.0000   -0.0098    0.0106   -0.0733   -0.0406   -0.0000    0.0346    0.0166
   15 O1     4d2-       0.0020    0.0000   -0.0000   -0.0012   -0.0001   -0.0459   -0.0276   -0.0000    0.0217    0.0203
   16 O1     3d1-      -0.0000    0.0170    0.0057   -0.0000    0.0000   -0.0000    0.0000    0.0053   -0.0000   -0.0000
   17 O1     4d1-      -0.0000    0.0028    0.0009    0.0000    0.0000   -0.0000    0.0000   -0.0017   -0.0000    0.0000
   18 O1     3d0        0.0031    0.0000    0.0000    0.0105    0.0069    0.0591    0.0512    0.0000   -0.0469   -0.0168
   19 O1     4d0        0.0007    0.0000    0.0000    0.0027    0.0055    0.0359    0.0327    0.0000   -0.0319   -0.0146
   20 O1     3d1+      -0.0000    0.0048    0.0027    0.0000    0.0000   -0.0000   -0.0000    0.0032    0.0000    0.0000
   21 O1     4d1+      -0.0000    0.0005    0.0003    0.0000    0.0000   -0.0000   -0.0000    0.0001    0.0000    0.0000
   22 O1     3d2+       0.0134    0.0000    0.0000    0.0200    0.0198    0.0752    0.0775    0.0000   -0.0740   -0.0039
   23 O1     4d2+       0.0022    0.0000    0.0000    0.0075    0.0103    0.0438    0.0486    0.0000   -0.0538   -0.0041
   24 O1     4f3-      -0.0039   -0.0000    0.0000   -0.0024   -0.0051   -0.0062   -0.0016    0.0000    0.0101   -0.0028
   25 O1     4f2-       0.0000   -0.0019   -0.0007   -0.0000   -0.0000    0.0000   -0.0000    0.0017   -0.0000   -0.0000
   26 O1     4f1-      -0.0013   -0.0000   -0.0000   -0.0031   -0.0032   -0.0058   -0.0061   -0.0000    0.0087    0.0056
   27 O1     4f0       -0.0000    0.0025    0.0018    0.0000    0.0000   -0.0000    0.0000   -0.0021    0.0000    0.0000
   28 O1     4f1+       0.0005    0.0000   -0.0000   -0.0010   -0.0002   -0.0014   -0.0028   -0.0000    0.0019    0.0042
   29 O1     4f2+      -0.0000    0.0031    0.0001   -0.0000    0.0000   -0.0000    0.0000   -0.0024    0.0000   -0.0000
   30 O1     4f3+       0.0021    0.0000   -0.0000   -0.0024    0.0006   -0.0073   -0.0070   -0.0000    0.0061    0.0097
   31 O2     1s        -0.0000    0.0000    0.0000    0.0789   -0.0000    0.0000    0.2652    0.0000   -0.2766    0.0000
   32 O2     2s        -0.0000   -0.0000    0.0000    0.8197    0.0000    0.0000    1.8193    0.0000   -1.8512    0.0000
   33 O2     3s        -0.0000   -0.0000    0.0000    0.0755   -0.0000    0.0000    1.1118    0.0000   -1.0921    0.0000
   34 O2     4s        -0.0000    0.0000    0.0000    0.0264    0.0000   -0.0000    0.2345    0.0000   -0.2194    0.0000
   35 O2     2px        0.0000    0.0000    0.0000    0.5783    0.0000   -0.0000    0.2893   -0.0000   -0.4569   -0.0000
   36 O2     3px       -0.0000   -0.0000   -0.0000   -0.1445   -0.0000    0.0000    0.6138    0.0000   -0.3970   -0.0000
   37 O2     4px       -0.0000    0.0000    0.0000    0.0203    0.0000    0.0000    0.1625    0.0000    0.0281   -0.0000
   38 O2     2py       -0.0193   -0.0000   -0.0000   -0.0000    1.0797    1.3754   -0.0000   -0.0000   -0.0000   -0.0704
   39 O2     3py       -0.0147    0.0000   -0.0000   -0.0000   -0.0904    1.5584   -0.0000   -0.0000   -0.0000    0.2248
   40 O2     4py       -0.0026   -0.0000    0.0000    0.0000    0.0034    0.1657   -0.0000   -0.0000   -0.0000    0.1523
   41 O2     2pz       -0.0000   -0.0000   -0.7466    0.0000    0.0000   -0.0000    0.0000   -0.1315   -0.0000    0.0000
   42 O2     3pz        0.0000   -0.0000   -0.0307   -0.0000    0.0000   -0.0000   -0.0000    0.2294   -0.0000    0.0000
   43 O2     4pz        0.0000    0.0000    0.0024   -0.0000   -0.0000    0.0000   -0.0000    0.1649   -0.0000    0.0000
   44 O2     3d2-      -0.0391   -0.0000   -0.0000   -0.0000    0.0216    0.1356   -0.0000   -0.0000   -0.0000    0.0724
   45 O2     4d2-      -0.0068   -0.0000   -0.0000   -0.0000   -0.0069    0.0808   -0.0000   -0.0000   -0.0000    0.0548
   46 O2     3d1-       0.0000   -0.0422   -0.0000    0.0000   -0.0000    0.0000   -0.0000    0.0000   -0.0000    0.0000
   47 O2     4d1-       0.0000   -0.0073   -0.0000    0.0000   -0.0000    0.0000    0.0000    0.0000   -0.0000    0.0000
   48 O2     3d0        0.0000   -0.0000    0.0000    0.0053    0.0000   -0.0000   -0.0884   -0.0000    0.0870   -0.0000
   49 O2     4d0        0.0000   -0.0000    0.0000   -0.0009    0.0000   -0.0000   -0.0494   -0.0000    0.0427   -0.0000
[...]

>>> COPY /lustre/isaac/scratch/gjones39/ANO-RCC-VTZP/ozone_140.00/3189852/GMJ_IVECW_H_P_2_.csv /lustre/isaac/scratch/gjones39/ANO-RCC-VTZP/ozone_140.00/GMJ_IVECW_H_P_2_.csv

>>> COPY /lustre/isaac/scratch/gjones39/ANO-RCC-VTZP/ozone_140.00/3189852/GMJ_IVECX_H_P_2_.csv /lustre/isaac/scratch/gjones39/ANO-RCC-VTZP/ozone_140.00/GMJ_IVECX_H_P_2_.csv

>>> COPY /lustre/isaac/scratch/gjones39/ANO-RCC-VTZP/ozone_140.00/3189852/GMJ_IVECC2_H_P_2_.csv /lustre/isaac/scratch/gjones39/ANO-RCC-VTZP/ozone_140.00/GMJ_IVECC2_H_P_2_.csv

>>> COPY /lustre/isaac/scratch/gjones39/ANO-RCC-VTZP/ozone_140.00/3189852/GMJ_e2_H_P_2_.csv /lustre/isaac/scratch/gjones39/ANO-RCC-VTZP/ozone_140.00/GMJ_e2_H_P_2_.csv

>>> END FOREACH

>>> EXPORT j = M

>>> IF (-FILE GMJ_e2_${i}_${j}_${k}_.csv)

>>> COPY /lustre/isaac/scratch/gjones39/ANO-RCC-VTZP/ozone_140.00/3189852/GMJ_RHS_H_M_2_.csv /lustre/isaac/scratch/gjones39/ANO-RCC-VTZP/ozone_140.00/GMJ_RHS_H_M_2_.csv

>>> COPY /lustre/isaac/scratch/gjones39/ANO-RCC-VTZP/ozone_140.00/3189852/GMJ_IVECW_H_M_2_.csv /lustre/isaac/scratch/gjones39/ANO-RCC-VTZP/ozone_140.00/GMJ_IVECW_H_M_2_.csv

>>> COPY /lustre/isaac/scratch/gjones39/ANO-RCC-VTZP/ozone_140.00/3189852/GMJ_IVECX_H_M_2_.csv /lustre/isaac/scratch/gjones39/ANO-RCC-VTZP/ozone_140.00/GMJ_IVECX_H_M_2_.csv

>>> COPY /lustre/isaac/scratch/gjones39/ANO-RCC-VTZP/ozone_140.00/3189852/GMJ_IVECC2_H_M_2_.csv /lustre/isaac/scratch/gjones39/ANO-RCC-VTZP/ozone_140.00/GMJ_IVECC2_H_M_2_.csv

>>> COPY /lustre/isaac/scratch/gjones39/ANO-RCC-VTZP/ozone_140.00/3189852/GMJ_e2_H_M_2_.csv /lustre/isaac/scratch/gjones39/ANO-RCC-VTZP/ozone_140.00/GMJ_e2_H_M_2_.csv

>>> END FOREACH

>>> END FOREACH

>>> END FOREACH

>>> EXPORT k = 3

>>> EXPORT i = B

>>> EXPORT j = P

>>> IF (-FILE GMJ_e2_${i}_${j}_${k}_.csv)

>>> COPY /lustre/isaac/scratch/gjones39/ANO-RCC-VTZP/ozone_140.00/3189852/GMJ_RHS_B_P_3_.csv /lustre/isaac/scratch/gjones39/ANO-RCC-VTZP/ozone_140.00/GMJ_RHS_B_P_3_.csv

>>> COPY /lustre/isaac/scratch/gjones39/ANO-RCC-VTZP/ozone_140.00/3189852/GMJ_IVECW_B_P_3_.csv /lustre/isaac/scratch/gjones39/ANO-RCC-VTZP/ozone_140.00/GMJ_IVECW_B_P_3_.csv

>>> COPY /lustre/isaac/scratch/gjones39/ANO-RCC-VTZP/ozone_140.00/3189852/GMJ_IVECX_B_P_3_.csv /lustre/isaac/scratch/gjones39/ANO-RCC-VTZP/ozone_140.00/GMJ_IVECX_B_P_3_.csv

>>> COPY /lustre/isaac/scratch/gjones39/ANO-RCC-VTZP/ozone_140.00/3189852/GMJ_IVECC2_B_P_3_.csv /lustre/isaac/scratch/gjones39/ANO-RCC-VTZP/ozone_140.00/GMJ_IVECC2_B_P_3_.csv

>>> COPY /lustre/isaac/scratch/gjones39/ANO-RCC-VTZP/ozone_140.00/3189852/GMJ_e2_B_P_3_.csv /lustre/isaac/scratch/gjones39/ANO-RCC-VTZP/ozone_140.00/GMJ_e2_B_P_3_.csv

>>> END FOREACH

>>> EXPORT j = M

>>> IF (-FILE GMJ_e2_${i}_${j}_${k}_.csv)

>>> COPY /lustre/isaac/scratch/gjones39/ANO-RCC-VTZP/ozone_140.00/3189852/GMJ_RHS_B_M_3_.csv /lustre/isaac/scratch/gjones39/ANO-RCC-VTZP/ozone_140.00/GMJ_RHS_B_M_3_.csv

>>> COPY /lustre/isaac/scratch/gjones39/ANO-RCC-VTZP/ozone_140.00/3189852/GMJ_IVECW_B_M_3_.csv /lustre/isaac/scratch/gjones39/ANO-RCC-VTZP/ozone_140.00/GMJ_IVECW_B_M_3_.csv

>>> COPY /lustre/isaac/scratch/gjones39/ANO-RCC-VTZP/ozone_140.00/3189852/GMJ_IVECX_B_M_3_.csv /lustre/isaac/scratch/gjones39/ANO-RCC-VTZP/ozone_140.00/GMJ_IVECX_B_M_3_.csv

>>> COPY /lustre/isaac/scratch/gjones39/ANO-RCC-VTZP/ozone_140.00/3189852/GMJ_IVECC2_B_M_3_.csv /lustre/isaac/scratch/gjones39/ANO-RCC-VTZP/ozone_140.00/GMJ_IVECC2_B_M_3_.csv

>>> COPY /lustre/isaac/scratch/gjones39/ANO-RCC-VTZP/ozone_140.00/3189852/GMJ_e2_B_M_3_.csv /lustre/isaac/scratch/gjones39/ANO-RCC-VTZP/ozone_140.00/GMJ_e2_B_M_3_.csv

>>> END FOREACH

>>> END FOREACH

>>> EXPORT i = E

>>> EXPORT j = P

>>> IF (-FILE GMJ_e2_${i}_${j}_${k}_.csv)

>>> COPY /lustre/isaac/scratch/gjones39/ANO-RCC-VTZP/ozone_140.00/3189852/GMJ_RHS_E_P_3_.csv /lustre/isaac/scratch/gjones39/ANO-RCC-VTZP/ozone_140.00/GMJ_RHS_E_P_3_.csv

>>> COPY /lustre/isaac/scratch/gjones39/ANO-RCC-VTZP/ozone_140.00/3189852/GMJ_IVECW_E_P_3_.csv /lustre/isaac/scratch/gjones39/ANO-RCC-VTZP/ozone_140.00/GMJ_IVECW_E_P_3_.csv

>>> COPY /lustre/isaac/scratch/gjones39/ANO-RCC-VTZP/ozone_140.00/3189852/GMJ_IVECX_E_P_3_.csv /lustre/isaac/scratch/gjones39/ANO-RCC-VTZP/ozone_140.00/GMJ_IVECX_E_P_3_.csv

>>> COPY /lustre/isaac/scratch/gjones39/ANO-RCC-VTZP/ozone_140.00/3189852/GMJ_IVECC2_E_P_3_.csv /lustre/isaac/scratch/gjones39/ANO-RCC-VTZP/ozone_140.00/GMJ_IVECC2_E_P_3_.csv

>>> COPY /lustre/isaac/scratch/gjones39/ANO-RCC-VTZP/ozone_140.00/3189852/GMJ_e2_E_P_3_.csv /lustre/isaac/scratch/gjones39/ANO-RCC-VTZP/ozone_140.00/GMJ_e2_E_P_3_.csv

>>> END FOREACH

>>> EXPORT j = M

>>> IF (-FILE GMJ_e2_${i}_${j}_${k}_.csv)

>>> COPY /lustre/isaac/scratch/gjones39/ANO-RCC-VTZP/ozone_140.00/3189852/GMJ_RHS_E_M_3_.csv /lustre/isaac/scratch/gjones39/ANO-RCC-VTZP/ozone_140.00/GMJ_RHS_E_M_3_.csv

>>> COPY /lustre/isaac/scratch/gjones39/ANO-RCC-VTZP/ozone_140.00/3189852/GMJ_IVECW_E_M_3_.csv /lustre/isaac/scratch/gjones39/ANO-RCC-VTZP/ozone_140.00/GMJ_IVECW_E_M_3_.csv

>>> COPY /lustre/isaac/scratch/gjones39/ANO-RCC-VTZP/ozone_140.00/3189852/GMJ_IVECX_E_M_3_.csv /lustre/isaac/scratch/gjones39/ANO-RCC-VTZP/ozone_140.00/GMJ_IVECX_E_M_3_.csv

>>> COPY /lustre/isaac/scratch/gjones39/ANO-RCC-VTZP/ozone_140.00/3189852/GMJ_IVECC2_E_M_3_.csv /lustre/isaac/scratch/gjones39/ANO-RCC-VTZP/ozone_140.00/GMJ_IVECC2_E_M_3_.csv

>>> COPY /lustre/isaac/scratch/gjones39/ANO-RCC-VTZP/ozone_140.00/3189852/GMJ_e2_E_M_3_.csv /lustre/isaac/scratch/gjones39/ANO-RCC-VTZP/ozone_140.00/GMJ_e2_E_M_3_.csv

>>> END FOREACH

>>> END FOREACH

>>> EXPORT i = F

>>> EXPORT j = P

>>> IF (-FILE GMJ_e2_${i}_${j}_${k}_.csv)

>>> COPY /lustre/isaac/scratch/gjones39/ANO-RCC-VTZP/ozone_140.00/3189852/GMJ_RHS_F_P_3_.csv /lustre/isaac/scratch/gjones39/ANO-RCC-VTZP/ozone_140.00/GMJ_RHS_F_P_3_.csv

>>> COPY /lustre/isaac/scratch/gjones39/ANO-RCC-VTZP/ozone_140.00/3189852/GMJ_IVECW_F_P_3_.csv /lustre/isaac/scratch/gjones39/ANO-RCC-VTZP/ozone_140.00/GMJ_IVECW_F_P_3_.csv

>>> COPY /lustre/isaac/scratch/gjones39/ANO-RCC-VTZP/ozone_140.00/3189852/GMJ_IVECX_F_P_3_.csv /lustre/isaac/scratch/gjones39/ANO-RCC-VTZP/ozone_140.00/GMJ_IVECX_F_P_3_.csv

>>> COPY /lustre/isaac/scratch/gjones39/ANO-RCC-VTZP/ozone_140.00/3189852/GMJ_IVECC2_F_P_3_.csv /lustre/isaac/scratch/gjones39/ANO-RCC-VTZP/ozone_140.00/GMJ_IVECC2_F_P_3_.csv

>>> COPY /lustre/isaac/scratch/gjones39/ANO-RCC-VTZP/ozone_140.00/3189852/GMJ_e2_F_P_3_.csv /lustre/isaac/scratch/gjones39/ANO-RCC-VTZP/ozone_140.00/GMJ_e2_F_P_3_.csv

>>> END FOREACH

>>> EXPORT j = M

>>> IF (-FILE GMJ_e2_${i}_${j}_${k}_.csv)

>>> COPY /lustre/isaac/scratch/gjones39/ANO-RCC-VTZP/ozone_140.00/3189852/GMJ_RHS_F_M_3_.csv /lustre/isaac/scratch/gjones39/ANO-RCC-VTZP/ozone_140.00/GMJ_RHS_F_M_3_.csv

>>> COPY /lustre/isaac/scratch/gjones39/ANO-RCC-VTZP/ozone_140.00/3189852/GMJ_IVECW_F_M_3_.csv /lustre/isaac/scratch/gjones39/ANO-RCC-VTZP/ozone_140.00/GMJ_IVECW_F_M_3_.csv

>>> COPY /lustre/isaac/scratch/gjones39/ANO-RCC-VTZP/ozone_140.00/3189852/GMJ_IVECX_F_M_3_.csv /lustre/isaac/scratch/gjones39/ANO-RCC-VTZP/ozone_140.00/GMJ_IVECX_F_M_3_.csv

>>> COPY /lustre/isaac/scratch/gjones39/ANO-RCC-VTZP/ozone_140.00/3189852/GMJ_IVECC2_F_M_3_.csv /lustre/isaac/scratch/gjones39/ANO-RCC-VTZP/ozone_140.00/GMJ_IVECC2_F_M_3_.csv

>>> COPY /lustre/isaac/scratch/gjones39/ANO-RCC-VTZP/ozone_140.00/3189852/GMJ_e2_F_M_3_.csv /lustre/isaac/scratch/gjones39/ANO-RCC-VTZP/ozone_140.00/GMJ_e2_F_M_3_.csv

>>> END FOREACH

>>> END FOREACH

>>> EXPORT i = G

>>> EXPORT j = P

>>> IF (-FILE GMJ_e2_${i}_${j}_${k}_.csv)

>>> COPY /lustre/isaac/scratch/gjones39/ANO-RCC-VTZP/ozone_140.00/3189852/GMJ_RHS_G_P_3_.csv /lustre/isaac/scratch/gjones39/ANO-RCC-VTZP/ozone_140.00/GMJ_RHS_G_P_3_.csv

>>> COPY /lustre/isaac/scratch/gjones39/ANO-RCC-VTZP/ozone_140.00/3189852/GMJ_IVECW_G_P_3_.csv /lustre/isaac/scratch/gjones39/ANO-RCC-VTZP/ozone_140.00/GMJ_IVECW_G_P_3_.csv

>>> COPY /lustre/isaac/scratch/gjones39/ANO-RCC-VTZP/ozone_140.00/3189852/GMJ_IVECX_G_P_3_.csv /lustre/isaac/scratch/gjones39/ANO-RCC-VTZP/ozone_140.00/GMJ_IVECX_G_P_3_.csv

>>> COPY /lustre/isaac/scratch/gjones39/ANO-RCC-VTZP/ozone_140.00/3189852/GMJ_IVECC2_G_P_3_.csv /lustre/isaac/scratch/gjones39/ANO-RCC-VTZP/ozone_140.00/GMJ_IVECC2_G_P_3_.csv

>>> COPY /lustre/isaac/scratch/gjones39/ANO-RCC-VTZP/ozone_140.00/3189852/GMJ_e2_G_P_3_.csv /lustre/isaac/scratch/gjones39/ANO-RCC-VTZP/ozone_140.00/GMJ_e2_G_P_3_.csv

>>> END FOREACH

>>> EXPORT j = M

>>> IF (-FILE GMJ_e2_${i}_${j}_${k}_.csv)

>>> COPY /lustre/isaac/scratch/gjones39/ANO-RCC-VTZP/ozone_140.00/3189852/GMJ_RHS_G_M_3_.csv /lustre/isaac/scratch/gjones39/ANO-RCC-VTZP/ozone_140.00/GMJ_RHS_G_M_3_.csv

>>> COPY /lustre/isaac/scratch/gjones39/ANO-RCC-VTZP/ozone_140.00/3189852/GMJ_IVECW_G_M_3_.csv /lustre/isaac/scratch/gjones39/ANO-RCC-VTZP/ozone_140.00/GMJ_IVECW_G_M_3_.csv

>>> COPY /lustre/isaac/scratch/gjones39/ANO-RCC-VTZP/ozone_140.00/3189852/GMJ_IVECX_G_M_3_.csv /lustre/isaac/scratch/gjones39/ANO-RCC-VTZP/ozone_140.00/GMJ_IVECX_G_M_3_.csv

>>> COPY /lustre/isaac/scratch/gjones39/ANO-RCC-VTZP/ozone_140.00/3189852/GMJ_IVECC2_G_M_3_.csv /lustre/isaac/scratch/gjones39/ANO-RCC-VTZP/ozone_140.00/GMJ_IVECC2_G_M_3_.csv

>>> COPY /lustre/isaac/scratch/gjones39/ANO-RCC-VTZP/ozone_140.00/3189852/GMJ_e2_G_M_3_.csv /lustre/isaac/scratch/gjones39/ANO-RCC-VTZP/ozone_140.00/GMJ_e2_G_M_3_.csv

>>> END FOREACH

>>> END FOREACH

>>> EXPORT i = H

>>> EXPORT j = P

>>> IF (-FILE GMJ_e2_${i}_${j}_${k}_.csv)

>>> COPY /lustre/isaac/scratch/gjones39/ANO-RCC-VTZP/ozone_140.00/3189852/GMJ_RHS_H_P_3_.csv /lustre/isaac/scratch/gjones39/ANO-RCC-VTZP/ozone_140.00/GMJ_RHS_H_P_3_.csv

>>> COPY /lustre/isaac/scratch/gjones39/ANO-RCC-VTZP/ozone_140.00/3189852/GMJ_IVECW_H_P_3_.csv /lustre/isaac/scratch/gjones39/ANO-RCC-VTZP/ozone_140.00/GMJ_IVECW_H_P_3_.csv

>>> COPY /lustre/isaac/scratch/gjones39/ANO-RCC-VTZP/ozone_140.00/3189852/GMJ_IVECX_H_P_3_.csv /lustre/isaac/scratch/gjones39/ANO-RCC-VTZP/ozone_140.00/GMJ_IVECX_H_P_3_.csv

>>> COPY /lustre/isaac/scratch/gjones39/ANO-RCC-VTZP/ozone_140.00/3189852/GMJ_IVECC2_H_P_3_.csv /lustre/isaac/scratch/gjones39/ANO-RCC-VTZP/ozone_140.00/GMJ_IVECC2_H_P_3_.csv

>>> COPY /lustre/isaac/scratch/gjones39/ANO-RCC-VTZP/ozone_140.00/3189852/GMJ_e2_H_P_3_.csv /lustre/isaac/scratch/gjones39/ANO-RCC-VTZP/ozone_140.00/GMJ_e2_H_P_3_.csv

>>> END FOREACH

>>> EXPORT j = M

>>> IF (-FILE GMJ_e2_${i}_${j}_${k}_.csv)

>>> COPY /lustre/isaac/scratch/gjones39/ANO-RCC-VTZP/ozone_140.00/3189852/GMJ_RHS_H_M_3_.csv /lustre/isaac/scratch/gjones39/ANO-RCC-VTZP/ozone_140.00/GMJ_RHS_H_M_3_.csv

>>> COPY /lustre/isaac/scratch/gjones39/ANO-RCC-VTZP/ozone_140.00/3189852/GMJ_IVECW_H_M_3_.csv /lustre/isaac/scratch/gjones39/ANO-RCC-VTZP/ozone_140.00/GMJ_IVECW_H_M_3_.csv

>>> COPY /lustre/isaac/scratch/gjones39/ANO-RCC-VTZP/ozone_140.00/3189852/GMJ_IVECX_H_M_3_.csv /lustre/isaac/scratch/gjones39/ANO-RCC-VTZP/ozone_140.00/GMJ_IVECX_H_M_3_.csv

>>> COPY /lustre/isaac/scratch/gjones39/ANO-RCC-VTZP/ozone_140.00/3189852/GMJ_IVECC2_H_M_3_.csv /lustre/isaac/scratch/gjones39/ANO-RCC-VTZP/ozone_140.00/GMJ_IVECC2_H_M_3_.csv

>>> COPY /lustre/isaac/scratch/gjones39/ANO-RCC-VTZP/ozone_140.00/3189852/GMJ_e2_H_M_3_.csv /lustre/isaac/scratch/gjones39/ANO-RCC-VTZP/ozone_140.00/GMJ_e2_H_M_3_.csv

>>> END FOREACH

>>> END FOREACH

>>> END FOREACH

>>> EXPORT j = 1

>>> EXPORT i = A

>>> IF (-FILE GMJ_e2_${i}_${j}_.csv)

>>> COPY /lustre/isaac/scratch/gjones39/ANO-RCC-VTZP/ozone_140.00/3189852/GMJ_RHS_A_1_.csv /lustre/isaac/scratch/gjones39/ANO-RCC-VTZP/ozone_140.00/GMJ_RHS_A_1_.csv

>>> COPY /lustre/isaac/scratch/gjones39/ANO-RCC-VTZP/ozone_140.00/3189852/GMJ_IVECW_A_1_.csv /lustre/isaac/scratch/gjones39/ANO-RCC-VTZP/ozone_140.00/GMJ_IVECW_A_1_.csv

>>> COPY /lustre/isaac/scratch/gjones39/ANO-RCC-VTZP/ozone_140.00/3189852/GMJ_IVECX_A_1_.csv /lustre/isaac/scratch/gjones39/ANO-RCC-VTZP/ozone_140.00/GMJ_IVECX_A_1_.csv

>>> COPY /lustre/isaac/scratch/gjones39/ANO-RCC-VTZP/ozone_140.00/3189852/GMJ_IVECC2_A_1_.csv /lustre/isaac/scratch/gjones39/ANO-RCC-VTZP/ozone_140.00/GMJ_IVECC2_A_1_.csv

>>> COPY /lustre/isaac/scratch/gjones39/ANO-RCC-VTZP/ozone_140.00/3189852/GMJ_e2_A_1_.csv /lustre/isaac/scratch/gjones39/ANO-RCC-VTZP/ozone_140.00/GMJ_e2_A_1_.csv

>>> END FOREACH

>>> EXPORT i = C

>>> IF (-FILE GMJ_e2_${i}_${j}_.csv)

>>> COPY /lustre/isaac/scratch/gjones39/ANO-RCC-VTZP/ozone_140.00/3189852/GMJ_RHS_C_1_.csv /lustre/isaac/scratch/gjones39/ANO-RCC-VTZP/ozone_140.00/GMJ_RHS_C_1_.csv

>>> COPY /lustre/isaac/scratch/gjones39/ANO-RCC-VTZP/ozone_140.00/3189852/GMJ_IVECW_C_1_.csv /lustre/isaac/scratch/gjones39/ANO-RCC-VTZP/ozone_140.00/GMJ_IVECW_C_1_.csv

>>> COPY /lustre/isaac/scratch/gjones39/ANO-RCC-VTZP/ozone_140.00/3189852/GMJ_IVECX_C_1_.csv /lustre/isaac/scratch/gjones39/ANO-RCC-VTZP/ozone_140.00/GMJ_IVECX_C_1_.csv

>>> COPY /lustre/isaac/scratch/gjones39/ANO-RCC-VTZP/ozone_140.00/3189852/GMJ_IVECC2_C_1_.csv /lustre/isaac/scratch/gjones39/ANO-RCC-VTZP/ozone_140.00/GMJ_IVECC2_C_1_.csv

>>> COPY /lustre/isaac/scratch/gjones39/ANO-RCC-VTZP/ozone_140.00/3189852/GMJ_e2_C_1_.csv /lustre/isaac/scratch/gjones39/ANO-RCC-VTZP/ozone_140.00/GMJ_e2_C_1_.csv

>>> END FOREACH

>>> EXPORT i = D

>>> IF (-FILE GMJ_e2_${i}_${j}_.csv)

>>> COPY /lustre/isaac/scratch/gjones39/ANO-RCC-VTZP/ozone_140.00/3189852/GMJ_RHS_D_1_.csv /lustre/isaac/scratch/gjones39/ANO-RCC-VTZP/ozone_140.00/GMJ_RHS_D_1_.csv

>>> COPY /lustre/isaac/scratch/gjones39/ANO-RCC-VTZP/ozone_140.00/3189852/GMJ_IVECW_D_1_.csv /lustre/isaac/scratch/gjones39/ANO-RCC-VTZP/ozone_140.00/GMJ_IVECW_D_1_.csv

>>> COPY /lustre/isaac/scratch/gjones39/ANO-RCC-VTZP/ozone_140.00/3189852/GMJ_IVECX_D_1_.csv /lustre/isaac/scratch/gjones39/ANO-RCC-VTZP/ozone_140.00/GMJ_IVECX_D_1_.csv

>>> COPY /lustre/isaac/scratch/gjones39/ANO-RCC-VTZP/ozone_140.00/3189852/GMJ_IVECC2_D_1_.csv /lustre/isaac/scratch/gjones39/ANO-RCC-VTZP/ozone_140.00/GMJ_IVECC2_D_1_.csv

>>> COPY /lustre/isaac/scratch/gjones39/ANO-RCC-VTZP/ozone_140.00/3189852/GMJ_e2_D_1_.csv /lustre/isaac/scratch/gjones39/ANO-RCC-VTZP/ozone_140.00/GMJ_e2_D_1_.csv

>>> END FOREACH

>>> END FOREACH

>>> EXPORT j = 2

>>> EXPORT i = A

>>> IF (-FILE GMJ_e2_${i}_${j}_.csv)

>>> COPY /lustre/isaac/scratch/gjones39/ANO-RCC-VTZP/ozone_140.00/3189852/GMJ_RHS_A_2_.csv /lustre/isaac/scratch/gjones39/ANO-RCC-VTZP/ozone_140.00/GMJ_RHS_A_2_.csv

>>> COPY /lustre/isaac/scratch/gjones39/ANO-RCC-VTZP/ozone_140.00/3189852/GMJ_IVECW_A_2_.csv /lustre/isaac/scratch/gjones39/ANO-RCC-VTZP/ozone_140.00/GMJ_IVECW_A_2_.csv

>>> COPY /lustre/isaac/scratch/gjones39/ANO-RCC-VTZP/ozone_140.00/3189852/GMJ_IVECX_A_2_.csv /lustre/isaac/scratch/gjones39/ANO-RCC-VTZP/ozone_140.00/GMJ_IVECX_A_2_.csv

>>> COPY /lustre/isaac/scratch/gjones39/ANO-RCC-VTZP/ozone_140.00/3189852/GMJ_IVECC2_A_2_.csv /lustre/isaac/scratch/gjones39/ANO-RCC-VTZP/ozone_140.00/GMJ_IVECC2_A_2_.csv

>>> COPY /lustre/isaac/scratch/gjones39/ANO-RCC-VTZP/ozone_140.00/3189852/GMJ_e2_A_2_.csv /lustre/isaac/scratch/gjones39/ANO-RCC-VTZP/ozone_140.00/GMJ_e2_A_2_.csv

>>> END FOREACH

>>> EXPORT i = C

>>> IF (-FILE GMJ_e2_${i}_${j}_.csv)

>>> COPY /lustre/isaac/scratch/gjones39/ANO-RCC-VTZP/ozone_140.00/3189852/GMJ_RHS_C_2_.csv /lustre/isaac/scratch/gjones39/ANO-RCC-VTZP/ozone_140.00/GMJ_RHS_C_2_.csv

>>> COPY /lustre/isaac/scratch/gjones39/ANO-RCC-VTZP/ozone_140.00/3189852/GMJ_IVECW_C_2_.csv /lustre/isaac/scratch/gjones39/ANO-RCC-VTZP/ozone_140.00/GMJ_IVECW_C_2_.csv

>>> COPY /lustre/isaac/scratch/gjones39/ANO-RCC-VTZP/ozone_140.00/3189852/GMJ_IVECX_C_2_.csv /lustre/isaac/scratch/gjones39/ANO-RCC-VTZP/ozone_140.00/GMJ_IVECX_C_2_.csv

>>> COPY /lustre/isaac/scratch/gjones39/ANO-RCC-VTZP/ozone_140.00/3189852/GMJ_IVECC2_C_2_.csv /lustre/isaac/scratch/gjones39/ANO-RCC-VTZP/ozone_140.00/GMJ_IVECC2_C_2_.csv

>>> COPY /lustre/isaac/scratch/gjones39/ANO-RCC-VTZP/ozone_140.00/3189852/GMJ_e2_C_2_.csv /lustre/isaac/scratch/gjones39/ANO-RCC-VTZP/ozone_140.00/GMJ_e2_C_2_.csv

>>> END FOREACH

>>> EXPORT i = D

>>> IF (-FILE GMJ_e2_${i}_${j}_.csv)

>>> COPY /lustre/isaac/scratch/gjones39/ANO-RCC-VTZP/ozone_140.00/3189852/GMJ_RHS_D_2_.csv /lustre/isaac/scratch/gjones39/ANO-RCC-VTZP/ozone_140.00/GMJ_RHS_D_2_.csv

>>> COPY /lustre/isaac/scratch/gjones39/ANO-RCC-VTZP/ozone_140.00/3189852/GMJ_IVECW_D_2_.csv /lustre/isaac/scratch/gjones39/ANO-RCC-VTZP/ozone_140.00/GMJ_IVECW_D_2_.csv

>>> COPY /lustre/isaac/scratch/gjones39/ANO-RCC-VTZP/ozone_140.00/3189852/GMJ_IVECX_D_2_.csv /lustre/isaac/scratch/gjones39/ANO-RCC-VTZP/ozone_140.00/GMJ_IVECX_D_2_.csv

>>> COPY /lustre/isaac/scratch/gjones39/ANO-RCC-VTZP/ozone_140.00/3189852/GMJ_IVECC2_D_2_.csv /lustre/isaac/scratch/gjones39/ANO-RCC-VTZP/ozone_140.00/GMJ_IVECC2_D_2_.csv

>>> COPY /lustre/isaac/scratch/gjones39/ANO-RCC-VTZP/ozone_140.00/3189852/GMJ_e2_D_2_.csv /lustre/isaac/scratch/gjones39/ANO-RCC-VTZP/ozone_140.00/GMJ_e2_D_2_.csv

>>> END FOREACH

>>> END FOREACH

>>> EXPORT j = 3

>>> EXPORT i = A

>>> IF (-FILE GMJ_e2_${i}_${j}_.csv)

>>> COPY /lustre/isaac/scratch/gjones39/ANO-RCC-VTZP/ozone_140.00/3189852/GMJ_RHS_A_3_.csv /lustre/isaac/scratch/gjones39/ANO-RCC-VTZP/ozone_140.00/GMJ_RHS_A_3_.csv

>>> COPY /lustre/isaac/scratch/gjones39/ANO-RCC-VTZP/ozone_140.00/3189852/GMJ_IVECW_A_3_.csv /lustre/isaac/scratch/gjones39/ANO-RCC-VTZP/ozone_140.00/GMJ_IVECW_A_3_.csv

>>> COPY /lustre/isaac/scratch/gjones39/ANO-RCC-VTZP/ozone_140.00/3189852/GMJ_IVECX_A_3_.csv /lustre/isaac/scratch/gjones39/ANO-RCC-VTZP/ozone_140.00/GMJ_IVECX_A_3_.csv

>>> COPY /lustre/isaac/scratch/gjones39/ANO-RCC-VTZP/ozone_140.00/3189852/GMJ_IVECC2_A_3_.csv /lustre/isaac/scratch/gjones39/ANO-RCC-VTZP/ozone_140.00/GMJ_IVECC2_A_3_.csv

>>> COPY /lustre/isaac/scratch/gjones39/ANO-RCC-VTZP/ozone_140.00/3189852/GMJ_e2_A_3_.csv /lustre/isaac/scratch/gjones39/ANO-RCC-VTZP/ozone_140.00/GMJ_e2_A_3_.csv

>>> END FOREACH

>>> EXPORT i = C

>>> IF (-FILE GMJ_e2_${i}_${j}_.csv)

>>> COPY /lustre/isaac/scratch/gjones39/ANO-RCC-VTZP/ozone_140.00/3189852/GMJ_RHS_C_3_.csv /lustre/isaac/scratch/gjones39/ANO-RCC-VTZP/ozone_140.00/GMJ_RHS_C_3_.csv

>>> COPY /lustre/isaac/scratch/gjones39/ANO-RCC-VTZP/ozone_140.00/3189852/GMJ_IVECW_C_3_.csv /lustre/isaac/scratch/gjones39/ANO-RCC-VTZP/ozone_140.00/GMJ_IVECW_C_3_.csv

>>> COPY /lustre/isaac/scratch/gjones39/ANO-RCC-VTZP/ozone_140.00/3189852/GMJ_IVECX_C_3_.csv /lustre/isaac/scratch/gjones39/ANO-RCC-VTZP/ozone_140.00/GMJ_IVECX_C_3_.csv

>>> COPY /lustre/isaac/scratch/gjones39/ANO-RCC-VTZP/ozone_140.00/3189852/GMJ_IVECC2_C_3_.csv /lustre/isaac/scratch/gjones39/ANO-RCC-VTZP/ozone_140.00/GMJ_IVECC2_C_3_.csv

>>> COPY /lustre/isaac/scratch/gjones39/ANO-RCC-VTZP/ozone_140.00/3189852/GMJ_e2_C_3_.csv /lustre/isaac/scratch/gjones39/ANO-RCC-VTZP/ozone_140.00/GMJ_e2_C_3_.csv

>>> END FOREACH

>>> EXPORT i = D

>>> IF (-FILE GMJ_e2_${i}_${j}_.csv)

>>> COPY /lustre/isaac/scratch/gjones39/ANO-RCC-VTZP/ozone_140.00/3189852/GMJ_RHS_D_3_.csv /lustre/isaac/scratch/gjones39/ANO-RCC-VTZP/ozone_140.00/GMJ_RHS_D_3_.csv

>>> COPY /lustre/isaac/scratch/gjones39/ANO-RCC-VTZP/ozone_140.00/3189852/GMJ_IVECW_D_3_.csv /lustre/isaac/scratch/gjones39/ANO-RCC-VTZP/ozone_140.00/GMJ_IVECW_D_3_.csv

>>> COPY /lustre/isaac/scratch/gjones39/ANO-RCC-VTZP/ozone_140.00/3189852/GMJ_IVECX_D_3_.csv /lustre/isaac/scratch/gjones39/ANO-RCC-VTZP/ozone_140.00/GMJ_IVECX_D_3_.csv

>>> COPY /lustre/isaac/scratch/gjones39/ANO-RCC-VTZP/ozone_140.00/3189852/GMJ_IVECC2_D_3_.csv /lustre/isaac/scratch/gjones39/ANO-RCC-VTZP/ozone_140.00/GMJ_IVECC2_D_3_.csv

>>> COPY /lustre/isaac/scratch/gjones39/ANO-RCC-VTZP/ozone_140.00/3189852/GMJ_e2_D_3_.csv /lustre/isaac/scratch/gjones39/ANO-RCC-VTZP/ozone_140.00/GMJ_e2_D_3_.csv

>>> END FOREACH

>>> END FOREACH

    Timing: Wall=119.43 User=44.09 System=21.46
*******************************************************************************************
*** WorkDir at /lustre/isaac/scratch/gjones39/ANO-RCC-VTZP/ozone_140.00/3189852 cleaned ***
*******************************************************************************************
