********************************************************************************
*** WorkDir at /lustre/isaac/proj/UTK0022/GMJ/DDCASPT2/ozone/1207663 cleaned ***
********************************************************************************
   This run of MOLCAS is using the pymolcas driver

                             OPE
                             OPE          NMOL  CASOP  ENMOLC A   SO
                 OPE        NMOLC        AS  OP EN  MO LC     AS  OP
                OPENM       OL CA        SO  PE NM  OL CA     SOP EN
                OP EN      MO   LC       AS  OP ENMOL  CASO   PENMOL
                OP  EN     MO   LC       AS  OP EN     MO     LC ASO
               OP   E  NMOL  C  AS       OP  EN MO     LC     AS  OP
               OP  E   NMO   LC AS        OPEN  MO     LCASOP EN   M
               O  PEN   MO  LCA  SO
            OPE   NMO   L   CAS    OP
        OPENMOL  CASOP     ENMOL   CASOPE
     OPENMOLCA   SOPENMOLCASOPEN   MOLCASOPE
    OPENMOLCAS   OP           EN   MOL    CAS
    OPENMOLCAS       OP  ENM        O     LCA
    OPENMOLCAS    OPEN  MOLCASO     P  E  NMO
    OPENMOLCAS     OP               E  N  MOL
    OPENMOLCA   SO           PENM   O  L  CAS    OPEN    MO    LCAS
    OPENMOLCA   SOP           ENM   O  L  CAS   OP  EN  MOLC  AS   O
    OPENMOLCA   SOPE           NM      O  LCA   S      OP  EN MO
    OPENMOLC                AS         O  PEN   M      OL  CA  SOPE
    OPENMO        LCASOPE  NMOL        C  ASO   P      ENMOLC     AS
    OPE     NMO      LCA  SO     P     E   NM   OL  CA SO  PE N   MO
          OPENMOLCA            SOPE   NMO        LCAS  O    P  ENMO
     OPENMOLCASOPENMOLCASOPENMOLCASOPENMOLCA
        OPENMOLCASOPENMOLCASOPENMOLCASOPE
            OPENMOLCASOPENMOLCASOPENM
               OPENMOLCASOPENMOLCA        version: 44d3b5344-dirty
                   OPENMOLCASO
                       OPE                tag:

 OpenMolcas is free software; you can redistribute it and/or modify it
 under the terms of the GNU Lesser General Public License version 2.1.
 OpenMolcas is distributed in the hope that it will be useful, but it
 is provided "as is" and without any express or implied warranties.
 For more details see the full text of the license in the file
 LICENSE or in <http://www.gnu.org/licenses/>.

                 Copyright (C) The OpenMolcas Authors
           For the author list and the recommended citation,
                   consult the file CONTRIBUTORS.md

           *************************************************
           * pymolcas version py2.05                       *
           *   build c53fbf9a0f911de0c7c16766b0715e61      *
           *   (after the EMIL interpreter by V. Veryazov) *
           *************************************************

configuration info
------------------
C Compiler ID: GNU
C flags: -std=gnu99
Fortran Compiler ID: GNU
Fortran flags: -cpp -fno-aggressive-loop-optimizations -fdefault-integer-8
Definitions: _MOLCAS_;_I8_;_LINUX_
Parallel: OFF (GA=OFF)


   ------------------------------------------------------------------------------
  |
  |              Project: O3_161
  |       Submitted from: /lustre/isaac/proj/UTK0022/GMJ/DDCASPT2/ozone/O3/O3_161
  |         Scratch area: /lustre/isaac/proj/UTK0022/GMJ/DDCASPT2/ozone/1207663
  |      Save outputs to: /lustre/isaac/proj/UTK0022/GMJ/DDCASPT2/ozone/O3/O3_161
  |               Molcas: /lustre/isaac/proj/UTK0022/GMJ/OpenMolcas/build
  |
  | Scratch area is empty
  |
  |       MOLCAS_DRIVER = /nfs/home/gjones39/bin/pymolcas
  | MOLCAS_KEEP_WORKDIR = NO
  |  MOLCAS_NEW_WORKDIR = YES
  |       MOLCAS_NPROCS = 1
  |       MOLCAS_SOURCE = /lustre/isaac/proj/UTK0022/GMJ/OpenMolcas
  |    MOLCAS_STRUCTURE = 0
  |
   ------------------------------------------------------------------------------

++ ---------   Input file   ---------

&GATEWAY
coord=O3_161.xyz
Basis = ANO-RCC-VDZP
Group = nosymm
Expert
End of Input

&SEWARD
End of Input

&MOTRA
Frozen=0

>>> COPY $WorkDir/GMJ_one_int_indx.csv $CurrDir/O3_161.GMJ_one_int_indx.csv

>>> COPY $WorkDir/GMJ_one_int.csv $CurrDir/O3_161.GMJ_one_int.csv

>>> COPY $WorkDir/GMJ_two_int_indx.csv $CurrDir/O3_161.GMJ_two_int_indx.csv

>>> COPY $WorkDir/GMJ_two_int.csv $CurrDir/O3_161.GMJ_two_int.csv

&SCF

>>> COPY $WorkDir/O3_161.scf.h5 $CurrDir/

&RASSCF
Title= RASSCF
FileOrb
/lustre/isaac/proj/UTK0022/GMJ/DDCASPT2/ozone/O3/O3_160/O3_160.RasOrb

NACTEL
4 0 0
Inactive
10
RAS2
3
Symmetry
1
Spin
1
orblisting
all
ITERation
200 100
CIMX
200
SDAV
500
PRWF
0
PRSD

>>> COPY $WorkDir/O3_161.rasscf.h5 $CurrDir/

>>> COPY $WorkDir/GMJ_Fock_MO.csv $CurrDir/O3_161.GMJ_Fock_MO.csv

&CASPT2
Frozen
0
Imaginary Shift
0.0

>>> FOREACH i IN (B,E,F,G,H)

  >>> FOREACH j IN (P,M)

    >>> IF (-FILE GMJ_e2_${i}_${j}.csv)

      >>> COPY $WorkDir/GMJ_RHS_${i}_${j}.csv $CurrDir/GMJ_RHS_${i}_${j}.csv

      >>> COPY $WorkDir/GMJ_IVECW_${i}_${j}.csv $CurrDir/GMJ_IVECW_${i}_${j}.csv

      >>> COPY $WorkDir/GMJ_e2_${i}_${j}.csv $CurrDir/GMJ_e2_${i}_${j}.csv

    >>> END IF

  >>> END FOREACH

>>> END FOREACH

>>> FOREACH i IN (A,C,D)

  >>> IF (-FILE GMJ_e2_$i.csv)

    >>> COPY $WorkDir/GMJ_RHS_$i.csv $CurrDir/GMJ_RHS_$i.csv

    >>> COPY $WorkDir/GMJ_IVECW_$i.csv $CurrDir/GMJ_IVECW_$i.csv

    >>> COPY $WorkDir/GMJ_e2_$i.csv $CurrDir/GMJ_e2_$i.csv

  >>> END IF

>>> END FOREACH

-- ----------------------------------

--- Start Module: gateway at Thu Jan 25 16:41:40 2024 ---
 
()()()()()()()()()()()()()()()()()()()()()()()()()()()()()()()()()()()()()()()()()()()()()()()()()()

                                              &GATEWAY

                                   only a single process is used
                       available to each process: 16 GB of memory, 1 thread?
()()()()()()()()()()()()()()()()()()()()()()()()()()()()()()()()()()()()()()()()()()()()()()()()()()
 
 ###############################################################################
 ###############################################################################
 ###                                                                         ###
 ###                                                                         ###
 ###                                                                         ###
 ###    WARNING: EXPERT option is ON!                                        ###
 ###                                                                         ###
 ###                                                                         ###
 ###############################################################################
 ###############################################################################
 
++    Symmetry information:
      ---------------------
 
                    Character Table for C1 
 
                             E  
                    a        1  x, y, xy, Rz, z, xz, Ry, yz, Rx, I
--
 
 
++    Basis set information:
      ----------------------
 
 
      Basis set label: O.ANO-RCC...3S2P1D.
 
      Electronic valence basis set:
      ------------------
      Associated Effective Charge   8.000000 au
      Associated Actual Charge      8.000000 au
      Nuclear Model: Point charge
 
      Shell  nPrim  nBasis  Cartesian Spherical Contaminant
         s      14       3        X                  
         p       9       2        X                  
         d       4       1                 X         
--
 
 
++    Molecular structure info:
      -------------------------
 
                    ************************************************ 
                    **** Cartesian Coordinates / Bohr, Angstrom **** 
                    ************************************************ 
 
     Center  Label                x              y              z                     x              y              z
        1      O1               0.398602       2.381949       0.000000              0.210931       1.260473       0.000000
        2      O2               0.000000       0.000000       0.000000              0.000000       0.000000       0.000000
        3      O3               0.398602      -2.381949       0.000000              0.210931      -1.260473       0.000000
 
                    *************************************** 
                    *    InterNuclear Distances / Bohr    * 
                    *************************************** 
 
               1 O1            2 O2            3 O3    
    1 O1       0.000000
    2 O2       2.415070        0.000000
    3 O3       4.763898        2.415070        0.000000
 
                    ******************************************* 
                    *    InterNuclear Distances / Angstrom    * 
                    ******************************************* 
 
               1 O1            2 O2            3 O3    
    1 O1       0.000000
    2 O2       1.278000        0.000000
    3 O3       2.520946        1.278000        0.000000
 
                    ************************************** 
                    *    Valence Bond Angles / Degree    * 
                    ************************************** 
                          Atom centers                 Phi
                      1 O1       2 O2       3 O3       161.00
--
 
 
            Nuclear Potential Energy             66.43491126 au
 
 ###############################################################################
 ###############################################################################
 ###                                                                         ###
 ###                                                                         ###
 ###    There were warnings during the execution                             ###
 ###    Please, check the output with care!                                  ###
 ###                                                                         ###
 ###                                                                         ###
 ###############################################################################
 ###############################################################################
--- Stop Module: gateway at Thu Jan 25 16:41:41 2024 /rc=_RC_ALL_IS_WELL_ ---
*** files: xmldump
    saved to directory /lustre/isaac/proj/UTK0022/GMJ/DDCASPT2/ozone/O3/O3_161
--- Module gateway spent 1 second ---

--- Start Module: seward at Thu Jan 25 16:41:41 2024 ---
 
()()()()()()()()()()()()()()()()()()()()()()()()()()()()()()()()()()()()()()()()()()()()()()()()()()

                                              &SEWARD

                                   only a single process is used
                       available to each process: 16 GB of memory, 1 thread?
()()()()()()()()()()()()()()()()()()()()()()()()()()()()()()()()()()()()()()()()()()()()()()()()()()
 
 ###############################################################################
 ###############################################################################
 ###                                                                         ###
 ###                                                                         ###
 ###                                                                         ###
 ###    WARNING: EXPERT option is ON!                                        ###
 ###                                                                         ###
 ###                                                                         ###
 ###############################################################################
 ###############################################################################
               SEWARD will generate:
                  Multipole Moment integrals up to order  2
                  Kinetic Energy integrals
                  Nuclear Attraction integrals (point charge)
                  One-Electron Hamiltonian integrals
                  Velocity integrals
                  Relativistic Douglas-Kroll-Hess integrals:
                    - Parametrization         : EXP
                    - DKH order of Hamiltonian: 2
                    - DKH order of Properties : 0
                         - multipole moment operators
                         - electric potential operators
                         - contact operators
                  Atomic mean-field integrals
                  Two-Electron Repulsion integrals
 
                   Integrals are discarded if absolute value <: 0.10E-13
                   Integral cutoff threshold is set to       <: 0.10E-15
 
            Nuclear Potential Energy             66.43491126 au
 
 
      Basis set specifications :
      Symmetry species         a  
      Basis functions           42
 
 
  Input file to MOLDEN was generated!
 
 ###############################################################################
 ###############################################################################
 ###                                                                         ###
 ###                                                                         ###
 ###    There were warnings during the execution                             ###
 ###    Please, check the output with care!                                  ###
 ###                                                                         ###
 ###                                                                         ###
 ###############################################################################
 ###############################################################################
--- Stop Module: seward at Thu Jan 25 16:41:44 2024 /rc=_RC_ALL_IS_WELL_ ---
*** files: O3_161.GssOrb O3_161.guessorb.h5 O3_161.guessorb.molden xmldump
    saved to directory /lustre/isaac/proj/UTK0022/GMJ/DDCASPT2/ozone/O3/O3_161
--- Module seward spent 2 seconds ---

*** symbolic link created: INPORB -> O3_161.GssOrb
--- Start Module: motra at Thu Jan 25 16:41:44 2024 ---
 
()()()()()()()()()()()()()()()()()()()()()()()()()()()()()()()()()()()()()()()()()()()()()()()()()()

                                               &MOTRA

                                   only a single process is used
                       available to each process: 16 GB of memory, 1 thread?
()()()()()()()()()()()()()()()()()()()()()()()()()()()()()()()()()()()()()()()()()()()()()()()()()()
 
 
      *** WARNING: Default frozen orbitals is overwritten by user input.
      *** Default values:   3
 
      Header of the integral files:
      
       Integrals generated by seward 4.2.0  , Thu Jan 25 16:41:42 2024
 
 
      Header of MO coefficients source file:
      *Guess orbitals                                                                 
 
 
      Cartesian coordinates in Angstrom:
      -----------------------------------------------------
      No.  Label        X            Y            Z        
      -----------------------------------------------------
       1   O1         0.21093100   1.26047300   0.00000000
       2   O2         0.00000000   0.00000000   0.00000000
       3   O3         0.21093100  -1.26047300   0.00000000
      -----------------------------------------------------
      Nuclear repulsion energy =   66.43491126
 
      Orbital specifications:
      -----------------------
 
      Symmetry species:              1
      Number of basis functions:    42
      Frozen orbitals:               0
      Deleted orbitals:              0
      Number of orbitals used:      42

       SYMMETRY  BASIS FUNCTIONS       ORBITALS      INTEGRALS   CPU(SEC)  I/O(SEC)
 
        1 1 1 1   42  42  42  42    42  42  42  42      408156       0.00      0.00

       TOTAL CPU TIME(SEC)    8.09TOTAL I/O TIME(SEC)   11.74
 
--- Stop Module: motra at Thu Jan 25 16:41:56 2024 /rc=_RC_ALL_IS_WELL_ ---
*** files: xmldump
    saved to directory /lustre/isaac/proj/UTK0022/GMJ/DDCASPT2/ozone/O3/O3_161
--- Module motra spent 11 seconds ---

>>> COPY /lustre/isaac/proj/UTK0022/GMJ/DDCASPT2/ozone/1207663/GMJ_one_int_indx.csv /lustre/isaac/proj/UTK0022/GMJ/DDCASPT2/ozone/O3/O3_161/O3_161.GMJ_one_int_indx.csv

>>> COPY /lustre/isaac/proj/UTK0022/GMJ/DDCASPT2/ozone/1207663/GMJ_one_int.csv /lustre/isaac/proj/UTK0022/GMJ/DDCASPT2/ozone/O3/O3_161/O3_161.GMJ_one_int.csv

>>> COPY /lustre/isaac/proj/UTK0022/GMJ/DDCASPT2/ozone/1207663/GMJ_two_int_indx.csv /lustre/isaac/proj/UTK0022/GMJ/DDCASPT2/ozone/O3/O3_161/O3_161.GMJ_two_int_indx.csv

>>> COPY /lustre/isaac/proj/UTK0022/GMJ/DDCASPT2/ozone/1207663/GMJ_two_int.csv /lustre/isaac/proj/UTK0022/GMJ/DDCASPT2/ozone/O3/O3_161/O3_161.GMJ_two_int.csv

*** symbolic link created: INPORB -> O3_161.GssOrb
--- Start Module: scf at Thu Jan 25 16:41:56 2024 ---
 
()()()()()()()()()()()()()()()()()()()()()()()()()()()()()()()()()()()()()()()()()()()()()()()()()()

                                                &SCF

                                   only a single process is used
                       available to each process: 16 GB of memory, 1 thread?
()()()()()()()()()()()()()()()()()()()()()()()()()()()()()()()()()()()()()()()()()()()()()()()()()()
 
++    Input section:
      --------------
 
      Header of the integral files:
      
       Integrals generated by seward 4.2.0  , Thu Jan 25 16:41:42 2024
 
 
      Cartesian coordinates in Angstrom:
      -----------------------------------------------------
      No.  Label        X            Y            Z        
      -----------------------------------------------------
       1   O1         0.21093100   1.26047300   0.00000000
       2   O2         0.00000000   0.00000000   0.00000000
       3   O3         0.21093100  -1.26047300   0.00000000
      -----------------------------------------------------
      Nuclear repulsion energy =   66.43491126
--
 
++    Orbital specifications:
      -----------------------
 
      Symmetry species               1
                                     a
      Frozen orbitals                0
      Occupied orbitals             12
      Secondary orbitals            30
      Deleted orbitals               0
      Total number of orbitals      42
      Number of basis functions     42
--
 
      Molecular charge                           0.000
 
++    Optimization specifications:
      ----------------------------
 
      SCF Algorithm: Conventional
      Minimized density differences are used
      Number of density matrices in core                5
      Maximum number of NDDO SCF iterations           400
      Maximum number of HF SCF iterations             400
      Threshold for SCF energy change            0.10E-08
      Threshold for density matrix               0.10E-03
      Threshold for Fock matrix                  0.15E-03
      Threshold for linear dependence            0.10E-08
      Threshold at which DIIS is turned on       0.15E+00
      Threshold at which QNR/C2DIIS is turned on 0.75E-01
      Threshold for Norm(delta) (QNR/C2DIIS)     0.20E-04
      DIIS extrapolation of the SCF procedure
      All orbitals punched on: SCFORB
--
 
      Input vectors read from INPORB
      Orbital file label: *Guess orbitals
 
 
++ Convergence information
                                   SCF        iterations: Energy and convergence statistics
 
Iter     Tot. SCF        One-elec.       Two-elec.     Energy      Max Dij or  Max Fij      DNorm      TNorm      AccCon     Time
         Energy          Energy          Energy        Change      Delta Norm                                                in Sec.
   1  -223.926052809  -436.740532522   146.379568455   0.00E+00    0.54E+00*   0.27E+00*    0.73E+01   0.75E+02   None         0.
   2  -224.141745610  -442.568977981   151.992321111  -0.22E+00*   0.29E+00*   0.17E+00*    0.21E+01   0.76E+02   EDIIS        0.
   3  -224.360440747  -440.038350448   149.242998443  -0.22E+00*   0.18E+00*   0.95E-01*    0.81E+00   0.76E+02   EDIIS        0.
   4  -224.378623064  -440.886629087   150.073094764  -0.18E-01*   0.55E-01*   0.48E-01*    0.20E+00   0.76E+02   EDIIS        0.
   5  -224.405058848  -440.449070968   149.609100861  -0.26E-01*   0.16E-01*   0.10E-01*    0.53E-01   0.76E+02   c2DIIS       0.
   6  -224.406089124  -440.514422266   149.673421883  -0.10E-02*   0.64E-02*   0.39E-02*    0.11E-01   0.76E+02   QNRc2DIIS    0.
   7  -224.406209755  -440.523210690   149.682089677  -0.12E-03*   0.15E-01*   0.30E-02*    0.30E-02   0.76E+02   QNRc2DIIS    0.
   8  -224.406300958  -440.513965674   149.672753458  -0.91E-04*   0.19E-02*   0.11E-02*    0.15E-02   0.76E+02   QNRc2DIIS    0.
   9  -224.406309080  -440.518887700   149.677667362  -0.81E-05*   0.17E-02*   0.33E-03*    0.17E-02   0.76E+02   QNRc2DIIS    0.
  10  -224.406311491  -440.518372777   149.677150027  -0.24E-05*   0.36E-03*   0.10E-03     0.10E-02   0.76E+02   QNRc2DIIS    0.
  11  -224.406311632  -440.518882175   149.677659283  -0.14E-06*   0.29E-03*   0.49E-04     0.17E-03   0.76E+02   QNRc2DIIS    0.
  12  -224.406311701  -440.518744475   149.677521514  -0.69E-07*   0.18E-04    0.13E-04     0.11E-03   0.76E+02   QNRc2DIIS    0.
  13  -224.406311702  -440.519029384   149.677806423  -0.10E-08*   0.76E-05    0.29E-05     0.32E-04   0.76E+02   QNRc2DIIS    0.
  14  -224.406311703  -440.519064122   149.677841161  -0.11E-09    0.85E-06    0.36E-06     0.27E-03   0.76E+02   QNRc2DIIS    0.
 
       Convergence after 14 Macro Iterations
--
 
 *****************************************************************************************************************************
 *                                                                                                                           *
 *                                             SCF/KS-DFT Program, Final results                                             *
 *                                                                                                                           *
 *                                                                                                                           *
 *                                                                                                                           *
 *                                                       Final Results                                                       *
 *                                                                                                                           *
 *****************************************************************************************************************************
 
::    Total SCF energy                               -224.4063117026
      One-electron energy                            -440.5190641223
      Two-electron energy                             149.6778411609
      Nuclear repulsion energy                         66.4349112588
      Kinetic energy (interpolated)                   225.5732517404
      Virial theorem                                    0.9948267801
      Total spin, S(S+1)                                0.0000000000
      Total spin, S                                     0.0000000000
      Max non-diagonal density matrix element           0.0000009216
      Max non-diagonal Fock matrix element              0.0000001738
 
 
      All orbitals with orbital energies smaller than  E(LUMO)+0.5 are printed
 
++    Molecular orbitals:
      -------------------
 
      Title: SCF orbitals

      Molecular orbitals for symmetry species 1: a  
 
          Orbital            1         2         3         4         5         6         7         8         9        10    
          Energy          -20.8596  -20.7347  -20.7347   -1.7143   -1.4697   -1.0665   -0.8374   -0.7942   -0.7574   -0.6133
          Occ. No.          2.0000    2.0000    2.0000    2.0000    2.0000    2.0000    2.0000    2.0000    2.0000    2.0000
 
        1 O1     1s         0.0025   -0.7072    0.7072   -0.0154    0.0099    0.0136   -0.0044   -0.0190   -0.0000    0.0051
        2 O1     2s         0.0000   -0.0008    0.0005    0.3252   -0.5721    0.6480   -0.0971   -0.4076   -0.0000    0.0653
        3 O1     3s        -0.0000   -0.0001   -0.0001   -0.0236    0.0128    0.0179   -0.0076   -0.0258   -0.0000    0.0060
        4 O1     2px        0.0001    0.0001   -0.0001   -0.0146    0.0250    0.0480    0.3246   -0.1766   -0.0000   -0.6786
        5 O1     3px        0.0002    0.0001    0.0000    0.0056   -0.0033   -0.0077   -0.0302    0.0099    0.0000    0.0006
        6 O1     2py       -0.0001    0.0009   -0.0010   -0.1038    0.0927    0.1699   -0.1297   -0.3987    0.0000    0.1853
        7 O1     3py        0.0000   -0.0005    0.0003    0.0249   -0.0187   -0.0256    0.0114    0.0295   -0.0000    0.0004
        8 O1     2pz        0.0000    0.0000    0.0000    0.0000    0.0000   -0.0000    0.0000   -0.0000    0.4120   -0.0000
        9 O1     3pz        0.0000    0.0000    0.0000    0.0000   -0.0000   -0.0000    0.0000    0.0000   -0.0240   -0.0000
       10 O1     3d2-       0.0000   -0.0000    0.0000    0.0033   -0.0060   -0.0050   -0.0197    0.0125    0.0000    0.0128
       11 O1     3d1-      -0.0000   -0.0000   -0.0000    0.0000   -0.0000   -0.0000   -0.0000    0.0000   -0.0305   -0.0000
       12 O1     3d0        0.0000    0.0001   -0.0001   -0.0086    0.0085    0.0065   -0.0043   -0.0165   -0.0000    0.0042
       13 O1     3d1+       0.0000   -0.0000   -0.0000   -0.0000    0.0000    0.0000   -0.0000   -0.0000   -0.0045   -0.0000
       14 O1     3d2+      -0.0000   -0.0002    0.0001   -0.0172    0.0144    0.0134   -0.0137   -0.0288    0.0000    0.0106
       15 O2     1s         1.0000    0.0000   -0.0037   -0.0210    0.0000   -0.0151   -0.0027   -0.0000    0.0000   -0.0000
       16 O2     2s         0.0002    0.0000   -0.0008    0.6701   -0.0000   -0.6269   -0.0317    0.0000    0.0000   -0.0000
       17 O2     3s        -0.0007    0.0000   -0.0006   -0.0380   -0.0000   -0.0128   -0.0030   -0.0000   -0.0000    0.0000
       18 O2     2px        0.0004    0.0000   -0.0000    0.0495   -0.0000    0.0919    0.7394    0.0000   -0.0000    0.0000
       19 O2     3px       -0.0008    0.0000   -0.0001   -0.0116   -0.0000   -0.0112   -0.0620   -0.0000    0.0000   -0.0000
       20 O2     2py        0.0000    0.0010    0.0000   -0.0000   -0.3287    0.0000   -0.0000    0.5252    0.0000   -0.1086
       21 O2     3py        0.0000    0.0012    0.0000    0.0000    0.0815   -0.0000   -0.0000   -0.0838    0.0000    0.0032
       22 O2     2pz        0.0000   -0.0000   -0.0000    0.0000   -0.0000    0.0000    0.0000   -0.0000    0.6530   -0.0000
       23 O2     3pz       -0.0000   -0.0000   -0.0000   -0.0000    0.0000    0.0000   -0.0000    0.0000   -0.0177   -0.0000
       24 O2     3d2-       0.0000    0.0001    0.0000   -0.0000   -0.0187    0.0000    0.0000    0.0124   -0.0000   -0.0406
       25 O2     3d1-       0.0000   -0.0000   -0.0000    0.0000   -0.0000   -0.0000   -0.0000    0.0000    0.0000   -0.0000
       26 O2     3d0       -0.0003   -0.0000    0.0003   -0.0181    0.0000   -0.0005   -0.0093   -0.0000    0.0000   -0.0000
       27 O2     3d1+       0.0000   -0.0000   -0.0000   -0.0000   -0.0000   -0.0000    0.0000    0.0000    0.0157   -0.0000
       28 O2     3d2+       0.0001   -0.0000    0.0004   -0.0297    0.0000   -0.0026    0.0100   -0.0000   -0.0000    0.0000
       29 O3     1s         0.0025    0.7072    0.7072   -0.0154   -0.0099    0.0136   -0.0044    0.0190    0.0000   -0.0051
       30 O3     2s         0.0000    0.0008    0.0005    0.3252    0.5721    0.6480   -0.0971    0.4076    0.0000   -0.0653
       31 O3     3s        -0.0000    0.0001   -0.0001   -0.0236   -0.0128    0.0179   -0.0076    0.0258    0.0000   -0.0060
       32 O3     2px        0.0001   -0.0001   -0.0001   -0.0146   -0.0250    0.0480    0.3246    0.1766   -0.0000    0.6786
       33 O3     3px        0.0002   -0.0001    0.0000    0.0056    0.0033   -0.0077   -0.0302   -0.0099    0.0000   -0.0006
       34 O3     2py        0.0001    0.0009    0.0010    0.1038    0.0927   -0.1699    0.1297   -0.3987   -0.0000    0.1853
       35 O3     3py       -0.0000   -0.0005   -0.0003   -0.0249   -0.0187    0.0256   -0.0114    0.0295    0.0000    0.0004
       36 O3     2pz       -0.0000    0.0000    0.0000   -0.0000    0.0000    0.0000    0.0000   -0.0000    0.4120    0.0000
       37 O3     3pz        0.0000   -0.0000   -0.0000    0.0000    0.0000    0.0000   -0.0000   -0.0000   -0.0240   -0.0000
       38 O3     3d2-      -0.0000   -0.0000   -0.0000   -0.0033   -0.0060    0.0050    0.0197    0.0125   -0.0000    0.0128
       39 O3     3d1-       0.0000    0.0000    0.0000    0.0000    0.0000   -0.0000    0.0000   -0.0000    0.0305   -0.0000
       40 O3     3d0        0.0000   -0.0001   -0.0001   -0.0086   -0.0085    0.0065   -0.0043    0.0165    0.0000   -0.0042
       41 O3     3d1+       0.0000    0.0000    0.0000   -0.0000   -0.0000    0.0000   -0.0000    0.0000   -0.0045    0.0000
       42 O3     3d2+      -0.0000    0.0002    0.0001   -0.0172   -0.0144    0.0134   -0.0137    0.0288    0.0000   -0.0106
 
          Orbital           11        12        13        14        15        16    
          Energy           -0.5142   -0.4856   -0.0331    0.1506    0.2862    0.4620
          Occ. No.          2.0000    2.0000    0.0000    0.0000    0.0000    0.0000
 
        1 O1     1s         0.0000    0.0019   -0.0000    0.0284   -0.1616   -0.0236
        2 O1     2s         0.0000    0.0021   -0.0000    0.3448   -1.1757   -0.1615
        3 O1     3s         0.0000    0.0124   -0.0000    0.0191   -0.4182   -0.0966
        4 O1     2px        0.0000    0.6670   -0.0000    0.0241    0.1607   -0.0755
        5 O1     3px        0.0000    0.0359   -0.0000    0.0097    0.1282    0.4219
        6 O1     2py       -0.0000    0.0628   -0.0000   -0.8095    0.5874    0.1121
        7 O1     3py        0.0000   -0.0141    0.0000   -0.1890    0.6397    0.2416
        8 O1     2pz       -0.7033    0.0000    0.6541    0.0000   -0.0000   -0.0000
        9 O1     3pz       -0.0369    0.0000    0.1293    0.0000    0.0000   -0.0000
       10 O1     3d2-      -0.0000    0.0004    0.0000    0.0079   -0.0109    0.0242
       11 O1     3d1-       0.0246    0.0000    0.0128   -0.0000    0.0000   -0.0000
       12 O1     3d0        0.0000    0.0027   -0.0000    0.0005    0.0189    0.0069
       13 O1     3d1+       0.0031    0.0000    0.0026   -0.0000    0.0000   -0.0000
       14 O1     3d2+      -0.0000    0.0065    0.0000    0.0043    0.0302    0.0237
       15 O2     1s        -0.0000    0.0152   -0.0000   -0.1203    0.0000    0.0738
       16 O2     2s        -0.0000    0.1920   -0.0000   -1.1191    0.0000    0.4507
       17 O2     3s        -0.0000    0.0285   -0.0000   -0.2580    0.0000    0.1778
       18 O2     2px       -0.0000   -0.6854    0.0000   -0.3418    0.0000   -0.0542
       19 O2     3px       -0.0000   -0.0373    0.0000   -0.0737    0.0000    0.4778
       20 O2     2py       -0.0000    0.0000    0.0000    0.0000    1.3256   -0.0000
       21 O2     3py       -0.0000   -0.0000    0.0000    0.0000    1.0911    0.0000
       22 O2     2pz        0.0000   -0.0000   -0.8880   -0.0000   -0.0000    0.0000
       23 O2     3pz        0.0000   -0.0000   -0.1597    0.0000    0.0000   -0.0000
       24 O2     3d2-       0.0000   -0.0000   -0.0000    0.0000    0.0263    0.0000
       25 O2     3d1-      -0.0553   -0.0000   -0.0000    0.0000    0.0000    0.0000
       26 O2     3d0       -0.0000    0.0147   -0.0000   -0.0365    0.0000   -0.0351
       27 O2     3d1+       0.0000   -0.0000   -0.0039   -0.0000   -0.0000    0.0000
       28 O2     3d2+      -0.0000    0.0219   -0.0000   -0.0659    0.0000   -0.0806
       29 O3     1s        -0.0000    0.0019    0.0000    0.0284    0.1616   -0.0236
       30 O3     2s        -0.0000    0.0021    0.0000    0.3448    1.1757   -0.1615
       31 O3     3s        -0.0000    0.0124    0.0000    0.0191    0.4182   -0.0966
       32 O3     2px       -0.0000    0.6670   -0.0000    0.0241   -0.1607   -0.0755
       33 O3     3px       -0.0000    0.0359   -0.0000    0.0097   -0.1282    0.4219
       34 O3     2py       -0.0000   -0.0628   -0.0000    0.8095    0.5874   -0.1121
       35 O3     3py       -0.0000    0.0141   -0.0000    0.1890    0.6397   -0.2416
       36 O3     2pz        0.7033    0.0000    0.6541    0.0000    0.0000    0.0000
       37 O3     3pz        0.0369    0.0000    0.1293    0.0000    0.0000   -0.0000
       38 O3     3d2-      -0.0000   -0.0004    0.0000   -0.0079   -0.0109   -0.0242
       39 O3     3d1-       0.0246   -0.0000   -0.0128   -0.0000   -0.0000    0.0000
       40 O3     3d0        0.0000    0.0027   -0.0000    0.0005   -0.0189    0.0069
       41 O3     3d1+      -0.0031    0.0000    0.0026    0.0000    0.0000   -0.0000
       42 O3     3d2+       0.0000    0.0065   -0.0000    0.0043   -0.0302    0.0237
--
 
 
++    Molecular charges:
      ------------------
 
      Mulliken charges per centre and basis function type
      ---------------------------------------------------
 
                O1      O2      O3    
      1s       2.0003  2.0000  2.0003
      2s       1.9345  1.7002  1.9345
      2px      1.9950  1.8889  1.9950
      2pz      1.4346  1.0827  1.4346
      2py      0.7669  1.0021  0.7669
      3s      -0.0129 -0.0226 -0.0129
      3px     -0.0192 -0.0397 -0.0192
      3pz     -0.0110 -0.0068 -0.0110
      3py     -0.0105  0.0263 -0.0105
      3d2+     0.0202  0.0238  0.0202
      3d1+     0.0003  0.0017  0.0003
      3d0      0.0057  0.0062  0.0057
      3d1-     0.0135  0.0477  0.0135
      3d2-     0.0105  0.0340  0.0105
      Total    8.1278  7.7445  8.1278
 
      N-E     -0.1278  0.2555 -0.1278
 
      Total electronic charge=   24.000000
 
      Total            charge=   -0.000000
--
 
 
  Input file to MOLDEN was generated!
 
 
++    Static properties:
      ------------------
 
 
      LoProp Charges per center
 

                   O1       O2       O3    
      Nuclear      8.0000   8.0000   8.0000
      Electronic  -8.1734  -7.6533  -8.1734
 
      Total       -0.1734   0.3467  -0.1734
--
 
 
++    Natural Bond Order analysis
      ---------------------------
      Based on LoProp computed density
      -------------------------------------------------------------------------------------
      Atom A       Atom B       Bond Order | Atom A       Atom B       Bond Order
        O1           O2             2.000  |   O2           O3             2.000
      -------------------------------------------------------------------------------------
      NBO located     12.000 core electrons.
      NBO located      3.996 lone pair electrons.
      NBO located      8.000 electrons involved in    2 bonds.
      The remaining    0.004 electrons are to be considered as diffuse
--
 
 
++    Molecular properties:
      ---------------------
 
      Charge (e):
                      =   -0.0000
      Dipole Moment (Debye):
      Origin of the operator (Ang)=    0.0000    0.0000    0.0000
                   X= -4.9352E-02               Y= -1.7806E-10               Z= -5.3855E-15           Total=  4.9352E-02
      Quadrupole Moment (Debye*Ang):
      Origin of the operator (Ang)=    0.1406    0.0000    0.0000
                  XX= -1.6429E+01              XY= -1.0212E-11              XZ= -2.9407E-13              YY= -1.7118E+01
                  YZ= -3.6686E-14              ZZ= -1.5173E+01
      In traceless form (Debye*Ang)
                  XX= -2.8338E-01              XY= -1.5317E-11              XZ= -4.4111E-13              YY= -1.3167E+00
                  YZ= -5.5029E-14              ZZ=  1.6001E+00
--
 
 
  Input file to MOLDEN was generated!
 
 ###############################################################################
 ###############################################################################
 ###                                                                         ###
 ###                                                                         ###
 ###    RunFile label nBas                                                   ###
 ###    was used       78 times                                              ###
 ###                                                                         ###
 ###                                                                         ###
 ###############################################################################
 ###############################################################################
--- Stop Module: scf at Thu Jan 25 16:41:58 2024 /rc=_RC_ALL_IS_WELL_ ---
*** files: O3_161.LprOrb O3_161.LoProp.molden O3_161.scf.molden O3_161.ScfOrb O3_161.scf.h5 xmldump
    saved to directory /lustre/isaac/proj/UTK0022/GMJ/DDCASPT2/ozone/O3/O3_161
--- Module scf spent 1 second ---

>>> COPY /lustre/isaac/proj/UTK0022/GMJ/DDCASPT2/ozone/1207663/O3_161.scf.h5 /lustre/isaac/proj/UTK0022/GMJ/DDCASPT2/ozone/O3/O3_161/

*** symbolic link created: INPORB -> O3_161.ScfOrb
--- Start Module: rasscf at Thu Jan 25 16:41:58 2024 ---
 
()()()()()()()()()()()()()()()()()()()()()()()()()()()()()()()()()()()()()()()()()()()()()()()()()()

                                              &RASSCF

                                   only a single process is used
                       available to each process: 16 GB of memory, 1 thread?
()()()()()()()()()()()()()()()()()()()()()()()()()()()()()()()()()()()()()()()()()()()()()()()()()()
 
 
      Header of the ONEINT file:
      --------------------------
      
      Integrals generated by seward 4.2.0  , Thu Jan 25 16:41:42 2024
 
 
      OrdInt status: non-squared
 
 
      Cartesian coordinates in Angstrom:
      -----------------------------------------------------
      No.  Label        X            Y            Z        
      -----------------------------------------------------
       1   O1         0.21093100   1.26047300   0.00000000
       2   O2         0.00000000   0.00000000   0.00000000
       3   O3         0.21093100  -1.26047300   0.00000000
      -----------------------------------------------------
      Nuclear repulsion energy =   66.43491126
 
++    Wave function specifications:
      -----------------------------
 
      Number of closed shell electrons          20
      Number of electrons in active shells       4
      Max number of holes in RAS1 space          0
      Max nr of electrons in RAS3 space          0
      Number of inactive orbitals               10
      Number of active orbitals                  3
      Number of secondary orbitals              29
      Spin quantum number                      0.0
      State symmetry                             1
--
 
++    Orbital specifications:
      -----------------------
 
      Symmetry species                           1
                                                 a
      Frozen orbitals                            0
      Inactive orbitals                         10
      Active orbitals                            3
      RAS1 orbitals                              0
      RAS2 orbitals                              3
      RAS3 orbitals                              0
      Secondary orbitals                        29
      Deleted orbitals                           0
      Number of basis functions                 42
--
 
++    CI expansion specifications:
      ----------------------------
 
      Number of CSFs                             6
      Number of determinants                     6
      Number of root(s) required                 1
      Root chosen for geometry opt.              1
      CI root used                               1
         
      highest root included in the CI            1
      max. size of the explicit Hamiltonian      6
--
 
++    Optimization specifications:
      ----------------------------
 
      RASSCF algorithm: Conventional
      Maximum number of macro iterations       200
      Maximum number of SX iterations          100
      Threshold for RASSCF energy            0.100E-07
      Threshold for max MO rotation          0.100E+00
      Threshold for max BLB element          0.100E-03
      Level shift parameter                  0.500E+00
      Make Quasi-Newton update
--
 
      The MO-coefficients are taken from the file:
      /lustre/isaac/proj/UTK0022/GMJ/DDCASPT2/ozone/O3/O3_160/O3_160.RasOrb                                                           
      Title: RASSCF average (pseudo-natural) orbitals                                      
 
      Total molecular charge    0.00
 
      ************************************************************************************************************************
      *                                                                                                                      *
      *                                            Wave function control section                                             *
      *                                                                                                                      *
      ************************************************************************************************************************
 
 
                                         RASSCF iterations: Energy and convergence statistics
                                         ----------------------------------------------------
 
      Iter CI   SX   CI       RASSCF       Energy    max ROT     max BLB   max BLB  Level Ln srch  Step   QN   Walltime
          iter iter root      energy       change     param      element    value   shift minimum  type update hh:mm:ss
 Nr of preliminary CI iterations:   1
        1   1    4    1  -224.48336541    0.00E+00  -0.27E-02    7  14 1 -0.62E-02*  0.20   0.00    SX    NO    0:00:00
        2   1    4    1  -224.48346156   -0.96E-04*  0.16E-02    7  14 1 -0.37E-02*  0.20   0.00    SX    NO    0:00:00
        3   1    3    1  -224.48348332   -0.22E-04*  0.10E-02    7  14 1 -0.24E-02*  0.20   0.00    SX    NO    0:00:00
        4   1    4    1  -224.48349069   -0.74E-05*  0.53E-03    7  14 1 -0.12E-02*  0.20   0.00    SX    NO    0:00:00
        5   1    3    1  -224.48349285   -0.22E-05*  0.15E-02    7  14 1 -0.87E-03*  0.20   1.98    QN   YES    0:00:00
        6   1    3    1  -224.48349408   -0.12E-05* -0.71E-03    7  14 1  0.92E-03*  0.20   0.66    QN   YES    0:00:00
        7   1    3    1  -224.48349455   -0.46E-06* -0.20E-03    8  19 1  0.65E-03*  0.20   0.60    SX   YES    0:00:00
        8   1    3    1  -224.48349468   -0.14E-06*  0.14E-03    8  19 1 -0.45E-03*  0.20   0.57    SX   YES    0:00:00
        9   1    3    1  -224.48349469   -0.31E-08  -0.72E-04    8  19 1  0.48E-03*  0.20   0.48    LS   YES    0:00:00
       10   1    3    1  -224.48349476   -0.70E-07* -0.11E-03   10  14 1  0.11E-03*  0.20   0.64    QN   YES    0:00:00
       11   1    3    1  -224.48349478   -0.24E-07* -0.16E-03    8  19 1  0.11E-03*  0.20   2.50    LS   YES    0:00:00
       12   1    3    1  -224.48349477    0.12E-07* -0.40E-04    8  19 1  0.19E-03*  0.20   0.32    QN   YES    0:00:00
       13   1    3    1  -224.48349480   -0.28E-07* -0.38E-04    8  19 1  0.70E-04   0.20   1.41    QN   YES    0:00:00
       14   1    3    1  -224.48349481   -0.13E-07* -0.11E-03    8  19 1  0.60E-04   0.20   1.38    QN   YES    0:00:00
       15   1    3    1  -224.48349482   -0.12E-07* -0.25E-04    8  19 1 -0.40E-04   0.20   0.82    QN   YES    0:00:00
       16   1    3    1  -224.48349482    0.62E-09  -0.12E-04    8  19 1  0.59E-04   0.20   0.39    QN   YES    0:00:00
      Convergence after 16 iterations
       17   1    3    1  -224.48349482   -0.14E-08  -0.12E-04    8  19 1  0.24E-04   0.20   0.39    QN   YES    0:00:00
 
      ************************************************************************************************************************
                                                      Wave function printout:
                       occupation of active orbitals, and spin coupling of open shells (u,d: Spin up or down)
      ************************************************************************************************************************
 
      Note: transformation to natural orbitals
      has been made, which may change the order of the CSFs.
 
      printout of CI-coefficients larger than  0.00 for root  1
      energy=    -224.483495
      conf/sym  111     Coeff  Weight
             1  220  -0.93042 0.86569
 
   + sqrt(     1/1     )  |220|
 
             2  2ud   0.00000 0.00000
 
   + sqrt(     1/2     )  |2ab|
   - sqrt(     1/2     )  |2ba|
 
             3  202   0.35694 0.12741
 
   + sqrt(     1/1     )  |202|
 
             4  u2d  -0.00000 0.00000
 
   - sqrt(     1/2     )  |a2b|
   + sqrt(     1/2     )  |b2a|
 
             5  ud2  -0.00000 0.00000
 
   + sqrt(     1/2     )  |ab2|
   - sqrt(     1/2     )  |ba2|
 
             6  022   0.08308 0.00690
 
   + sqrt(     1/1     )  |022|
 
 
      Natural orbitals and occupation numbers for root  1
      sym 1:   1.986197   1.745181   0.268622
 
      ************************************************************************************************************************
      *                                                                                                                      *
      *                                                    Final results                                                     *
      *                                                                                                                      *
      ************************************************************************************************************************
 
 
++    Wave function specifications:
      -----------------------------
 
      Number of closed shell electrons          20
      Number of electrons in active shells       4
      Max number of holes in RAS1 space          0
      Max nr of electrons in RAS3 space          0
      Number of inactive orbitals               10
      Number of active orbitals                  3
      Number of secondary orbitals              29
      Spin quantum number                      0.0
      State symmetry                             1
--
 
++    Orbital specifications:
      -----------------------
 
      Symmetry species                           1
                                                 a
      Frozen orbitals                            0
      Inactive orbitals                         10
      Active orbitals                            3
      RAS1 orbitals                              0
      RAS2 orbitals                              3
      RAS3 orbitals                              0
      Secondary orbitals                        29
      Deleted orbitals                           0
      Number of basis functions                 42
--
 
++    CI expansion specifications:
      ----------------------------
 
      Number of CSFs                             6
      Number of determinants                     6
      Number of root(s) required                 1
      CI root used                               1
      highest root included in the CI            1
      Root passed to geometry opt.               1
--
 
++    Final optimization conditions:
      ------------------------------
 
      Average CI energy                            -224.48349482
      RASSCF energy for state  1                   -224.48349482
      Super-CI energy                                -0.00000000
      RASSCF energy change                           -0.00000000
      Max change in MO coefficients              -0.106E-04
      Max non-diagonal density matrix element    -0.120E-04
      Maximum BLB matrix element                  0.239E-04
      (orbital pair   8,  19 in symmetry   1)
      Norm of electronic gradient            0.651E-04
--
 
 
      Final state energy(ies):
      ------------------------
 
::    RASSCF root number  1 Total energy:   -224.48349482
 
++    Molecular orbitals:
      -------------------
 
      Pseudonatural active orbitals and approximate occupation numbers
 
 
 
 
      Molecular orbitals for symmetry species 1: a  
 
 
      Orbital                1         2         3         4         5         6         7         8         9        10
      Energy          -20.7688  -20.7355  -20.7355   -1.6806   -1.4531   -1.0550   -0.7990   -0.7811   -0.6140   -0.4642
      Occ. No.          2.0000    2.0000    2.0000    2.0000    2.0000    2.0000    2.0000    2.0000    2.0000    2.0000
 
    1 O1     1s         0.0088   -0.7072    0.7071   -0.0151    0.0087    0.0142   -0.0037   -0.0180    0.0057    0.0014
    2 O1     2s         0.0001   -0.0008    0.0005    0.3461   -0.5898    0.6370   -0.0765   -0.3770    0.0706   -0.0082
    3 O1     3s         0.0000   -0.0001   -0.0001   -0.0244    0.0119    0.0182   -0.0063   -0.0246    0.0067    0.0141
    4 O1     2px        0.0001    0.0001   -0.0001   -0.0146    0.0241    0.0488    0.3809   -0.1945   -0.6752    0.6393
    5 O1     3px        0.0003    0.0001    0.0000    0.0055   -0.0032   -0.0070   -0.0313    0.0105    0.0017    0.0411
    6 O1     2py       -0.0002    0.0009   -0.0010   -0.1062    0.0899    0.1903   -0.1337   -0.4215    0.1963    0.0970
    7 O1     3py        0.0000   -0.0005    0.0003    0.0252   -0.0177   -0.0262    0.0092    0.0277    0.0007   -0.0147
    8 O1     2pz       -0.0000    0.0000   -0.0000   -0.0000   -0.0000    0.0000    0.0000    0.0000    0.0000   -0.0000
    9 O1     3pz       -0.0000    0.0000    0.0000   -0.0000   -0.0000    0.0000    0.0000   -0.0000    0.0000    0.0000
   10 O1     3d2-       0.0000   -0.0000    0.0001    0.0029   -0.0055   -0.0047   -0.0202    0.0120    0.0118    0.0039
   11 O1     3d1-       0.0000   -0.0000    0.0000    0.0000   -0.0000    0.0000    0.0000   -0.0000   -0.0000    0.0000
   12 O1     3d0        0.0000    0.0001   -0.0002   -0.0093    0.0090    0.0068   -0.0043   -0.0166    0.0048    0.0029
   13 O1     3d1+       0.0000   -0.0000    0.0000    0.0000    0.0000    0.0000    0.0000   -0.0000   -0.0000   -0.0000
   14 O1     3d2+      -0.0000   -0.0002    0.0001   -0.0172    0.0139    0.0146   -0.0131   -0.0290    0.0107    0.0081
   15 O2     1s         0.9999    0.0000   -0.0125   -0.0222    0.0000   -0.0126   -0.0035   -0.0000    0.0000    0.0185
   16 O2     2s         0.0003    0.0000   -0.0008    0.6427   -0.0000   -0.6286   -0.0485    0.0000    0.0000    0.2378
   17 O2     3s        -0.0009    0.0000   -0.0006   -0.0322   -0.0000   -0.0169   -0.0033   -0.0000    0.0000    0.0354
   18 O2     2px        0.0004    0.0000   -0.0000    0.0512   -0.0000    0.0673    0.6733    0.0000    0.0000   -0.7440
   19 O2     3px       -0.0010    0.0000   -0.0001   -0.0109    0.0000   -0.0082   -0.0469   -0.0000   -0.0000   -0.0559
   20 O2     2py       -0.0000    0.0009    0.0000   -0.0000   -0.2991    0.0000   -0.0000    0.4973   -0.1163    0.0000
   21 O2     3py        0.0000    0.0012    0.0000    0.0000    0.0782   -0.0000    0.0000   -0.0770    0.0003    0.0000
   22 O2     2pz        0.0000   -0.0000   -0.0000    0.0000    0.0000   -0.0000    0.0000   -0.0000   -0.0000   -0.0000
   23 O2     3pz        0.0000   -0.0000    0.0000   -0.0000    0.0000    0.0000   -0.0000    0.0000   -0.0000   -0.0000
   24 O2     3d2-       0.0000    0.0001    0.0000   -0.0000   -0.0192    0.0000   -0.0000    0.0143   -0.0388    0.0000
   25 O2     3d1-       0.0000   -0.0000    0.0000    0.0000    0.0000   -0.0000    0.0000   -0.0000    0.0000   -0.0000
   26 O2     3d0       -0.0001   -0.0000    0.0003   -0.0175    0.0000   -0.0003   -0.0100   -0.0000    0.0000    0.0178
   27 O2     3d1+      -0.0000   -0.0000    0.0000    0.0000   -0.0000    0.0000   -0.0000    0.0000   -0.0000   -0.0000
   28 O2     3d2+       0.0001   -0.0000    0.0004   -0.0295    0.0000   -0.0000    0.0116   -0.0000    0.0000    0.0205
   29 O3     1s         0.0088    0.7072    0.7071   -0.0151   -0.0087    0.0142   -0.0037    0.0180   -0.0057    0.0014
   30 O3     2s         0.0001    0.0008    0.0005    0.3461    0.5898    0.6370   -0.0765    0.3770   -0.0706   -0.0082
   31 O3     3s         0.0000    0.0001   -0.0001   -0.0244   -0.0119    0.0182   -0.0063    0.0246   -0.0067    0.0141
   32 O3     2px        0.0001   -0.0001   -0.0001   -0.0146   -0.0241    0.0488    0.3809    0.1945    0.6752    0.6393
   33 O3     3px        0.0003   -0.0001    0.0000    0.0055    0.0032   -0.0070   -0.0313   -0.0105   -0.0017    0.0411
   34 O3     2py        0.0002    0.0009    0.0010    0.1062    0.0899   -0.1903    0.1337   -0.4215    0.1963   -0.0970
   35 O3     3py       -0.0000   -0.0005   -0.0003   -0.0252   -0.0177    0.0262   -0.0092    0.0277    0.0007    0.0147
   36 O3     2pz        0.0000   -0.0000   -0.0000   -0.0000    0.0000   -0.0000    0.0000   -0.0000    0.0000    0.0000
   37 O3     3pz       -0.0000    0.0000    0.0000   -0.0000   -0.0000   -0.0000    0.0000    0.0000    0.0000    0.0000
   38 O3     3d2-      -0.0000   -0.0000   -0.0001   -0.0029   -0.0055    0.0047    0.0202    0.0120    0.0118   -0.0039
   39 O3     3d1-      -0.0000   -0.0000   -0.0000    0.0000    0.0000   -0.0000    0.0000   -0.0000   -0.0000    0.0000
   40 O3     3d0        0.0000   -0.0001   -0.0002   -0.0093   -0.0090    0.0068   -0.0043    0.0166   -0.0048    0.0029
   41 O3     3d1+      -0.0000   -0.0000    0.0000    0.0000   -0.0000    0.0000    0.0000    0.0000    0.0000   -0.0000
   42 O3     3d2+      -0.0000    0.0002    0.0001   -0.0172   -0.0139    0.0146   -0.0131    0.0290   -0.0107    0.0081
 
 
      Orbital               11        12        13        14        15        16        17        18        19        20
      Energy            0.0000    0.0000    0.0000    0.1575    0.2881    0.4667    0.4729    0.5230    0.6449    0.6785
      Occ. No.          1.9862    1.7452    0.2686    0.0000    0.0000    0.0000    0.0000    0.0000    0.0000    0.0000
 
    1 O1     1s         0.0000   -0.0000    0.0000   -0.0300   -0.1622    0.0000   -0.0224    0.0309   -0.0342    0.0086
    2 O1     2s         0.0000    0.0000    0.0000   -0.3601   -1.1756    0.0000   -0.1532    0.2271   -0.0874    0.0180
    3 O1     3s        -0.0000   -0.0000   -0.0000   -0.0190   -0.4206    0.0000   -0.0855    0.2106   -0.1146    0.0430
    4 O1     2px        0.0000   -0.0000    0.0000   -0.0437    0.1561    0.0000   -0.0545   -0.0828   -0.0919   -0.0674
    5 O1     3px       -0.0000   -0.0000   -0.0000   -0.0147    0.1314   -0.0000    0.4559    0.1110   -0.2043   -0.8021
    6 O1     2py        0.0000    0.0000   -0.0000    0.8016    0.5679   -0.0000    0.1029   -0.2380   -0.4565    0.1431
    7 O1     3py        0.0000    0.0000    0.0000    0.1878    0.6453   -0.0000    0.2239   -0.8015    0.0810   -0.0250
    8 O1     2pz        0.3176   -0.7046    0.6696    0.0000   -0.0000    0.0200    0.0000    0.0000   -0.0000    0.0000
    9 O1     3pz       -0.0296   -0.0091   -0.0584    0.0000    0.0000    0.4876    0.0000   -0.0000   -0.0000    0.0000
   10 O1     3d2-       0.0000    0.0000   -0.0000   -0.0083   -0.0115   -0.0000    0.0250   -0.0043   -0.0580   -0.0053
   11 O1     3d1-      -0.0295    0.0196    0.0081    0.0000    0.0000    0.0344    0.0000   -0.0000   -0.0000    0.0000
   12 O1     3d0       -0.0000    0.0000    0.0000   -0.0011    0.0191   -0.0000    0.0073    0.0032    0.0622   -0.0194
   13 O1     3d1+      -0.0040    0.0019    0.0013    0.0000    0.0000    0.0071    0.0000    0.0000    0.0000   -0.0000
   14 O1     3d2+      -0.0000    0.0000   -0.0000   -0.0063    0.0309   -0.0000    0.0250    0.0020    0.0940   -0.0296
   15 O2     1s         0.0000    0.0000   -0.0000    0.1192    0.0000   -0.0000    0.0703   -0.1678   -0.0000   -0.0000
   16 O2     2s         0.0000    0.0000   -0.0000    1.1308    0.0000   -0.0000    0.4287   -0.9925   -0.0000    0.0000
   17 O2     3s         0.0000    0.0000   -0.0000    0.2684    0.0000   -0.0000    0.1808   -0.3273    0.0000   -0.0000
   18 O2     2px       -0.0000    0.0000   -0.0000    0.3849    0.0000    0.0000   -0.1002   -0.0707   -0.0000   -0.0000
   19 O2     3px        0.0000    0.0000   -0.0000    0.0909    0.0000   -0.0000    0.4248   -0.0242   -0.0000   -0.0000
   20 O2     2py        0.0000    0.0000   -0.0000   -0.0000    1.3154   -0.0000    0.0000   -0.0000   -0.4180    0.1233
   21 O2     3py        0.0000   -0.0000   -0.0000   -0.0000    1.1048   -0.0000    0.0000   -0.0000    0.7166   -0.2042
   22 O2     2pz        0.7672    0.0000   -0.6782   -0.0000    0.0000   -0.2777   -0.0000    0.0000    0.0000    0.0000
   23 O2     3pz       -0.0067   -0.0000   -0.0735   -0.0000    0.0000    0.3456    0.0000   -0.0000    0.0000   -0.0000
   24 O2     3d2-      -0.0000   -0.0000   -0.0000   -0.0000    0.0288   -0.0000    0.0000    0.0000    0.0543    0.0416
   25 O2     3d1-       0.0000   -0.0456   -0.0000    0.0000   -0.0000    0.0000    0.0000   -0.0000    0.0000   -0.0000
   26 O2     3d0       -0.0000   -0.0000   -0.0000    0.0346    0.0000    0.0000   -0.0321    0.0963    0.0000   -0.0000
   27 O2     3d1+       0.0175    0.0000   -0.0104   -0.0000    0.0000   -0.0150   -0.0000    0.0000    0.0000   -0.0000
   28 O2     3d2+      -0.0000   -0.0000   -0.0000    0.0627    0.0000    0.0000   -0.0762    0.1417    0.0000   -0.0000
   29 O3     1s        -0.0000    0.0000    0.0000   -0.0300    0.1622    0.0000   -0.0224    0.0309    0.0342   -0.0086
   30 O3     2s         0.0000   -0.0000   -0.0000   -0.3601    1.1756    0.0000   -0.1532    0.2271    0.0874   -0.0180
   31 O3     3s        -0.0000    0.0000    0.0000   -0.0190    0.4206    0.0000   -0.0855    0.2106    0.1146   -0.0430
   32 O3     2px        0.0000   -0.0000   -0.0000   -0.0437   -0.1561    0.0000   -0.0545   -0.0828    0.0919    0.0674
   33 O3     3px       -0.0000   -0.0000    0.0000   -0.0147   -0.1314   -0.0000    0.4559    0.1110    0.2043    0.8021
   34 O3     2py       -0.0000   -0.0000    0.0000   -0.8016    0.5679    0.0000   -0.1029    0.2380   -0.4565    0.1431
   35 O3     3py       -0.0000   -0.0000    0.0000   -0.1878    0.6453    0.0000   -0.2239    0.8015    0.0810   -0.0250
   36 O3     2pz        0.3176    0.7046    0.6696    0.0000    0.0000    0.0200    0.0000    0.0000   -0.0000   -0.0000
   37 O3     3pz       -0.0296    0.0091   -0.0584    0.0000    0.0000    0.4876    0.0000   -0.0000    0.0000   -0.0000
   38 O3     3d2-      -0.0000    0.0000   -0.0000    0.0083   -0.0115    0.0000   -0.0250    0.0043   -0.0580   -0.0053
   39 O3     3d1-       0.0295    0.0196   -0.0081   -0.0000    0.0000   -0.0344   -0.0000    0.0000    0.0000    0.0000
   40 O3     3d0        0.0000    0.0000    0.0000   -0.0011   -0.0191   -0.0000    0.0073    0.0032   -0.0622    0.0194
   41 O3     3d1+      -0.0040   -0.0019    0.0013    0.0000    0.0000    0.0071    0.0000   -0.0000   -0.0000    0.0000
   42 O3     3d2+       0.0000    0.0000    0.0000   -0.0063   -0.0309   -0.0000    0.0250    0.0020   -0.0940    0.0296
 
 
      Orbital               21        22        23        24        25        26        27        28        29        30
      Energy            0.6867    0.8556    1.0052    1.0219    1.0521    1.6902    1.7266    1.7271    1.7359    2.0123
      Occ. No.          0.0000    0.0000    0.0000    0.0000    0.0000    0.0000    0.0000    0.0000    0.0000    0.0000
 
    1 O1     1s         0.0000   -0.0198   -0.0196   -0.0000    0.0945    0.0000   -0.0025   -0.0000   -0.0603   -0.1080
    2 O1     2s         0.0000   -0.1041   -0.1058   -0.0000    0.5536    0.0000   -0.0208    0.0000   -0.4523   -0.8224
    3 O1     3s         0.0000    0.4540   -0.0411    0.0000   -0.0439    0.0000   -0.0238    0.0000   -0.6644   -0.9280
    4 O1     2px       -0.0000   -0.0127   -0.4656    0.0000   -0.1412    0.0000    0.0466   -0.0000    0.1772    0.0634
    5 O1     3px       -0.0000    0.0089   -0.8998    0.0000   -0.1113    0.0000    0.0280   -0.0000    0.0389    0.0996
    6 O1     2py        0.0000   -0.0392    0.0402   -0.0000   -0.0252   -0.0000    0.0111   -0.0000    0.1284    0.5540
    7 O1     3py       -0.0000    0.3098    0.0160   -0.0000    0.6846   -0.0000    0.0123   -0.0000    0.2269    0.5814
    8 O1     2pz       -0.0875    0.0000    0.0000    0.5035    0.0000   -0.1772   -0.0000   -0.0423    0.0000   -0.0000
    9 O1     3pz       -0.8286   -0.0000    0.0000    0.9060    0.0000    0.0295   -0.0000   -0.0308   -0.0000   -0.0000
   10 O1     3d2-      -0.0000   -0.0339   -0.0437    0.0000   -0.0219    0.0000    0.1638   -0.0000    0.3885   -0.1259
   11 O1     3d1-      -0.0270   -0.0000    0.0000    0.0314    0.0000   -0.4368   -0.0000   -0.1664    0.0000    0.0000
   12 O1     3d0       -0.0000    0.0490    0.0309    0.0000   -0.0658    0.0000    0.3700   -0.0000   -0.0706   -0.0079
   13 O1     3d1+      -0.0008   -0.0000   -0.0000    0.0204    0.0000   -0.1278    0.0000    0.4082   -0.0000   -0.0000
   14 O1     3d2+      -0.0000    0.0718    0.0111    0.0000   -0.1230   -0.0000   -0.1745    0.0000    0.1367   -0.1106
   15 O2     1s         0.0000    0.0118   -0.0088    0.0000   -0.0000   -0.0000    0.0072   -0.0000   -0.0000    0.2643
   16 O2     2s        -0.0000    0.0565   -0.0264   -0.0000   -0.0000   -0.0000    0.0498   -0.0000   -0.0000    1.8908
   17 O2     3s        -0.0000    0.5644   -0.0199   -0.0000   -0.0000   -0.0000    0.0482   -0.0000   -0.0000    1.8860
   18 O2     2px       -0.0000    0.0034    0.6531   -0.0000   -0.0000   -0.0000    0.0389   -0.0000   -0.0000    0.0700
   19 O2     3px       -0.0000   -0.0032    1.6144   -0.0000    0.0000   -0.0000   -0.0563    0.0000   -0.0000    0.1069
   20 O2     2py        0.0000    0.0000    0.0000    0.0000   -0.8030   -0.0000   -0.0000   -0.0000    0.4341   -0.0000
   21 O2     3py       -0.0000   -0.0000    0.0000    0.0000   -1.0261   -0.0000   -0.0000   -0.0000    0.5387   -0.0000
   22 O2     2pz       -0.0000    0.0000   -0.0000   -0.6701   -0.0000    0.0000   -0.0000   -0.0404   -0.0000   -0.0000
   23 O2     3pz       -0.0000    0.0000   -0.0000   -1.6480   -0.0000    0.0000    0.0000    0.0682   -0.0000    0.0000
   24 O2     3d2-       0.0000    0.0000   -0.0000   -0.0000    0.1364    0.0000    0.0000   -0.0000   -0.4718   -0.0000
   25 O2     3d1-       0.0794   -0.0000    0.0000    0.0000    0.0000    0.5736   -0.0000    0.0000    0.0000    0.0000
   26 O2     3d0        0.0000    0.0491    0.0471   -0.0000   -0.0000    0.0000    0.5630   -0.0000    0.0000    0.0907
   27 O2     3d1+      -0.0000   -0.0000    0.0000    0.0325    0.0000   -0.0000    0.0000    0.6590   -0.0000    0.0000
   28 O2     3d2+       0.0000    0.0708    0.0199    0.0000   -0.0000   -0.0000   -0.3425    0.0000   -0.0000    0.1760
   29 O3     1s        -0.0000   -0.0198   -0.0196    0.0000   -0.0945   -0.0000   -0.0025    0.0000    0.0603   -0.1080
   30 O3     2s        -0.0000   -0.1041   -0.1058    0.0000   -0.5536    0.0000   -0.0208    0.0000    0.4523   -0.8224
   31 O3     3s        -0.0000    0.4540   -0.0411   -0.0000    0.0439    0.0000   -0.0238    0.0000    0.6644   -0.9280
   32 O3     2px        0.0000   -0.0127   -0.4656   -0.0000    0.1412   -0.0000    0.0466   -0.0000   -0.1772    0.0634
   33 O3     3px        0.0000    0.0089   -0.8998    0.0000    0.1113    0.0000    0.0280   -0.0000   -0.0389    0.0996
   34 O3     2py        0.0000    0.0392   -0.0402    0.0000   -0.0252    0.0000   -0.0111    0.0000    0.1284   -0.5540
   35 O3     3py       -0.0000   -0.3098   -0.0160   -0.0000    0.6846    0.0000   -0.0123    0.0000    0.2269   -0.5814
   36 O3     2pz        0.0875   -0.0000    0.0000    0.5035    0.0000    0.1772   -0.0000   -0.0423   -0.0000   -0.0000
   37 O3     3pz        0.8286   -0.0000    0.0000    0.9060    0.0000   -0.0295   -0.0000   -0.0308    0.0000    0.0000
   38 O3     3d2-       0.0000    0.0339    0.0437    0.0000   -0.0219   -0.0000   -0.1638    0.0000    0.3885    0.1259
   39 O3     3d1-      -0.0270    0.0000   -0.0000   -0.0314   -0.0000   -0.4368    0.0000    0.1664   -0.0000    0.0000
   40 O3     3d0        0.0000    0.0490    0.0309   -0.0000    0.0658    0.0000    0.3700   -0.0000    0.0706   -0.0079
   41 O3     3d1+       0.0008   -0.0000    0.0000    0.0204    0.0000    0.1278    0.0000    0.4082   -0.0000    0.0000
   42 O3     3d2+       0.0000    0.0718    0.0111   -0.0000    0.1230   -0.0000   -0.1745    0.0000   -0.1367   -0.1106
 
 
      Orbital               31        32        33        34        35        36        37        38        39        40
      Energy            2.0202    2.0970    2.0989    2.4246    2.4286    2.6373    2.7535    2.7928    2.9873    3.5763
      Occ. No.          0.0000    0.0000    0.0000    0.0000    0.0000    0.0000    0.0000    0.0000    0.0000    0.0000
 
    1 O1     1s        -0.2638   -0.0000   -0.0296    0.0400   -0.0000    0.0312   -0.0000   -0.0530    0.0315   -0.0000
    2 O1     2s        -1.7934   -0.0000   -0.1963    0.2589   -0.0000    0.0933   -0.0000   -0.4280    0.3532   -0.0000
    3 O1     3s        -1.5707   -0.0000   -0.1470    0.1497   -0.0000   -0.1842   -0.0000   -0.4148    0.4298   -0.0000
    4 O1     2px        0.1502    0.0000    0.0151    0.0950   -0.0000    0.1180   -0.0000   -0.2375   -0.0917   -0.0000
    5 O1     3px        0.2072    0.0000    0.0448    0.2120   -0.0000    0.2308   -0.0000   -0.3319   -0.0639   -0.0000
    6 O1     2py        0.6158    0.0000    0.0640   -0.1537    0.0000    0.0436    0.0000    0.3606   -0.4157    0.0000
    7 O1     3py        0.1053   -0.0000   -0.0107   -0.0691    0.0000    0.2550    0.0000    0.3399   -0.4123    0.0000
    8 O1     2pz        0.0000    0.0024   -0.0000   -0.0000   -0.1192    0.0000   -0.3169    0.0000   -0.0000   -0.3299
    9 O1     3pz       -0.0000   -0.0224    0.0000   -0.0000   -0.2100    0.0000   -0.4352    0.0000   -0.0000   -0.2047
   10 O1     3d2-      -0.1830   -0.0000   -0.2056   -0.3056    0.0000   -0.3867    0.0000    0.5452    0.3165    0.0000
   11 O1     3d1-       0.0000    0.1819   -0.0000    0.0000    0.3104   -0.0000    0.7361   -0.0000    0.0000    0.6643
   12 O1     3d0        0.0757   -0.0000   -0.6046    0.4881   -0.0000    0.1140    0.0000    0.3398   -0.4093    0.0000
   13 O1     3d1+      -0.0000   -0.6862    0.0000    0.0000    0.5800   -0.0000   -0.1276   -0.0000    0.0000    0.1543
   14 O1     3d2+      -0.1184    0.0000    0.3026   -0.2848    0.0000    0.4971    0.0000    0.4153   -0.6248    0.0000
   15 O2     1s         0.0000   -0.0000    0.0000   -0.0321    0.0000    0.1390    0.0000    0.1802   -0.0000   -0.0000
   16 O2     2s         0.0000   -0.0000    0.0000   -0.3079    0.0000    0.6917    0.0000    1.1749   -0.0000   -0.0000
   17 O2     3s         0.0000   -0.0000    0.0000   -0.4245    0.0000   -0.0963    0.0000    0.6622   -0.0000   -0.0000
   18 O2     2px        0.0000   -0.0000    0.0000   -0.4229    0.0000   -0.2275    0.0000    0.7803   -0.0000   -0.0000
   19 O2     3px        0.0000   -0.0000    0.0000   -0.3932    0.0000   -0.3709    0.0000    0.6824   -0.0000    0.0000
   20 O2     2py        1.9480    0.0000    0.2232   -0.0000    0.0000    0.0000    0.0000    0.0000   -0.7686    0.0000
   21 O2     3py        2.1077    0.0000    0.2357   -0.0000    0.0000    0.0000   -0.0000    0.0000    0.2536    0.0000
   22 O2     2pz       -0.0000    0.0000    0.0000    0.0000    0.4022   -0.0000    0.7587   -0.0000    0.0000    0.0000
   23 O2     3pz        0.0000   -0.0000    0.0000    0.0000    0.3362   -0.0000    0.7433   -0.0000    0.0000    0.0000
   24 O2     3d2-       0.3058    0.0000    0.0578   -0.0000    0.0000    0.0000   -0.0000    0.0000    0.0969    0.0000
   25 O2     3d1-      -0.0000   -0.0199    0.0000   -0.0000   -0.0000    0.0000   -0.0000    0.0000   -0.0000    1.0995
   26 O2     3d0        0.0000   -0.0000    0.0000   -0.4178    0.0000    0.5161    0.0000   -0.3208   -0.0000   -0.0000
   27 O2     3d1+       0.0000   -0.0000    0.0000   -0.0000   -0.5695    0.0000    0.5526   -0.0000    0.0000    0.0000
   28 O2     3d2+       0.0000   -0.0000    0.0000    0.3702   -0.0000    0.1950    0.0000    0.3590   -0.0000   -0.0000
   29 O3     1s         0.2638    0.0000    0.0296    0.0400   -0.0000    0.0312    0.0000   -0.0530   -0.0315    0.0000
   30 O3     2s         1.7934    0.0000    0.1963    0.2589   -0.0000    0.0933   -0.0000   -0.4280   -0.3532    0.0000
   31 O3     3s         1.5707    0.0000    0.1470    0.1497   -0.0000   -0.1842   -0.0000   -0.4148   -0.4298    0.0000
   32 O3     2px       -0.1502   -0.0000   -0.0151    0.0950   -0.0000    0.1180   -0.0000   -0.2375    0.0917    0.0000
   33 O3     3px       -0.2072   -0.0000   -0.0448    0.2120   -0.0000    0.2308   -0.0000   -0.3319    0.0639    0.0000
   34 O3     2py        0.6158    0.0000    0.0640    0.1537   -0.0000   -0.0436   -0.0000   -0.3606   -0.4157    0.0000
   35 O3     3py        0.1053    0.0000   -0.0107    0.0691   -0.0000   -0.2550   -0.0000   -0.3399   -0.4123    0.0000
   36 O3     2pz       -0.0000   -0.0024    0.0000   -0.0000   -0.1192    0.0000   -0.3169   -0.0000   -0.0000    0.3299
   37 O3     3pz       -0.0000    0.0224   -0.0000   -0.0000   -0.2100    0.0000   -0.4352    0.0000   -0.0000    0.2047
   38 O3     3d2-      -0.1830   -0.0000   -0.2056    0.3056   -0.0000    0.3867   -0.0000   -0.5452    0.3165    0.0000
   39 O3     3d1-       0.0000    0.1819   -0.0000   -0.0000   -0.3104    0.0000   -0.7361    0.0000   -0.0000    0.6643
   40 O3     3d0       -0.0757    0.0000    0.6046    0.4881   -0.0000    0.1140    0.0000    0.3398    0.4093   -0.0000
   41 O3     3d1+       0.0000    0.6862   -0.0000    0.0000    0.5800   -0.0000   -0.1276    0.0000    0.0000   -0.1543
   42 O3     3d2+       0.1184   -0.0000   -0.3026   -0.2848    0.0000    0.4971    0.0000    0.4153    0.6248   -0.0000
 
 
      Orbital               41        42
      Energy            3.5791    4.3948
      Occ. No.          0.0000    0.0000
 
    1 O1     1s        -0.0369    0.2309
    2 O1     2s        -0.2335    1.5274
    3 O1     3s        -0.0875    0.7753
    4 O1     2px       -0.2841   -0.2897
    5 O1     3px       -0.1945   -0.1337
    6 O1     2py        0.2179   -1.1095
    7 O1     3py        0.0568   -0.4706
    8 O1     2pz        0.0000   -0.0000
    9 O1     3pz        0.0000   -0.0000
   10 O1     3d2-       0.5693    0.3553
   11 O1     3d1-      -0.0000    0.0000
   12 O1     3d0        0.0438   -0.3401
   13 O1     3d1+      -0.0000    0.0000
   14 O1     3d2+       0.3640   -0.4924
   15 O2     1s        -0.0000   -0.4176
   16 O2     2s        -0.0000   -2.9467
   17 O2     3s        -0.0000   -1.8895
   18 O2     2px        0.0000   -0.1652
   19 O2     3px        0.0000    0.0016
   20 O2     2py        0.2143   -0.0000
   21 O2     3py        0.0347   -0.0000
   22 O2     2pz       -0.0000   -0.0000
   23 O2     3pz       -0.0000    0.0000
   24 O2     3d2-       1.1072   -0.0000
   25 O2     3d1-      -0.0000   -0.0000
   26 O2     3d0        0.0000    0.6940
   27 O2     3d1+      -0.0000    0.0000
   28 O2     3d2+       0.0000    1.2161
   29 O3     1s         0.0369    0.2309
   30 O3     2s         0.2335    1.5274
   31 O3     3s         0.0875    0.7753
   32 O3     2px        0.2841   -0.2897
   33 O3     3px        0.1945   -0.1337
   34 O3     2py        0.2179    1.1095
   35 O3     3py        0.0568    0.4706
   36 O3     2pz       -0.0000    0.0000
   37 O3     3pz       -0.0000   -0.0000
   38 O3     3d2-       0.5693   -0.3553
   39 O3     3d1-      -0.0000   -0.0000
   40 O3     3d0       -0.0438   -0.3401
   41 O3     3d1+       0.0000   -0.0000
   42 O3     3d2+      -0.3640   -0.4924
--
 
      Von Neumann Entropy (Root  1) =  0.57051
 

      Mulliken population analysis for root number:  1
      -----------------------------------------------
 
 
++    Molecular charges:
      ------------------
 
      Mulliken charges per centre and basis function type
      ---------------------------------------------------
 
                O1      O2      O3    
      1s       2.0003  2.0000  2.0003
      2s       1.9316  1.6803  1.9316
      2px      1.9976  1.8672  1.9976
      2pz      1.2553  1.4500  1.2553
      2py      0.8406  0.9287  0.8406
      3s      -0.0122 -0.0251 -0.0122
      3px     -0.0221 -0.0512 -0.0221
      3pz     -0.0090 -0.0066 -0.0090
      3py     -0.0105  0.0138 -0.0105
      3d2+     0.0197  0.0232  0.0197
      3d1+     0.0003  0.0015  0.0003
      3d0      0.0057  0.0069  0.0057
      3d1-     0.0144  0.0330  0.0144
      3d2-     0.0112  0.0324  0.0112
      Total    8.0229  7.9542  8.0229
 
      N-E     -0.0229  0.0458 -0.0229
 
      Total electronic charge=   24.000000
 
      Total            charge=   -0.000000
--
 
 

      Expectation values of various properties for root number:  1
      -----------------------------------------------------------
 
 
++    Molecular properties:
      ---------------------
 
      Charge (e):
                      =   -0.0000
      Dipole Moment (Debye):
      Origin of the operator (Ang)=    0.0000    0.0000    0.0000
                   X=  2.1098E-01               Y= -1.1645E-10               Z=  2.4585E-13           Total=  2.1098E-01
      Quadrupole Moment (Debye*Ang):
      Origin of the operator (Ang)=    0.1406    0.0000    0.0000
                  XX= -1.6409E+01              XY= -5.4515E-12              XZ= -9.4671E-14              YY= -1.5928E+01
                  YZ=  9.8406E-14              ZZ= -1.4769E+01
      In traceless form (Debye*Ang)
                  XX= -1.0606E+00              XY= -8.1773E-12              XZ= -1.4201E-13              YY= -3.3963E-01
                  YZ=  1.4761E-13              ZZ=  1.4002E+00
--
 

      LoProp population analysis for root number:  1
      -----------------------------------------------
 
 
++    LoProp analysis:
      ----------------
 
 
 
  Input file to MOLDEN was generated!
 
 
++    Static properties:
      ------------------
 
 
      LoProp Charges per center
 

                   O1       O2       O3    
      Nuclear      8.0000   8.0000   8.0000
      Electronic  -8.0573  -7.8854  -8.0573
 
      Total       -0.0573   0.1146  -0.0573
--
 
 
      Natural Bond Order analysis for root number:  1
 
++    Natural Bond Order analysis
      ---------------------------
      Based on LoProp computed density
      -------------------------------------------------------------------------------------
      Atom A       Atom B       Bond Order | Atom A       Atom B       Bond Order
        O1           O2             1.968  |   O2           O3             1.968
      -------------------------------------------------------------------------------------
      NBO located     15.999 core electrons.
      NBO located      7.872 electrons involved in    2 bonds.
      The remaining    0.129 electrons are to be considered as diffuse
--
 
--
 
 
  Input file to MOLDEN was generated!
 
      Average orbitals are written to the RASORB file
      Natural orbitals for root   1 are written to the RASORB.1 file
      Spin density orbitals for root   1 are written to the SPDORB.1 file
 
--- Stop Module: rasscf at Thu Jan 25 16:41:59 2024 /rc=_RC_ALL_IS_WELL_ ---
*** files: O3_161.LprOrb O3_161.rasscf.molden O3_161.LoProp.molden O3_161.RasOrb O3_161.RasOrb.1 O3_161.rasscf.h5 O3_161.SpdOrb.1 xmldump
    saved to directory /lustre/isaac/proj/UTK0022/GMJ/DDCASPT2/ozone/O3/O3_161
--- Module rasscf spent 1 second ---

>>> COPY /lustre/isaac/proj/UTK0022/GMJ/DDCASPT2/ozone/1207663/O3_161.rasscf.h5 /lustre/isaac/proj/UTK0022/GMJ/DDCASPT2/ozone/O3/O3_161/

>>> COPY /lustre/isaac/proj/UTK0022/GMJ/DDCASPT2/ozone/1207663/GMJ_Fock_MO.csv /lustre/isaac/proj/UTK0022/GMJ/DDCASPT2/ozone/O3/O3_161/O3_161.GMJ_Fock_MO.csv

*** symbolic link created: INPORB -> O3_161.RasOrb
--- Start Module: caspt2 at Thu Jan 25 16:41:59 2024 ---
 
()()()()()()()()()()()()()()()()()()()()()()()()()()()()()()()()()()()()()()()()()()()()()()()()()()

                                              &CASPT2

                                   only a single process is used
                       available to each process: 16 GB of memory, 1 thread?
()()()()()()()()()()()()()()()()()()()()()()()()()()()()()()()()()()()()()()()()()()()()()()()()()()
 
 Cholesky algorithm in CASPT2 =    1
 
 ###############################################################################
 ###############################################################################
 ###                                                                         ###
 ###                                                                         ###
 ###    User changed nr of frozen orbitals.                                  ###
 ###                                                                         ###
 ###                                                                         ###
 ###############################################################################
 ###############################################################################
 
++    Wave function specifications:
      -----------------------------
 
      Number of closed shell electrons          20
      Number of electrons in active shells       4
      Max number of holes in RAS1 space          0
      Max number of electrons in RAS3 space      0
      Number of inactive orbitals               10
      Number of active orbitals                  3
      Number of secondary orbitals              29
      Spin quantum number                      0.0
      State symmetry                             1
      Number of CSFs                             6
      Number of root(s) available                1
      Root passed to geometry opt.               1
      A file JOBMIX will be created.
      This is a CASSCF or RASSCF reference function
--
 
++    Orbital specifications:
      -----------------------
 
      Symmetry species                           1
                                                 a
      Frozen orbitals                            0
      Inactive orbitals                         10
      Active orbitals                            3
      Secondary orbitals                        29
      Deleted orbitals                           0
      Number of basis functions                 42
--
 
      Type of Fock operator: STANDARD
      Type of 0-order Hamiltonian: STANDARD WITH DEFAULT IPEA
        "IP-EA" denominator shift =      0.25
      The input orbitals and the CI vector will be transformed.
 
--------------------------------------------------------------------------------
 Estimated memory requirements:
  POLY3 :                   250202
  RHS:                      279634
  SIGMA :                   302200
  PRPCTL:                        0
 Available workspace:   1799996563
 
++ CASPT2 computation for group   1
 
********************************************************************************
 Multi-State initialization phase begins for group   1
--------------------------------------------------------------------------------
********************************************************************************
 Compute H0 matrices for state    1
--------------------------------------------------------------------------------
--------------------------------------------------------------------------------
 H0 matrices have been computed.
 
********************************************************************************
  CASPT2 EQUATION SOLUTION
--------------------------------------------------------------------------------
 
  Total nr of CASPT2 parameters:
   Before reduction:       86691
   After  reduction:       82880
 
 The contributions to the second order correlation energy in atomic units.
-----------------------------------------------------------------------------------------------------------------------------
  IT.      VJTU        VJTI        ATVX        AIVX        VJAI        BVAT        BJAT        BJAI        TOTAL       RNORM  
-----------------------------------------------------------------------------------------------------------------------------
   1    -0.000000   -0.001522   -0.014915   -0.101386   -0.017011   -0.017008   -0.122156   -0.263837   -0.537834    0.002170
   2    -0.000000   -0.001541   -0.014968   -0.101734   -0.017027   -0.017013   -0.122173   -0.263839   -0.538295    0.000176
   3    -0.000000   -0.001541   -0.014968   -0.101738   -0.017027   -0.017013   -0.122174   -0.263839   -0.538300    0.000024
   4    -0.000000   -0.001541   -0.014968   -0.101735   -0.017027   -0.017013   -0.122174   -0.263839   -0.538298    0.000003
-------------------------------------------------------------------------------------------------------------------
 
  FINAL CASPT2 RESULT:
 
  Correlation energy /Case, /Symm, and sums:
 VJTU     -0.00000000 -0.00000000
 VJTIP    -0.00154116 -0.00154116
 VJTIM     0.00000000  0.00000000
 ATVX     -0.01496781 -0.01496781
 AIVX     -0.10173529 -0.10173529
 VJAIP    -0.01184953 -0.01184953
 VJAIM    -0.00517757 -0.00517757
 BVATP    -0.01613142 -0.01613142
 BVATM    -0.00088178 -0.00088178
 BJATP    -0.04549371 -0.04549371
 BJATM    -0.07668009 -0.07668009
 BJAIP    -0.17760747 -0.17760747
 BJAIM    -0.08623192 -0.08623192
 Summed:  -0.53829776 -0.53829776
 
      Reference energy:        -224.4834948241
      E2 (Non-variational):      -0.5382977576
      E2 (Variational):          -0.5382977854
      Total energy:            -225.0217926095
      Residual norm:              0.0000002925
      Reference weight:           0.85443
 
      Contributions to the CASPT2 correlation energy
      Active & Virtual Only:         -0.0319810074
      One Inactive Excited:          -0.2239090928
      Two Inactive Excited:          -0.2824076573
 
 
++ Denominators, etc.
----------------------------------------------------------------------------------------------------
 Report on small energy denominators, large coefficients, and large energy contributions.
CASE  SYMM ACTIVE-MIX  NON-ACTIVE INDICES          DENOMINATOR     RHS VALUE       COEFFICIENT     CONTRIBUTION
ATVX     1  Mu1.0006  Se1.016                       1.89653862     -0.06801941      0.03657197     -0.00248760
ATVX     1  Mu1.0005  Se1.021                       1.85560958      0.10664171     -0.05633539     -0.00600770
ATVX     1  Mu1.0006  Se1.024                       2.45172561      0.06166592     -0.02518546     -0.00155308
ATVX     1  Mu1.0005  Se1.026                       2.85904949     -0.07656944      0.02686863     -0.00205732
AIVX     1  Mu1.0005  In1.004 Se1.014               2.62357454      0.08364713     -0.03187877     -0.00266657
AIVX     1  Mu1.0003  In1.005 Se1.014               2.07054867     -0.06582459      0.03133050     -0.00206232
AIVX     1  Mu1.0004  In1.006 Se1.014               1.83969428      0.05584244     -0.03064676     -0.00171139
AIVX     1  Mu1.0005  In1.006 Se1.014               1.99800506     -0.05330185      0.02709470     -0.00144420
AIVX     1  Mu1.0004  In1.007 Se1.014               1.58363103     -0.05232764      0.03334180     -0.00174470
AIVX     1  Mu1.0002  In1.008 Se1.014               1.30230924      0.10388458     -0.07907391     -0.00821456
AIVX     1  Mu1.0003  In1.008 Se1.014               1.39859679      0.05698368     -0.04042777     -0.00230372
AIVX     1  Mu1.0002  In1.009 Se1.014               1.13513279     -0.05456678      0.04754160     -0.00259419
AIVX     1  Mu1.0003  In1.009 Se1.014               1.23142034     -0.03606795      0.02904341     -0.00104754
AIVX     1  Mu1.0002  In1.009 Se1.017               1.45050251     -0.04625186      0.03090258     -0.00142930
AIVX     1  Mu1.0004  In1.010 Se1.017               1.56423470     -0.05783370      0.03687354     -0.00213253
AIVX     1  Mu1.0002  In1.009 Se1.018               1.50056885     -0.04357743      0.02831936     -0.00123409
AIVX     1  Mu1.0004  In1.008 Se1.019               2.05315273      0.12034510     -0.05899423     -0.00709967
AIVX     1  Mu1.0005  In1.008 Se1.019               2.21146351     -0.07381959      0.03355941     -0.00247734
AIVX     1  Mu1.0002  In1.010 Se1.020               1.50637333     -0.07163843      0.04632246     -0.00331847
AIVX     1  Mu1.0003  In1.010 Se1.020               1.60266088     -0.04824488      0.02922485     -0.00140995
AIVX     1  Mu1.0004  In1.006 Se1.022               2.53776670     -0.06723592      0.02646618     -0.00177948
AIVX     1  Mu1.0002  In1.008 Se1.022               2.00038165     -0.05105500      0.02506832     -0.00127986
BJATM    1  Mu1.0002  In1.008 Se1.019 Se1.016       2.61952482      0.06010718     -0.02515867     -0.00151222
BJAIP    1  Se1.014 In1.006 Se1.019 In1.008         2.63862508      0.08721560     -0.03305340     -0.00288277
BJAIP    1  Se1.014 In1.008 Se1.014 In1.008         1.87737219      0.07394755     -0.03938886     -0.00291271
BJAIP    1  Se1.019 In1.008 Se1.019 In1.008         2.85208353      0.10713666     -0.03756431     -0.00402451
BJAIP    1  Se1.017 In1.007 Se1.023 In1.010         2.74126978     -0.06993071      0.02551032     -0.00178395
BJAIP    1  Se1.017 In1.009 Se1.020 In1.010         2.22962956      0.06076603     -0.02725387     -0.00165611
BJAIM    1  Se1.014 In1.008 Se1.016 In1.009         2.02556546     -0.05186605      0.02560571     -0.00132807
--
 
   (Skipping property calculation,
    use PROP keyword to activate)
--
 
  Total CASPT2 energies:
::    CASPT2 Root  1     Total energy:   -225.02179261
 
  A NEW JOBIPH FILE NAMED 'JOBMIX' IS PREPARED.
********************************************************************************
--- Stop Module: caspt2 at Thu Jan 25 16:42:00 2024 /rc=_RC_ALL_IS_WELL_ ---
*** files: xmldump
    saved to directory /lustre/isaac/proj/UTK0022/GMJ/DDCASPT2/ozone/O3/O3_161

>>> EXPORT i = B

>>> EXPORT j = P

>>> IF (-FILE GMJ_e2_${i}_${j}.csv)

>>> COPY /lustre/isaac/proj/UTK0022/GMJ/DDCASPT2/ozone/1207663/GMJ_RHS_B_P.csv /lustre/isaac/proj/UTK0022/GMJ/DDCASPT2/ozone/O3/O3_161/GMJ_RHS_B_P.csv

>>> COPY /lustre/isaac/proj/UTK0022/GMJ/DDCASPT2/ozone/1207663/GMJ_IVECW_B_P.csv /lustre/isaac/proj/UTK0022/GMJ/DDCASPT2/ozone/O3/O3_161/GMJ_IVECW_B_P.csv

>>> COPY /lustre/isaac/proj/UTK0022/GMJ/DDCASPT2/ozone/1207663/GMJ_e2_B_P.csv /lustre/isaac/proj/UTK0022/GMJ/DDCASPT2/ozone/O3/O3_161/GMJ_e2_B_P.csv

>>> END FOREACH

>>> EXPORT j = M

>>> IF (-FILE GMJ_e2_${i}_${j}.csv)
(Skipped)

>>> END FOREACH

>>> END FOREACH

>>> EXPORT i = E

>>> EXPORT j = P

>>> IF (-FILE GMJ_e2_${i}_${j}.csv)

>>> COPY /lustre/isaac/proj/UTK0022/GMJ/DDCASPT2/ozone/1207663/GMJ_RHS_E_P.csv /lustre/isaac/proj/UTK0022/GMJ/DDCASPT2/ozone/O3/O3_161/GMJ_RHS_E_P.csv

>>> COPY /lustre/isaac/proj/UTK0022/GMJ/DDCASPT2/ozone/1207663/GMJ_IVECW_E_P.csv /lustre/isaac/proj/UTK0022/GMJ/DDCASPT2/ozone/O3/O3_161/GMJ_IVECW_E_P.csv

>>> COPY /lustre/isaac/proj/UTK0022/GMJ/DDCASPT2/ozone/1207663/GMJ_e2_E_P.csv /lustre/isaac/proj/UTK0022/GMJ/DDCASPT2/ozone/O3/O3_161/GMJ_e2_E_P.csv

>>> END FOREACH

>>> EXPORT j = M

>>> IF (-FILE GMJ_e2_${i}_${j}.csv)

>>> COPY /lustre/isaac/proj/UTK0022/GMJ/DDCASPT2/ozone/1207663/GMJ_RHS_E_M.csv /lustre/isaac/proj/UTK0022/GMJ/DDCASPT2/ozone/O3/O3_161/GMJ_RHS_E_M.csv

>>> COPY /lustre/isaac/proj/UTK0022/GMJ/DDCASPT2/ozone/1207663/GMJ_IVECW_E_M.csv /lustre/isaac/proj/UTK0022/GMJ/DDCASPT2/ozone/O3/O3_161/GMJ_IVECW_E_M.csv

>>> COPY /lustre/isaac/proj/UTK0022/GMJ/DDCASPT2/ozone/1207663/GMJ_e2_E_M.csv /lustre/isaac/proj/UTK0022/GMJ/DDCASPT2/ozone/O3/O3_161/GMJ_e2_E_M.csv

>>> END FOREACH

>>> END FOREACH

>>> EXPORT i = F

>>> EXPORT j = P

>>> IF (-FILE GMJ_e2_${i}_${j}.csv)

>>> COPY /lustre/isaac/proj/UTK0022/GMJ/DDCASPT2/ozone/1207663/GMJ_RHS_F_P.csv /lustre/isaac/proj/UTK0022/GMJ/DDCASPT2/ozone/O3/O3_161/GMJ_RHS_F_P.csv

>>> COPY /lustre/isaac/proj/UTK0022/GMJ/DDCASPT2/ozone/1207663/GMJ_IVECW_F_P.csv /lustre/isaac/proj/UTK0022/GMJ/DDCASPT2/ozone/O3/O3_161/GMJ_IVECW_F_P.csv

>>> COPY /lustre/isaac/proj/UTK0022/GMJ/DDCASPT2/ozone/1207663/GMJ_e2_F_P.csv /lustre/isaac/proj/UTK0022/GMJ/DDCASPT2/ozone/O3/O3_161/GMJ_e2_F_P.csv

>>> END FOREACH

>>> EXPORT j = M

>>> IF (-FILE GMJ_e2_${i}_${j}.csv)

>>> COPY /lustre/isaac/proj/UTK0022/GMJ/DDCASPT2/ozone/1207663/GMJ_RHS_F_M.csv /lustre/isaac/proj/UTK0022/GMJ/DDCASPT2/ozone/O3/O3_161/GMJ_RHS_F_M.csv

>>> COPY /lustre/isaac/proj/UTK0022/GMJ/DDCASPT2/ozone/1207663/GMJ_IVECW_F_M.csv /lustre/isaac/proj/UTK0022/GMJ/DDCASPT2/ozone/O3/O3_161/GMJ_IVECW_F_M.csv

>>> COPY /lustre/isaac/proj/UTK0022/GMJ/DDCASPT2/ozone/1207663/GMJ_e2_F_M.csv /lustre/isaac/proj/UTK0022/GMJ/DDCASPT2/ozone/O3/O3_161/GMJ_e2_F_M.csv

>>> END FOREACH

>>> END FOREACH

>>> EXPORT i = G

>>> EXPORT j = P

>>> IF (-FILE GMJ_e2_${i}_${j}.csv)

>>> COPY /lustre/isaac/proj/UTK0022/GMJ/DDCASPT2/ozone/1207663/GMJ_RHS_G_P.csv /lustre/isaac/proj/UTK0022/GMJ/DDCASPT2/ozone/O3/O3_161/GMJ_RHS_G_P.csv

>>> COPY /lustre/isaac/proj/UTK0022/GMJ/DDCASPT2/ozone/1207663/GMJ_IVECW_G_P.csv /lustre/isaac/proj/UTK0022/GMJ/DDCASPT2/ozone/O3/O3_161/GMJ_IVECW_G_P.csv

>>> COPY /lustre/isaac/proj/UTK0022/GMJ/DDCASPT2/ozone/1207663/GMJ_e2_G_P.csv /lustre/isaac/proj/UTK0022/GMJ/DDCASPT2/ozone/O3/O3_161/GMJ_e2_G_P.csv

>>> END FOREACH

>>> EXPORT j = M

>>> IF (-FILE GMJ_e2_${i}_${j}.csv)

>>> COPY /lustre/isaac/proj/UTK0022/GMJ/DDCASPT2/ozone/1207663/GMJ_RHS_G_M.csv /lustre/isaac/proj/UTK0022/GMJ/DDCASPT2/ozone/O3/O3_161/GMJ_RHS_G_M.csv

>>> COPY /lustre/isaac/proj/UTK0022/GMJ/DDCASPT2/ozone/1207663/GMJ_IVECW_G_M.csv /lustre/isaac/proj/UTK0022/GMJ/DDCASPT2/ozone/O3/O3_161/GMJ_IVECW_G_M.csv

>>> COPY /lustre/isaac/proj/UTK0022/GMJ/DDCASPT2/ozone/1207663/GMJ_e2_G_M.csv /lustre/isaac/proj/UTK0022/GMJ/DDCASPT2/ozone/O3/O3_161/GMJ_e2_G_M.csv

>>> END FOREACH

>>> END FOREACH

>>> EXPORT i = H

>>> EXPORT j = P

>>> IF (-FILE GMJ_e2_${i}_${j}.csv)

>>> COPY /lustre/isaac/proj/UTK0022/GMJ/DDCASPT2/ozone/1207663/GMJ_RHS_H_P.csv /lustre/isaac/proj/UTK0022/GMJ/DDCASPT2/ozone/O3/O3_161/GMJ_RHS_H_P.csv

>>> COPY /lustre/isaac/proj/UTK0022/GMJ/DDCASPT2/ozone/1207663/GMJ_IVECW_H_P.csv /lustre/isaac/proj/UTK0022/GMJ/DDCASPT2/ozone/O3/O3_161/GMJ_IVECW_H_P.csv

>>> COPY /lustre/isaac/proj/UTK0022/GMJ/DDCASPT2/ozone/1207663/GMJ_e2_H_P.csv /lustre/isaac/proj/UTK0022/GMJ/DDCASPT2/ozone/O3/O3_161/GMJ_e2_H_P.csv

>>> END FOREACH

>>> EXPORT j = M

>>> IF (-FILE GMJ_e2_${i}_${j}.csv)

>>> COPY /lustre/isaac/proj/UTK0022/GMJ/DDCASPT2/ozone/1207663/GMJ_RHS_H_M.csv /lustre/isaac/proj/UTK0022/GMJ/DDCASPT2/ozone/O3/O3_161/GMJ_RHS_H_M.csv

>>> COPY /lustre/isaac/proj/UTK0022/GMJ/DDCASPT2/ozone/1207663/GMJ_IVECW_H_M.csv /lustre/isaac/proj/UTK0022/GMJ/DDCASPT2/ozone/O3/O3_161/GMJ_IVECW_H_M.csv

>>> COPY /lustre/isaac/proj/UTK0022/GMJ/DDCASPT2/ozone/1207663/GMJ_e2_H_M.csv /lustre/isaac/proj/UTK0022/GMJ/DDCASPT2/ozone/O3/O3_161/GMJ_e2_H_M.csv

>>> END FOREACH

>>> END FOREACH

>>> EXPORT i = A

>>> IF (-FILE GMJ_e2_$i.csv)

>>> COPY /lustre/isaac/proj/UTK0022/GMJ/DDCASPT2/ozone/1207663/GMJ_RHS_A.csv /lustre/isaac/proj/UTK0022/GMJ/DDCASPT2/ozone/O3/O3_161/GMJ_RHS_A.csv

>>> COPY /lustre/isaac/proj/UTK0022/GMJ/DDCASPT2/ozone/1207663/GMJ_IVECW_A.csv /lustre/isaac/proj/UTK0022/GMJ/DDCASPT2/ozone/O3/O3_161/GMJ_IVECW_A.csv

>>> COPY /lustre/isaac/proj/UTK0022/GMJ/DDCASPT2/ozone/1207663/GMJ_e2_A.csv /lustre/isaac/proj/UTK0022/GMJ/DDCASPT2/ozone/O3/O3_161/GMJ_e2_A.csv

>>> END FOREACH

>>> EXPORT i = C

>>> IF (-FILE GMJ_e2_$i.csv)

>>> COPY /lustre/isaac/proj/UTK0022/GMJ/DDCASPT2/ozone/1207663/GMJ_RHS_C.csv /lustre/isaac/proj/UTK0022/GMJ/DDCASPT2/ozone/O3/O3_161/GMJ_RHS_C.csv

>>> COPY /lustre/isaac/proj/UTK0022/GMJ/DDCASPT2/ozone/1207663/GMJ_IVECW_C.csv /lustre/isaac/proj/UTK0022/GMJ/DDCASPT2/ozone/O3/O3_161/GMJ_IVECW_C.csv

>>> COPY /lustre/isaac/proj/UTK0022/GMJ/DDCASPT2/ozone/1207663/GMJ_e2_C.csv /lustre/isaac/proj/UTK0022/GMJ/DDCASPT2/ozone/O3/O3_161/GMJ_e2_C.csv

>>> END FOREACH

>>> EXPORT i = D

>>> IF (-FILE GMJ_e2_$i.csv)

>>> COPY /lustre/isaac/proj/UTK0022/GMJ/DDCASPT2/ozone/1207663/GMJ_RHS_D.csv /lustre/isaac/proj/UTK0022/GMJ/DDCASPT2/ozone/O3/O3_161/GMJ_RHS_D.csv

>>> COPY /lustre/isaac/proj/UTK0022/GMJ/DDCASPT2/ozone/1207663/GMJ_IVECW_D.csv /lustre/isaac/proj/UTK0022/GMJ/DDCASPT2/ozone/O3/O3_161/GMJ_IVECW_D.csv

>>> COPY /lustre/isaac/proj/UTK0022/GMJ/DDCASPT2/ozone/1207663/GMJ_e2_D.csv /lustre/isaac/proj/UTK0022/GMJ/DDCASPT2/ozone/O3/O3_161/GMJ_e2_D.csv

>>> END FOREACH

    Timing: Wall=19.34 User=11.64 System=6.12
********************************************************************************
*** WorkDir at /lustre/isaac/proj/UTK0022/GMJ/DDCASPT2/ozone/1207663 cleaned ***
********************************************************************************
