[Molden Format]
[N_Atoms]
                     2
[Atoms] (AU)
C1          1      6           0.00000000      0.00000000      0.00000000
N2          2      7           0.00000000      0.00000000      4.72431531
[Charge] (Mulliken)
 -1.295541001974065E-002
  1.295541001968026E-002
[GTO] (AU)
   1
   s  14
  5.055750100E+04  1.128874000E-04
  7.524785600E+03  5.295373000E-04
  1.694327600E+03  2.450038300E-03
  4.728227900E+02  1.005398470E-02
  1.517107500E+02  3.545398060E-02
  5.391874600E+01  1.044071086E-01
  2.065931100E+01  2.412894918E-01
  8.383976000E+00  3.834225483E-01
  3.577015000E+00  3.078514393E-01
  1.547118000E+00  6.872442990E-02
  6.130130000E-01  2.224445000E-04
  2.460680000E-01  1.976748900E-03
  9.908700000E-02  2.057859400E-03
  3.468000000E-02  4.182020000E-04
   s  14
  5.055750100E+04 -2.507420000E-05
  7.524785600E+03 -1.175945000E-04
  1.694327600E+03 -5.456275000E-04
  4.728227900E+02 -2.245077100E-03
  1.517107500E+02 -8.043471800E-03
  5.391874600E+01 -2.442588710E-02
  2.065931100E+01 -6.136791180E-02
  8.383976000E+00 -1.177767835E-01
  3.577015000E+00 -1.550487783E-01
  1.547118000E+00 -1.933316860E-02
  6.130130000E-01  3.996930678E-01
  2.460680000E-01  5.589420949E-01
  9.908700000E-02  1.711195023E-01
  3.468000000E-02  7.456244600E-03
   p   9
  8.333315500E+01  1.344656000E-03
  1.955761100E+01  1.023555500E-02
  6.080365000E+00  4.520067100E-02
  2.179317000E+00  1.410756198E-01
  8.651500000E-01  3.047388085E-01
  3.619440000E-01  3.995281011E-01
  1.547400000E-01  2.719163432E-01
  6.542900000E-02  5.857669330E-02
  2.290000000E-02 -1.263813000E-04
 
   2
   s  14
  7.476171500E+04  1.182599996E-04
  1.112365400E+04  5.172899983E-04
  2.512685700E+03  2.266659992E-03
  7.037772900E+02  9.145289970E-03
  2.254787900E+02  3.239342989E-02
  7.961581000E+01  9.770792967E-02
  3.023728300E+01  2.317036792E-01
  1.226362200E+01  3.768898887E-01
  5.265086000E+00  3.177420689E-01
  2.333471000E+00  8.211308973E-02
  9.018560000E-01  3.312089989E-03
  3.583360000E-01  3.720819988E-03
  1.410930000E-01  3.165419989E-03
  4.938300000E-02  4.595799985E-04
   s  14
  7.476171500E+04 -2.707000010E-05
  1.112365400E+04 -1.183700004E-04
  2.512685700E+03 -5.203800020E-04
  7.037772900E+02 -2.102930008E-03
  2.254787900E+02 -7.568200028E-03
  7.961581000E+01 -2.346767009E-02
  3.023728300E+01 -6.042901023E-02
  1.226362200E+01 -1.170549104E-01
  5.265086000E+00 -1.555321506E-01
  2.333471000E+00 -2.468935009E-02
  9.018560000E-01  3.625054514E-01
  3.583360000E-01  5.550845021E-01
  1.410930000E-01  2.148376908E-01
  4.938300000E-02  8.983850034E-03
   p   9
  1.266665700E+02  1.233630000E-03
  2.983738900E+01  9.493409996E-03
  9.394038000E+00  4.293961998E-02
  3.405104000E+00  1.362925399E-01
  1.350000000E+00  2.921362499E-01
  5.576960000E-01  3.887887598E-01
  2.324490000E-01  2.946801399E-01
  9.426400000E-02  8.012875997E-02
  3.299200000E-02  5.405199998E-04
 
[MO]
Sym=     1a  
Ene=   -15.6200
Spin= Alpha
Occup=    1.00000
   1        -0.00003875
   2        -0.00048633
   3        -0.00000000
   4        -0.00000000
   5        -0.00055072
   6         1.00000364
   7        -0.00226720
   8        -0.00000000
   9        -0.00000000
  10        -0.00011404
Sym=     1a  
Ene=   -15.5270
Spin= Beta
Occup=    1.00000
   1        -0.00002340
   2        -0.00020361
   3        -0.00000000
   4        -0.00000000
   5        -0.00017465
   6         0.99996173
   7        -0.00897077
   8        -0.00000000
   9        -0.00000000
  10        -0.00005199
Sym=     2a  
Ene=   -11.2030
Spin= Alpha
Occup=    1.00000
   1         0.99998934
   2        -0.00486226
   3        -0.00000000
   4        -0.00000000
   5         0.00010578
   6        -0.00002427
   7        -0.00021626
   8         0.00000000
   9        -0.00000000
  10         0.00010990
Sym=     2a  
Ene=   -11.2500
Spin= Beta
Occup=    1.00000
   1         1.00000400
   2         0.00016237
   3        -0.00000000
   4         0.00000000
   5         0.00030523
   6        -0.00004153
   7        -0.00047241
   8        -0.00000000
   9        -0.00000000
  10         0.00044556
Sym=     3a  
Ene=    -1.1445
Spin= Alpha
Occup=    1.00000
   1        -0.00211454
   2         0.01249390
   3         0.00000000
   4        -0.00000000
   5         0.00412328
   6         0.00228622
   7         0.99862659
   8         0.00000000
   9        -0.00000000
  10        -0.00618269
Sym=     3a  
Ene=    -0.7987
Spin= Beta
Occup=    1.00000
   1        -0.00089906
   2         0.92534659
   3         0.00000000
   4        -0.00000000
   5         0.03681808
   6        -0.00005702
   7         0.31478020
   8         0.00000000
   9        -0.00000000
  10        -0.01738441
Sym=     4a  
Ene=    -0.5968
Spin= Alpha
Occup=    1.00000
   1         0.00150323
   2        -0.59788164
   3        -0.00000000
   4         0.00000000
   5        -0.01337116
   6         0.00200308
   7         0.05329658
   8        -0.00000000
   9         0.00000000
  10         0.74429530
Sym=     4a  
Ene=    -0.7152
Spin= Beta
Occup=    1.00000
   1        -0.00212440
   2        -0.38027502
   3        -0.00000000
   4        -0.00000000
   5         0.02070132
   6         0.00943503
   7         0.94697885
   8         0.00000000
   9        -0.00000000
  10        -0.00720289
Sym=     5a  
Ene=    -0.5622
Spin= Alpha
Occup=    1.00000
   1         0.00000000
   2         0.00000000
   3         0.00214375
   4         0.00991235
   5        -0.00000000
   6         0.00000000
   7        -0.00000000
   8         0.21128677
   9         0.97695517
  10         0.00000000
Sym=     5a  
Ene=    -0.4027
Spin= Beta
Occup=    1.00000
   1         0.00000000
   2         0.00000000
   3         0.95334309
   4        -0.29805734
   5        -0.00000000
   6         0.00000000
   7         0.00000000
   8         0.02138805
   9        -0.00668685
  10         0.00000000
Sym=     6a  
Ene=    -0.5622
Spin= Alpha
Occup=    1.00000
   1        -0.00000000
   2         0.00000000
   3        -0.00991235
   4         0.00214375
   5        -0.00000000
   6        -0.00000000
   7         0.00000000
   8        -0.97695517
   9         0.21128677
  10        -0.00000000
Sym=     6a  
Ene=    -0.4027
Spin= Beta
Occup=    1.00000
   1        -0.00000000
   2        -0.00000000
   3         0.29805734
   4         0.95334309
   5        -0.00000000
   6         0.00000000
   7         0.00000000
   8         0.00668685
   9         0.02138805
  10         0.00000000
Sym=     7a  
Ene=    -0.5161
Spin= Alpha
Occup=    1.00000
   1         0.00807380
   2         0.80684034
   3         0.00000000
   4        -0.00000000
   5        -0.07830280
   6        -0.00186653
   7        -0.04744180
   8        -0.00000000
   9        -0.00000000
  10         0.65994136
Sym=     7a  
Ene=     0.0942
Spin= Beta
Occup=    0.00000
   1         0.00217994
   2         0.06055412
   3        -0.00000000
   4        -0.00000000
   5        -0.88781901
   6         0.00795424
   7         0.13292147
   8        -0.00000000
   9        -0.00000000
  10         0.36777267
Sym=     8a  
Ene=     0.1922
Spin= Alpha
Occup=    0.00000
   1         0.00175541
   2         0.07506441
   3         0.00000000
   4         0.00000000
   5         1.01227736
   6        -0.00879888
   7        -0.12280094
   8        -0.00000000
   9        -0.00000000
  10         0.19567743
Sym=     8a  
Ene=     0.2401
Spin= Beta
Occup=    0.00000
   1         0.00000000
   2         0.00000000
   3        -0.03169615
   4        -0.05392002
   5         0.00000000
   6        -0.00000000
   7        -0.00000000
   8         0.50704607
   9         0.86256325
  10         0.00000000
Sym=     9a  
Ene=     0.2370
Spin= Alpha
Occup=    0.00000
   1        -0.00000000
   2        -0.00000000
   3         0.95713914
   4        -0.29222432
   5        -0.00000000
   6         0.00000000
   7         0.00000000
   8        -0.04810445
   9         0.01468678
  10        -0.00000000
Sym=     9a  
Ene=     0.2401
Spin= Beta
Occup=    0.00000
   1         0.00000000
   2         0.00000000
   3        -0.05392002
   4         0.03169615
   5        -0.00000000
   6         0.00000000
   7        -0.00000000
   8         0.86256325
   9        -0.50704607
  10         0.00000000
Sym=    10a  
Ene=     0.2370
Spin= Alpha
Occup=    0.00000
   1        -0.00000000
   2        -0.00000000
   3         0.29222432
   4         0.95713914
   5        -0.00000000
   6         0.00000000
   7         0.00000000
   8        -0.01468678
   9        -0.04810445
  10        -0.00000000
Sym=    10a  
Ene=     0.2830
Spin= Beta
Occup=    0.00000
   1         0.00596603
   2         0.09862125
   3         0.00000000
   4         0.00000000
   5         0.49094404
   6        -0.00465525
   7        -0.06186470
   8        -0.00000000
   9        -0.00000000
  10         0.94457130
