[Molden Format]
[N_Atoms]
                     2
[Atoms] (AU)
C1          1      6           0.00000000      0.00000000      0.00000000
N2          2      7           0.00000000      0.00000000      4.72431531
[Charge] (Mulliken)
  0.267199284638631     
 -0.267199284638660     
[GTO] (AU)
   1
   s  14
  5.055750100E+04  1.128874000E-04
  7.524785600E+03  5.295373000E-04
  1.694327600E+03  2.450038300E-03
  4.728227900E+02  1.005398470E-02
  1.517107500E+02  3.545398060E-02
  5.391874600E+01  1.044071086E-01
  2.065931100E+01  2.412894918E-01
  8.383976000E+00  3.834225483E-01
  3.577015000E+00  3.078514393E-01
  1.547118000E+00  6.872442990E-02
  6.130130000E-01  2.224445000E-04
  2.460680000E-01  1.976748900E-03
  9.908700000E-02  2.057859400E-03
  3.468000000E-02  4.182020000E-04
   s  14
  5.055750100E+04 -2.507420000E-05
  7.524785600E+03 -1.175945000E-04
  1.694327600E+03 -5.456275000E-04
  4.728227900E+02 -2.245077100E-03
  1.517107500E+02 -8.043471800E-03
  5.391874600E+01 -2.442588710E-02
  2.065931100E+01 -6.136791180E-02
  8.383976000E+00 -1.177767835E-01
  3.577015000E+00 -1.550487783E-01
  1.547118000E+00 -1.933316860E-02
  6.130130000E-01  3.996930678E-01
  2.460680000E-01  5.589420949E-01
  9.908700000E-02  1.711195023E-01
  3.468000000E-02  7.456244600E-03
   p   9
  8.333315500E+01  1.344656000E-03
  1.955761100E+01  1.023555500E-02
  6.080365000E+00  4.520067100E-02
  2.179317000E+00  1.410756198E-01
  8.651500000E-01  3.047388085E-01
  3.619440000E-01  3.995281011E-01
  1.547400000E-01  2.719163432E-01
  6.542900000E-02  5.857669330E-02
  2.290000000E-02 -1.263813000E-04
 
   2
   s  14
  7.476171500E+04  1.182599996E-04
  1.112365400E+04  5.172899983E-04
  2.512685700E+03  2.266659992E-03
  7.037772900E+02  9.145289970E-03
  2.254787900E+02  3.239342989E-02
  7.961581000E+01  9.770792967E-02
  3.023728300E+01  2.317036792E-01
  1.226362200E+01  3.768898887E-01
  5.265086000E+00  3.177420689E-01
  2.333471000E+00  8.211308973E-02
  9.018560000E-01  3.312089989E-03
  3.583360000E-01  3.720819988E-03
  1.410930000E-01  3.165419989E-03
  4.938300000E-02  4.595799985E-04
   s  14
  7.476171500E+04 -2.707000010E-05
  1.112365400E+04 -1.183700004E-04
  2.512685700E+03 -5.203800020E-04
  7.037772900E+02 -2.102930008E-03
  2.254787900E+02 -7.568200028E-03
  7.961581000E+01 -2.346767009E-02
  3.023728300E+01 -6.042901023E-02
  1.226362200E+01 -1.170549104E-01
  5.265086000E+00 -1.555321506E-01
  2.333471000E+00 -2.468935009E-02
  9.018560000E-01  3.625054514E-01
  3.583360000E-01  5.550845021E-01
  1.410930000E-01  2.148376908E-01
  4.938300000E-02  8.983850034E-03
   p   9
  1.266665700E+02  1.233630000E-03
  2.983738900E+01  9.493409996E-03
  9.394038000E+00  4.293961998E-02
  3.405104000E+00  1.362925399E-01
  1.350000000E+00  2.921362499E-01
  5.576960000E-01  3.887887598E-01
  2.324490000E-01  2.946801399E-01
  9.426400000E-02  8.012875997E-02
  3.299200000E-02  5.405199998E-04
 
[MO]
Sym=     1a  
Ene=   -15.3700
Spin= Alpha
Occup=    1.00000
   1        -0.00002247
   2        -0.00034687
   3         0.00000006
   4         0.00000000
   5        -0.00041824
   6         0.99999099
   7        -0.00519790
   8         0.00000001
   9         0.00000000
  10        -0.00013073
Sym=     1a  
Ene=   -15.3700
Spin= Beta
Occup=    1.00000
   1        -0.00002247
   2        -0.00034687
   3         0.00000006
   4         0.00000000
   5        -0.00041824
   6         0.99999099
   7        -0.00519790
   8         0.00000001
   9         0.00000000
  10        -0.00013073
Sym=     2a  
Ene=   -11.4210
Spin= Alpha
Occup=    1.00000
   1         0.99999695
   2        -0.00307352
   3         0.00000006
   4         0.00000000
   5         0.00005720
   6        -0.00003868
   7        -0.00024415
   8        -0.00000002
   9        -0.00000000
  10         0.00017526
Sym=     2a  
Ene=   -11.4210
Spin= Beta
Occup=    1.00000
   1         0.99999695
   2        -0.00307352
   3         0.00000006
   4         0.00000000
   5         0.00005720
   6        -0.00003868
   7        -0.00024415
   8        -0.00000002
   9        -0.00000000
  10         0.00017526
Sym=     3a  
Ene=    -0.8315
Spin= Alpha
Occup=    1.00000
   1        -0.00065401
   2         0.43548247
   3        -0.00000048
   4        -0.00000001
   5         0.01646253
   6         0.00318092
   7         0.87029272
   8         0.00000310
   9         0.00000004
  10        -0.01188533
Sym=     3a  
Ene=    -0.8315
Spin= Beta
Occup=    1.00000
   1        -0.00065401
   2         0.43548247
   3        -0.00000048
   4        -0.00000001
   5         0.01646253
   6         0.00318092
   7         0.87029272
   8         0.00000310
   9         0.00000004
  10        -0.01188533
Sym=     4a  
Ene=    -0.7589
Spin= Alpha
Occup=    1.00000
   1         0.00377502
   2         0.89970385
   3         0.00000518
   4         0.00000007
   5        -0.02684374
   6        -0.00499087
   7        -0.48956968
   8         0.00000066
   9         0.00000001
  10        -0.01732475
Sym=     4a  
Ene=    -0.7589
Spin= Beta
Occup=    1.00000
   1         0.00377502
   2         0.89970385
   3         0.00000518
   4         0.00000007
   5        -0.02684374
   6        -0.00499087
   7        -0.48956968
   8         0.00000066
   9         0.00000001
  10        -0.01732475
Sym=     5a  
Ene=    -0.2502
Spin= Alpha
Occup=    1.00000
   1         0.00000003
   2         0.00000347
   3        -0.41445089
   4        -0.00724233
   5        -0.00003616
   6         0.00000034
   7         0.00000589
   8        -0.89342285
   9        -0.01561214
  10         0.00000387
Sym=     5a  
Ene=    -0.2502
Spin= Beta
Occup=    1.00000
   1         0.00000003
   2         0.00000347
   3        -0.41445089
   4        -0.00724233
   5        -0.00003616
   6         0.00000034
   7         0.00000589
   8        -0.89342285
   9        -0.01561214
  10         0.00000387
Sym=     6a  
Ene=    -0.2501
Spin= Alpha
Occup=    1.00000
   1         0.00000000
   2         0.00000001
   3        -0.00724277
   4         0.41447602
   5        -0.00000013
   6         0.00000000
   7         0.00000002
   8        -0.01561192
   9         0.89341042
  10         0.00000001
Sym=     6a  
Ene=    -0.2501
Spin= Beta
Occup=    1.00000
   1         0.00000000
   2         0.00000001
   3        -0.00724277
   4         0.41447602
   5        -0.00000013
   6         0.00000000
   7         0.00000002
   8        -0.01561192
   9         0.89341042
  10         0.00000001
Sym=     7a  
Ene=    -0.1916
Spin= Alpha
Occup=    1.00000
   1         0.00005803
   2        -0.01359273
   3         0.00019380
   4         0.00000270
   5        -0.99526389
   6         0.00873011
   7         0.13960705
   8        -0.00005568
   9        -0.00000077
  10         0.06516004
Sym=     7a  
Ene=    -0.1916
Spin= Beta
Occup=    0.00000
   1         0.00005803
   2        -0.01359273
   3         0.00019380
   4         0.00000270
   5        -0.99526389
   6         0.00873011
   7         0.13960705
   8        -0.00005568
   9        -0.00000077
  10         0.06516004
Sym=     8a  
Ene=    -0.0000
Spin= Alpha
Occup=    0.00000
   1         0.00313374
   2         0.05708375
   3        -0.80557433
   4        -0.01120396
   5         0.09256599
   6        -0.00095700
   7        -0.01339512
   8         0.39860857
   9         0.00554377
  10         0.47205275
Sym=     8a  
Ene=    -0.0000
Spin= Beta
Occup=    0.00000
   1         0.00313374
   2         0.05708375
   3        -0.80557433
   4        -0.01120396
   5         0.09256599
   6        -0.00095700
   7        -0.01339512
   8         0.39860857
   9         0.00554377
  10         0.47205275
Sym=     9a  
Ene=    -0.0018
Spin= Alpha
Occup=    0.00000
   1         0.00000000
   2         0.00000000
   3         0.01266778
   4        -0.91082926
   5         0.00000000
   6        -0.00000000
   7        -0.00000000
   8        -0.00626870
   9         0.45071947
  10         0.00000002
Sym=     9a  
Ene=    -0.0018
Spin= Beta
Occup=    0.00000
   1         0.00000000
   2         0.00000000
   3         0.01266778
   4        -0.91082926
   5         0.00000000
   6        -0.00000000
   7        -0.00000000
   8        -0.00626870
   9         0.45071947
  10         0.00000002
Sym=    10a  
Ene=     0.2030
Spin= Alpha
Occup=    0.00000
   1        -0.00593881
   2        -0.10818289
   3        -0.42506556
   4        -0.00591185
   5        -0.17584777
   6         0.00181742
   7         0.02543706
   8         0.21032600
   9         0.00292518
  10        -0.89459762
Sym=    10a  
Ene=     0.2030
Spin= Beta
Occup=    0.00000
   1        -0.00593881
   2        -0.10818289
   3        -0.42506556
   4        -0.00591185
   5        -0.17584777
   6         0.00181742
   7         0.02543706
   8         0.21032600
   9         0.00292518
  10        -0.89459762
