[Molden Format]
[N_Atoms]
                     2
[Atoms] (AU)
C1          1      6           0.00000000      0.00000000      0.00000000
N2          2      7           0.00000000      0.00000000      4.72431531
[Charge] (Mulliken)
  8.509816691141125E-002
 -8.509816691146099E-002
[GTO] (AU)
   1
   s  14
  5.055750100E+04  1.128874000E-04
  7.524785600E+03  5.295373000E-04
  1.694327600E+03  2.450038300E-03
  4.728227900E+02  1.005398470E-02
  1.517107500E+02  3.545398060E-02
  5.391874600E+01  1.044071086E-01
  2.065931100E+01  2.412894918E-01
  8.383976000E+00  3.834225483E-01
  3.577015000E+00  3.078514393E-01
  1.547118000E+00  6.872442990E-02
  6.130130000E-01  2.224445000E-04
  2.460680000E-01  1.976748900E-03
  9.908700000E-02  2.057859400E-03
  3.468000000E-02  4.182020000E-04
   s  14
  5.055750100E+04 -2.507420000E-05
  7.524785600E+03 -1.175945000E-04
  1.694327600E+03 -5.456275000E-04
  4.728227900E+02 -2.245077100E-03
  1.517107500E+02 -8.043471800E-03
  5.391874600E+01 -2.442588710E-02
  2.065931100E+01 -6.136791180E-02
  8.383976000E+00 -1.177767835E-01
  3.577015000E+00 -1.550487783E-01
  1.547118000E+00 -1.933316860E-02
  6.130130000E-01  3.996930678E-01
  2.460680000E-01  5.589420949E-01
  9.908700000E-02  1.711195023E-01
  3.468000000E-02  7.456244600E-03
   p   9
  8.333315500E+01  1.344656000E-03
  1.955761100E+01  1.023555500E-02
  6.080365000E+00  4.520067100E-02
  2.179317000E+00  1.410756198E-01
  8.651500000E-01  3.047388085E-01
  3.619440000E-01  3.995281011E-01
  1.547400000E-01  2.719163432E-01
  6.542900000E-02  5.857669330E-02
  2.290000000E-02 -1.263813000E-04
 
   2
   s  14
  7.476171500E+04  1.182599996E-04
  1.112365400E+04  5.172899983E-04
  2.512685700E+03  2.266659992E-03
  7.037772900E+02  9.145289970E-03
  2.254787900E+02  3.239342989E-02
  7.961581000E+01  9.770792967E-02
  3.023728300E+01  2.317036792E-01
  1.226362200E+01  3.768898887E-01
  5.265086000E+00  3.177420689E-01
  2.333471000E+00  8.211308973E-02
  9.018560000E-01  3.312089989E-03
  3.583360000E-01  3.720819988E-03
  1.410930000E-01  3.165419989E-03
  4.938300000E-02  4.595799985E-04
   s  14
  7.476171500E+04 -2.707000010E-05
  1.112365400E+04 -1.183700004E-04
  2.512685700E+03 -5.203800020E-04
  7.037772900E+02 -2.102930008E-03
  2.254787900E+02 -7.568200028E-03
  7.961581000E+01 -2.346767009E-02
  3.023728300E+01 -6.042901023E-02
  1.226362200E+01 -1.170549104E-01
  5.265086000E+00 -1.555321506E-01
  2.333471000E+00 -2.468935009E-02
  9.018560000E-01  3.625054514E-01
  3.583360000E-01  5.550845021E-01
  1.410930000E-01  2.148376908E-01
  4.938300000E-02  8.983850034E-03
   p   9
  1.266665700E+02  1.233630000E-03
  2.983738900E+01  9.493409996E-03
  9.394038000E+00  4.293961998E-02
  3.405104000E+00  1.362925399E-01
  1.350000000E+00  2.921362499E-01
  5.576960000E-01  3.887887598E-01
  2.324490000E-01  2.946801399E-01
  9.426400000E-02  8.012875997E-02
  3.299200000E-02  5.405199998E-04
 
[MO]
Sym=     1a  
Ene=   -15.4800
Spin= Alpha
Occup=    1.00000
   1        -0.00035933
   2        -0.00029897
   3        -0.00000923
   4        -0.00002170
   5         0.00546408
   6         0.99992434
   7        -0.00535579
   8        -0.00007685
   9        -0.00018138
  10        -0.00118089
Sym=     1a  
Ene=   -15.4800
Spin= Beta
Occup=    1.00000
   1        -0.00035933
   2        -0.00029897
   3        -0.00000923
   4        -0.00002170
   5         0.00546408
   6         0.99992434
   7        -0.00535579
   8        -0.00007685
   9        -0.00018138
  10        -0.00118089
Sym=     2a  
Ene=   -11.2970
Spin= Alpha
Occup=    1.00000
   1         0.99987269
   2        -0.00245309
   3        -0.00002250
   4        -0.00005293
   5         0.01443234
   6         0.00008665
   7         0.00014485
   8        -0.00018689
   9        -0.00044108
  10        -0.00207547
Sym=     2a  
Ene=   -11.2970
Spin= Beta
Occup=    1.00000
   1         0.99987269
   2        -0.00245309
   3        -0.00002250
   4        -0.00005293
   5         0.01443234
   6         0.00008665
   7         0.00014485
   8        -0.00018689
   9        -0.00044108
  10        -0.00207547
Sym=     3a  
Ene=    -0.8595
Spin= Alpha
Occup=    1.00000
   1        -0.00175958
   2         0.13164481
   3         0.00025222
   4         0.00059350
   5        -0.12536253
   6         0.00611530
   7         0.98846138
   8         0.00241381
   9         0.00569668
  10         0.03026646
Sym=     3a  
Ene=    -0.8595
Spin= Beta
Occup=    1.00000
   1        -0.00175958
   2         0.13164481
   3         0.00025222
   4         0.00059350
   5        -0.12536253
   6         0.00611530
   7         0.98846138
   8         0.00241381
   9         0.00569668
  10         0.03026646
Sym=     4a  
Ene=    -0.7090
Spin= Alpha
Occup=    1.00000
   1        -0.00277796
   2        -0.98875320
   3        -0.00000982
   4        -0.00002308
   5         0.01074737
   6         0.00385993
   7         0.19158142
   8        -0.00013503
   9        -0.00031883
  10         0.03985322
Sym=     4a  
Ene=    -0.7090
Spin= Beta
Occup=    1.00000
   1        -0.00277796
   2        -0.98875320
   3        -0.00000982
   4        -0.00002308
   5         0.01074737
   6         0.00385993
   7         0.19158142
   8        -0.00013503
   9        -0.00031883
  10         0.03985322
Sym=     5a  
Ene=    -0.3676
Spin= Alpha
Occup=    1.00000
   1        -0.00003481
   2        -0.00104691
   3         0.01873411
   4         0.04421588
   5         0.03211316
   6        -0.00028454
   7        -0.00532536
   8         0.38870774
   9         0.91741214
  10        -0.00633837
Sym=     5a  
Ene=    -0.3676
Spin= Beta
Occup=    1.00000
   1        -0.00003481
   2        -0.00104691
   3         0.01873411
   4         0.04421588
   5         0.03211316
   6        -0.00028454
   7        -0.00532536
   8         0.38870774
   9         0.91741214
  10        -0.00633837
Sym=     6a  
Ene=    -0.3701
Spin= Alpha
Occup=    1.00000
   1         0.01587135
   2        -0.00871347
   3         0.00152012
   4         0.00357580
   5        -0.96549182
   6         0.01372504
   7        -0.02165329
   8         0.01266722
   9         0.02989610
  10         0.15145067
Sym=     6a  
Ene=    -0.3701
Spin= Beta
Occup=    1.00000
   1         0.01587135
   2        -0.00871347
   3         0.00152012
   4         0.00357580
   5        -0.96549182
   6         0.01372504
   7        -0.02165329
   8         0.01266722
   9         0.02989610
  10         0.15145067
Sym=     7a  
Ene=    -0.0000
Spin= Alpha
Occup=    1.00000
   1         0.00000001
   2         0.00000026
   3        -0.02614839
   4         0.01107908
   5         0.00000006
   6        -0.00000000
   7         0.00000004
   8        -0.91934099
   9         0.38952501
  10         0.00000217
Sym=     7a  
Ene=    -0.0000
Spin= Beta
Occup=    0.00000
   1         0.00000001
   2         0.00000026
   3        -0.02614839
   4         0.01107908
   5         0.00000006
   6        -0.00000000
   7         0.00000004
   8        -0.91934099
   9         0.38952501
  10         0.00000217
Sym=     8a  
Ene=     0.1011
Spin= Alpha
Occup=    0.00000
   1         0.00000923
   2         0.00018601
   3        -0.38998907
   4        -0.92043409
   5        -0.00196165
   6         0.00001667
   7         0.00022813
   8         0.03441183
   9         0.08121723
  10         0.00146026
Sym=     8a  
Ene=     0.1011
Spin= Beta
Occup=    0.00000
   1         0.00000923
   2         0.00018601
   3        -0.38998907
   4        -0.92043409
   5        -0.00196165
   6         0.00001667
   7         0.00022813
   8         0.03441183
   9         0.08121723
  10         0.00146026
Sym=     9a  
Ene=     0.1015
Spin= Alpha
Occup=    0.00000
   1         0.00000002
   2         0.00000041
   3        -0.92113218
   4         0.39028486
   5        -0.00000390
   6         0.00000003
   7         0.00000045
   8         0.06309500
   9        -0.02673344
  10         0.00000304
Sym=     9a  
Ene=     0.1015
Spin= Beta
Occup=    0.00000
   1         0.00000002
   2         0.00000041
   3        -0.92113218
   4         0.39028486
   5        -0.00000390
   6         0.00000003
   7         0.00000045
   8         0.06309500
   9        -0.02673344
  10         0.00000304
Sym=    10a  
Ene=     0.1948
Spin= Alpha
Occup=    0.00000
   1        -0.00674047
   2        -0.13864352
   3        -0.00045303
   4        -0.00106314
   5        -0.28592640
   6         0.00282597
   7         0.05609132
   8        -0.00042821
   9        -0.00100573
  10        -1.00116749
Sym=    10a  
Ene=     0.1948
Spin= Beta
Occup=    0.00000
   1        -0.00674047
   2        -0.13864352
   3        -0.00045303
   4        -0.00106314
   5        -0.28592640
   6         0.00282597
   7         0.05609132
   8        -0.00042821
   9        -0.00100573
  10        -1.00116749
