[Molden Format]
[N_Atoms]
                     2
[Atoms] (AU)
LI1         1      3           0.00000000      0.00000000      0.00000000
O2          2      8           0.00000000      0.00000000      3.77945225
[Charge] (Mulliken)
  0.617882497788982     
 -0.617882497789005     
[GTO] (AU)
   1
   s  14
  9.497934400E+03  9.668999974E-05
  1.416811200E+03  6.087099984E-04
  3.214599400E+02  3.101519992E-03
  9.112416300E+01  1.266904997E-02
  2.999989100E+01  4.248012989E-02
  1.101763100E+01  1.150183297E-01
  4.372801000E+00  2.398650094E-01
  1.831256000E+00  3.584300090E-01
  8.022610000E-01  3.048527792E-01
  3.626480000E-01  8.824261976E-02
  1.139950000E-01 -8.445899977E-04
  5.123700000E-02 -7.943959979E-03
  2.246800000E-02 -3.764419990E-03
  7.860000000E-03 -8.868999976E-05
   s  14
  9.497934400E+03 -1.244999993E-05
  1.416811200E+03 -7.838999954E-05
  3.214599400E+02 -4.007099976E-04
  9.112416300E+01 -1.645249990E-03
  2.999989100E+01 -5.634599967E-03
  1.101763100E+01 -1.590780991E-02
  4.372801000E+00 -3.612581979E-02
  1.831256000E+00 -6.459927962E-02
  8.022610000E-01 -1.008321794E-01
  3.626480000E-01 -9.757613942E-02
  1.139950000E-01  2.301215886E-01
  5.123700000E-02  6.102389764E-01
  2.246800000E-02  2.849406083E-01
  7.860000000E-03  4.026899976E-03
   p   9
  1.311950400E+01  1.524940000E-03
  3.077424200E+00  8.314830000E-03
  1.098800500E+00  1.933203000E-02
  4.357784000E-01  4.934293000E-02
  1.802432000E-01  1.623554000E-01
  7.613330000E-02  3.847505400E-01
  3.254650000E-02  4.336100400E-01
  1.401820000E-02  1.287005900E-01
  4.906400000E-03 -1.018520000E-03
 
   2
   s  14
  1.053749500E+05  1.238600013E-04
  1.567924000E+04  5.120100053E-04
  3.534544700E+03  2.152910022E-03
  9.873651600E+02  8.528440089E-03
  3.159787500E+02  3.018049031E-02
  1.116542800E+02  9.099702095E-02
  4.269945100E+01  2.177936423E-01
  1.739559600E+01  3.686245738E-01
  7.438309000E+00  3.366707335E-01
  3.222862000E+00  9.657630101E-02
  1.253877000E+00  2.144520022E-03
  4.951550000E-01  1.194350012E-03
  1.916650000E-01  5.390200056E-04
  6.708300000E-02  2.103400022E-04
   s  14
  1.053749500E+05 -2.815000008E-05
  1.567924000E+04 -1.163000003E-04
  3.534544700E+03 -4.909200013E-04
  9.873651600E+02 -1.946160005E-03
  3.159787500E+02 -7.005300019E-03
  1.116542800E+02 -2.167814006E-02
  4.269945100E+01 -5.641213015E-02
  1.739559600E+01 -1.127053003E-01
  7.438309000E+00 -1.589119704E-01
  3.222862000E+00 -3.355083009E-02
  1.253877000E+00  3.531902810E-01
  4.951550000E-01  5.534199315E-01
  1.916650000E-01  2.301839106E-01
  6.708300000E-02  1.127267003E-02
   p   9
  2.000000000E+02  9.173000030E-04
  4.653336700E+01  7.377140024E-03
  1.462180900E+01  3.483515011E-02
  5.313064000E+00  1.144397004E-01
  2.102525000E+00  2.554966408E-01
  8.502230000E-01  3.722557412E-01
  3.375970000E-01  3.323314911E-01
  1.288920000E-01  1.400847905E-01
  4.511200000E-02  2.395784008E-02
 
[MO]
Sym=     1a  
Ene=   -20.2950
Spin= Alpha
Occup=    1.00000
   1        -0.00012427
   2        -0.00064340
   3        -0.00000000
   4        -0.00000000
   5        -0.00074476
   6         1.00004609
   7         0.00216475
   8        -0.00000000
   9        -0.00000000
  10        -0.00066148
Sym=     1a  
Ene=   -20.2530
Spin= Beta
Occup=    1.00000
   1        -0.00007702
   2        -0.00030798
   3        -0.00000000
   4        -0.00000000
   5        -0.00032944
   6         1.00002158
   7        -0.00026340
   8        -0.00000000
   9         0.00000000
  10        -0.00054052
Sym=     2a  
Ene=    -2.4997
Spin= Alpha
Occup=    1.00000
   1         0.99968951
   2         0.01255184
   3        -0.00000000
   4         0.00000000
   5        -0.00255493
   6        -0.00008872
   7         0.00429559
   8         0.00000000
   9        -0.00000000
  10        -0.00235118
Sym=     2a  
Ene=    -2.5017
Spin= Beta
Occup=    1.00000
   1         0.99972497
   2         0.01262310
   3         0.00000000
   4        -0.00000000
   5        -0.00242302
   6        -0.00008377
   7         0.00354104
   8         0.00000000
   9        -0.00000000
  10        -0.00203221
Sym=     3a  
Ene=    -1.1115
Spin= Alpha
Occup=    1.00000
   1        -0.02625081
   2         0.02146497
   3         0.00000000
   4        -0.00000000
   5         0.02750887
   6        -0.00343441
   7         0.98234055
   8        -0.00000000
   9        -0.00000000
  10        -0.04972423
Sym=     3a  
Ene=    -0.9281
Spin= Beta
Occup=    1.00000
   1        -0.02424456
   2         0.05284861
   3         0.00000000
   4        -0.00000000
   5         0.05692134
   6        -0.00330136
   7         0.96199671
   8        -0.00000000
   9        -0.00000000
  10        -0.02855648
Sym=     4a  
Ene=    -0.4262
Spin= Alpha
Occup=    1.00000
   1        -0.00000000
   2         0.00000000
   3         0.06453306
   4         0.02304892
   5         0.00000000
   6        -0.00000000
   7        -0.00000000
   8         0.92825591
   9         0.33154007
  10         0.00000000
Sym=     4a  
Ene=    -0.2869
Spin= Beta
Occup=    1.00000
   1         0.05385448
   2        -0.26807254
   3         0.00000000
   4        -0.00000000
   5        -0.12488649
   6         0.01270233
   7         0.17158660
   8         0.00000000
   9        -0.00000000
  10         0.91563765
Sym=     5a  
Ene=    -0.3645
Spin= Alpha
Occup=    1.00000
   1         0.05616476
   2        -0.12306434
   3         0.00000000
   4        -0.00000000
   5        -0.09211567
   6         0.00739699
   7         0.12398129
   8         0.00000000
   9        -0.00000000
  10         0.96573797
Sym=     5a  
Ene=    -0.2588
Spin= Beta
Occup=    1.00000
   1         0.00000000
   2        -0.00000000
   3        -0.09373589
   4         0.26244457
   5         0.00000000
   6         0.00000000
   7         0.00000000
   8        -0.30698531
   9         0.85950676
  10         0.00000000
Sym=     6a  
Ene=    -0.3489
Spin= Alpha
Occup=    1.00000
   1         0.00000000
   2        -0.00000000
   3        -0.04112332
   4         0.11513830
   5        -0.00000000
   6         0.00000000
   7         0.00000000
   8        -0.32668657
   9         0.91466695
  10         0.00000000
Sym=     6a  
Ene=    -0.0020
Spin= Beta
Occup=    0.00000
   1         0.00116027
   2         0.80892737
   3        -0.00000000
   4        -0.00000000
   5        -0.57297794
   6         0.00249159
   7        -0.00297571
   8        -0.00000000
   9         0.00000000
  10         0.21688418
Sym=     7a  
Ene=    -0.0002
Spin= Alpha
Occup=    0.00000
   1        -0.00425188
   2         0.84114529
   3        -0.00000000
   4        -0.00000000
   5        -0.54385669
   6         0.00044194
   7        -0.01841421
   8        -0.00000000
   9         0.00000000
  10         0.12652281
Sym=     7a  
Ene=     0.0540
Spin= Beta
Occup=    0.00000
   1        -0.00000000
   2         0.00000000
   3         0.92123512
   4         0.32903249
   5        -0.00000000
   6         0.00000000
   7         0.00000000
   8         0.09191376
   9         0.03282833
  10         0.00000000
Sym=     8a  
Ene=     0.0754
Spin= Alpha
Occup=    0.00000
   1        -0.00000000
   2         0.00000000
   3         0.95442622
   4         0.34088717
   5        -0.00000000
   6         0.00000000
   7         0.00000000
   8        -0.23115985
   9        -0.08256209
  10        -0.00000000
Sym=     8a  
Ene=     0.0882
Spin= Beta
Occup=    0.00000
   1         0.00000000
   2         0.00000000
   3        -0.32855578
   4         0.91990041
   5        -0.00000000
   6        -0.00000000
   7        -0.00000000
   8         0.14998445
   9        -0.41993101
  10         0.00000000
Sym=     9a  
Ene=     0.0840
Spin= Alpha
Occup=    0.00000
   1         0.00000000
   2         0.00000000
   3        -0.33918165
   4         0.94965103
   5         0.00000000
   6        -0.00000000
   7        -0.00000000
   8         0.10005598
   9        -0.28013977
  10         0.00000000
Sym=     9a  
Ene=     0.2173
Spin= Beta
Occup=    0.00000
   1         0.02793047
   2         0.62147207
   3         0.00000000
   4        -0.00000000
   5         0.91769387
   6        -0.05423191
   7        -0.56053329
   8         0.00000000
   9         0.00000000
  10         0.38719758
Sym=    10a  
Ene=     0.1978
Spin= Alpha
Occup=    0.00000
   1         0.02188114
   2         0.62619276
   3         0.00000000
   4        -0.00000000
   5         0.94036120
   6        -0.05480729
   7        -0.53700291
   8        -0.00000000
   9         0.00000000
  10         0.29161038
Sym=    10a  
Ene=     0.3940
Spin= Beta
Occup=    0.00000
   1        -0.00000000
   2        -0.00000000
   3        -0.25772032
   4        -0.09204855
   5        -0.00000000
   6         0.00000000
   7         0.00000000
   8         0.95217949
   9         0.34008472
  10         0.00000000
