   This run of MOLCAS is using the pymolcas driver

                             OPE
                             OPE          NMOL  CASOP  ENMOLC A   SO
                 OPE        NMOLC        AS  OP EN  MO LC     AS  OP
                OPENM       OL CA        SO  PE NM  OL CA     SOP EN
                OP EN      MO   LC       AS  OP ENMOL  CASO   PENMOL
                OP  EN     MO   LC       AS  OP EN     MO     LC ASO
               OP   E  NMOL  C  AS       OP  EN MO     LC     AS  OP
               OP  E   NMO   LC AS        OPEN  MO     LCASOP EN   M
               O  PEN   MO  LCA  SO
            OPE   NMO   L   CAS    OP
        OPENMOL  CASOP     ENMOL   CASOPE
     OPENMOLCA   SOPENMOLCASOPEN   MOLCASOPE
    OPENMOLCAS   OP           EN   MOL    CAS
    OPENMOLCAS       OP  ENM        O     LCA
    OPENMOLCAS    OPEN  MOLCASO     P  E  NMO
    OPENMOLCAS     OP               E  N  MOL
    OPENMOLCA   SO           PENM   O  L  CAS    OPEN    MO    LCAS
    OPENMOLCA   SOP           ENM   O  L  CAS   OP  EN  MOLC  AS   O
    OPENMOLCA   SOPE           NM      O  LCA   S      OP  EN MO
    OPENMOLC                AS         O  PEN   M      OL  CA  SOPE
    OPENMO        LCASOPE  NMOL        C  ASO   P      ENMOLC     AS
    OPE     NMO      LCA  SO     P     E   NM   OL  CA SO  PE N   MO
          OPENMOLCA            SOPE   NMO        LCAS  O    P  ENMO
     OPENMOLCASOPENMOLCASOPENMOLCASOPENMOLCA
        OPENMOLCASOPENMOLCASOPENMOLCASOPE
            OPENMOLCASOPENMOLCASOPENM
               OPENMOLCASOPENMOLCA        version: ea9280fa7-dirty
                   OPENMOLCASO
                       OPE                tag:

 OpenMolcas is free software; you can redistribute it and/or modify it
 under the terms of the GNU Lesser General Public License version 2.1.
 OpenMolcas is distributed in the hope that it will be useful, but it
 is provided "as is" and without any express or implied warranties.
 For more details see the full text of the license in the file
 LICENSE or in <http://www.gnu.org/licenses/>.

                 Copyright (C) The OpenMolcas Authors
           For the author list and the recommended citation,
                   consult the file CONTRIBUTORS.md

           *************************************************
           * pymolcas version py2.28                       *
           *   build c4a6d18ded8cb6cad61d2372a9abd97c      *
           *   (after the EMIL interpreter by V. Veryazov) *
           *************************************************

configuration info
------------------
C Compiler ID: IntelLLVM
C flags: -std=gnu99
Fortran Compiler ID: IntelLLVM
Fortran flags: -standard-semantics -fltconsistency -fpp -i8 -heap-arrays
Definitions: _MOLCAS_;_I8_;_LINUX_
Parallel: OFF (GA=OFF)


   ----------------------------------------------------------------------------------
  |
  |              Project: H16_0.94
  |       Submitted from: /home/grierjones/DDCASPT2/hydrogen_comps/H16_chain/H16_0.94
  |         Scratch area: /tmp/H16_0.94
  |      Save outputs to: /home/grierjones/DDCASPT2/hydrogen_comps/H16_chain/H16_0.94
  |               Molcas: /home/grierjones/Test/build
  |
  | Scratch area is empty
  |
  |       MOLCAS_DRIVER = /usr/local/pymolcas
  | MOLCAS_KEEP_WORKDIR = NO
  |  MOLCAS_NEW_WORKDIR = YES
  |       MOLCAS_NPROCS = 1
  |        MOLCAS_PRINT = NORMAL
  |       MOLCAS_SOURCE = /home/grierjones/Test
  |    MOLCAS_STRUCTURE = 0
  |
   ----------------------------------------------------------------------------------

++ ---------   Input file   ---------

&GATEWAY
coord=H16_0.94.xyz
Basis = ANO-RCC-VDZP
Group = nosymm
Expert
End of Input

&SEWARD
End of Input

&SCF

>>> COPY $WorkDir/H16_0.94.scf.h5 $CurrDir/

&RASSCF
Title= RASSCF
NACTEL
16 0 0
Inactive
0
RAS2
16
Symmetry
1
Spin
1
orblisting
all
ITERation
300 200

>>> COPY $WorkDir/H16_0.94.rasscf.h5 $CurrDir/

>>> COPY $WorkDir/GMJ_Fock_MO.csv $CurrDir/H16_0.94.GMJ_Fock_MO.csv

>>> COPY $WorkDir/GMJ_PT2_Fock_MO.csv $CurrDir/H16_0.94.GMJ_PT2_Fock_MO.csv

&MOTRA
Frozen=0
LUMORB

>>> COPY $WorkDir/GMJ_one_int_indx.csv $CurrDir/H16_0.94.GMJ_one_int_indx.csv

>>> COPY $WorkDir/GMJ_one_int.csv $CurrDir/H16_0.94.GMJ_one_int.csv

>>> COPY $WorkDir/GMJ_two_int_indx.csv $CurrDir/H16_0.94.GMJ_two_int_indx.csv

>>> COPY $WorkDir/GMJ_two_int.csv $CurrDir/H16_0.94.GMJ_two_int.csv

&CASPT2
Frozen
0
MAXITER
50

>>> FOREACH i IN (B,E,F,G,H)

  >>> FOREACH j IN (P,M)

    >>> IF (-FILE GMJ_e2_${i}_${j}.csv)

      >>> COPY $WorkDir/GMJ_RHS_${i}_${j}.csv $CurrDir/GMJ_RHS_${i}_${j}.csv

      >>> COPY $WorkDir/GMJ_IVECW_${i}_${j}.csv $CurrDir/GMJ_IVECW_${i}_${j}.csv

      >>> COPY $WorkDir/GMJ_IVECX_${i}_${j}.csv $CurrDir/GMJ_IVECX_${i}_${j}.csv

      >>> COPY $WorkDir/GMJ_IVECC2_${i}_${j}.csv $CurrDir/GMJ_IVECC2_${i}_${j}.csv

      >>> COPY $WorkDir/GMJ_e2_${i}_${j}.csv $CurrDir/GMJ_e2_${i}_${j}.csv

    >>> END IF

  >>> END FOREACH

>>> END FOREACH

>>> FOREACH i IN (A,C,D)

  >>> IF (-FILE GMJ_e2_$i.csv)

    >>> COPY $WorkDir/GMJ_RHS_$i.csv $CurrDir/GMJ_RHS_$i.csv

    >>> COPY $WorkDir/GMJ_IVECW_$i.csv $CurrDir/GMJ_IVECW_$i.csv

    >>> COPY $WorkDir/GMJ_IVECX_$i.csv $CurrDir/GMJ_IVECX_$i.csv

    >>> COPY $WorkDir/GMJ_IVECC2_$i.csv $CurrDir/GMJ_IVECC2_$i.csv

    >>> COPY $WorkDir/GMJ_e2_$i.csv $CurrDir/GMJ_e2_$i.csv

  >>> END IF

>>> END FOREACH

-- ----------------------------------

--- Start Module: gateway at Mon Feb 24 21:55:25 2025 ---
 
()()()()()()()()()()()()()()()()()()()()()()()()()()()()()()()()()()()()()()()()()()()()()()()()()()

                                              &GATEWAY

                                   only a single process is used
                       available to each process: 2.0 GB of memory, 1 thread?
()()()()()()()()()()()()()()()()()()()()()()()()()()()()()()()()()()()()()()()()()()()()()()()()()()
 
 ###############################################################################
 ###############################################################################
 ###                                                                         ###
 ###                                                                         ###
 ###                                                                         ###
 ###    WARNING: EXPERT option is ON!                                        ###
 ###                                                                         ###
 ###                                                                         ###
 ###############################################################################
 ###############################################################################
 
++    Symmetry information:
      ---------------------
 
                    Character Table for C1 
 
                             E  
                    a        1  x, y, xy, Rz, z, xz, Ry, yz, Rx, I
--
 
 
++    Basis set information:
      ----------------------
 
 
      Basis set label: H.ANO-RCC...2S1P.
 
      Electronic valence basis set:
      ------------------
      Associated Effective Charge   1.000000 au
      Associated Actual Charge      1.000000 au
      Nuclear Model: Point charge
 
      Shell  nPrim  nBasis  Cartesian Spherical Contaminant
         s       8       2        X                  
         p       4       1        X                  
--
 
 
++    Molecular structure info:
      -------------------------
 
                    ************************************************ 
                    **** Cartesian Coordinates / Bohr, Angstrom **** 
                    ************************************************ 
 
     Center  Label                x              y              z                     x              y              z
        1      H1               0.000000       0.000000       0.000000              0.000000       0.000000       0.000000
        2      H2               0.000000       0.000000       1.776343              0.000000       0.000000       0.940000
        3      H3               0.000000       0.000000       3.552685              0.000000       0.000000       1.880000
        4      H4               0.000000       0.000000       5.329028              0.000000       0.000000       2.820000
        5      H5               0.000000       0.000000       7.105370              0.000000       0.000000       3.760000
        6      H6               0.000000       0.000000       8.881713              0.000000       0.000000       4.700000
        7      H7               0.000000       0.000000      10.658055              0.000000       0.000000       5.640000
        8      H8               0.000000       0.000000      12.434398              0.000000       0.000000       6.580000
        9      H9               0.000000       0.000000      14.210740              0.000000       0.000000       7.520000
       10      H10              0.000000       0.000000      15.987083              0.000000       0.000000       8.460000
       11      H11              0.000000       0.000000      17.763426              0.000000       0.000000       9.400000
       12      H12              0.000000       0.000000      19.539768              0.000000       0.000000      10.340000
       13      H13              0.000000       0.000000      21.316111              0.000000       0.000000      11.280000
       14      H14              0.000000       0.000000      23.092453              0.000000       0.000000      12.220000
       15      H15              0.000000       0.000000      24.868796              0.000000       0.000000      13.160000
       16      H16              0.000000       0.000000      26.645138              0.000000       0.000000      14.100000
 
                    ************************************************* 
                    **** InterNuclear Distances / Bohr, Angstrom **** 
                    ************************************************* 
 
     Atom centers         Bohr        Angstrom
    2 H2        1 H1      1.776343        0.940000
    3 H3        2 H2    
    4 H4        3 H3    
    5 H5        4 H4    
    6 H6        5 H5    
    7 H7        6 H6    
    8 H8        7 H7    
    9 H9        8 H8    
   10 H10       9 H9    
   11 H11      10 H10   
   12 H12      11 H11   
   13 H13      12 H12   
   14 H14      13 H13   
   15 H15      14 H14   
   16 H16      15 H15   
    3 H3        1 H1      3.552685        1.880000
    4 H4        2 H2    
    5 H5        3 H3    
    6 H6        4 H4    
    7 H7        5 H5    
    8 H8        6 H6    
    9 H9        7 H7    
   10 H10       8 H8    
   11 H11       9 H9    
   12 H12      10 H10   
   13 H13      11 H11   
   14 H14      12 H12   
   15 H15      13 H13   
   16 H16      14 H14   
    4 H4        1 H1      5.329028        2.820000
    5 H5        2 H2    
    6 H6        3 H3    
    7 H7        4 H4    
    8 H8        5 H5    
    9 H9        6 H6    
   10 H10       7 H7    
   11 H11       8 H8    
   12 H12       9 H9    
   13 H13      10 H10   
   14 H14      11 H11   
   15 H15      12 H12   
   16 H16      13 H13   
--
 
 
            Nuclear Potential Energy             21.44387282 au
 
 ###############################################################################
 ###############################################################################
 ###                                                                         ###
 ###                                                                         ###
 ###    There were warnings during the execution                             ###
 ###    Please, check the output with care!                                  ###
 ###                                                                         ###
 ###                                                                         ###
 ###############################################################################
 ###############################################################################
--- Stop Module: gateway at Mon Feb 24 21:55:26 2025 /rc=_RC_ALL_IS_WELL_ ---
*** files: xmldump
    saved to directory /home/grierjones/DDCASPT2/hydrogen_comps/H16_chain/H16_0.94

--- Start Module: seward at Mon Feb 24 21:55:26 2025 ---
 
()()()()()()()()()()()()()()()()()()()()()()()()()()()()()()()()()()()()()()()()()()()()()()()()()()

                                              &SEWARD

                                   only a single process is used
                       available to each process: 2.0 GB of memory, 1 thread?
()()()()()()()()()()()()()()()()()()()()()()()()()()()()()()()()()()()()()()()()()()()()()()()()()()
 
 ###############################################################################
 ###############################################################################
 ###                                                                         ###
 ###                                                                         ###
 ###                                                                         ###
 ###    WARNING: EXPERT option is ON!                                        ###
 ###                                                                         ###
 ###                                                                         ###
 ###############################################################################
 ###############################################################################
               SEWARD will generate:
                  Multipole Moment integrals up to order  2
                  Kinetic Energy integrals
                  Nuclear Attraction integrals (point charge)
                  One-Electron Hamiltonian integrals
                  Velocity integrals
                  Relativistic Douglas-Kroll-Hess integrals:
                    - Parametrization         : EXP
                    - DKH order of Hamiltonian: 2
                    - DKH order of Properties : 0
                         - multipole moment operators
                         - electric potential operators
                         - contact operators
                  Atomic mean-field integrals
                  Two-Electron Repulsion integrals
 
                   Integrals are discarded if absolute value <: 0.10E-13
                   Integral cutoff threshold is set to       <: 0.10E-15
 
            Nuclear Potential Energy             21.44387282 au
 
 
      Basis set specifications :
      Symmetry species         a  
      Basis functions           80
 
 
  Input file to MOLDEN was generated!
 
 ###############################################################################
 ###############################################################################
 ###                                                                         ###
 ###                                                                         ###
 ###    There were warnings during the execution                             ###
 ###    Please, check the output with care!                                  ###
 ###                                                                         ###
 ###                                                                         ###
 ###############################################################################
 ###############################################################################
forrtl: warning (525): IEEE_DIVIDE_BY_ZERO is signaling
forrtl: warning (526): IEEE_INVALID is signaling
forrtl: warning (528): IEEE_UNDERFLOW is signaling
--- Stop Module: seward at Mon Feb 24 21:55:29 2025 /rc=_RC_ALL_IS_WELL_ ---
*** files: H16_0.94.GssOrb H16_0.94.guessorb.h5 H16_0.94.guessorb.molden xmldump
    saved to directory /home/grierjones/DDCASPT2/hydrogen_comps/H16_chain/H16_0.94
--- Module seward spent 3 seconds ---

*** symbolic link created: INPORB -> H16_0.94.GssOrb
--- Start Module: scf at Mon Feb 24 21:55:29 2025 ---
 
()()()()()()()()()()()()()()()()()()()()()()()()()()()()()()()()()()()()()()()()()()()()()()()()()()

                                                &SCF

                                   only a single process is used
                       available to each process: 2.0 GB of memory, 1 thread?
()()()()()()()()()()()()()()()()()()()()()()()()()()()()()()()()()()()()()()()()()()()()()()()()()()
 
++    Input section:
      --------------
 
      Header of the integral files:
      
       Integrals generated by seward 4.2.0  , Mon Feb 24 21:55:26 2025
 
 
      Cartesian coordinates in Angstrom:
      -----------------------------------------------------
      No.  Label        X            Y            Z        
      -----------------------------------------------------
       1   H1         0.00000000   0.00000000   0.00000000
       2   H2         0.00000000   0.00000000   0.94000000
       3   H3         0.00000000   0.00000000   1.88000000
       4   H4         0.00000000   0.00000000   2.82000000
       5   H5         0.00000000   0.00000000   3.76000000
       6   H6         0.00000000   0.00000000   4.70000000
       7   H7         0.00000000   0.00000000   5.64000000
       8   H8         0.00000000   0.00000000   6.58000000
       9   H9         0.00000000   0.00000000   7.52000000
      10   H10        0.00000000   0.00000000   8.46000000
      11   H11        0.00000000   0.00000000   9.40000000
      12   H12        0.00000000   0.00000000  10.34000000
      13   H13        0.00000000   0.00000000  11.28000000
      14   H14        0.00000000   0.00000000  12.22000000
      15   H15        0.00000000   0.00000000  13.16000000
      16   H16        0.00000000   0.00000000  14.10000000
      -----------------------------------------------------
      Nuclear repulsion energy =   21.44387282
--
 
++    Orbital specifications:
      -----------------------
 
      Symmetry species               1
                                     a
      Frozen orbitals                0
      Occupied orbitals              8
      Secondary orbitals            72
      Deleted orbitals               0
      Total number of orbitals      80
      Number of basis functions     80
--
 
      Molecular charge                           0.000
 
++    Optimization specifications:
      ----------------------------
 
      SCF Algorithm: Conventional
      Minimized density differences are used
      Number of density matrices in core                5
      Maximum number of NDDO SCF iterations           400
      Maximum number of HF SCF iterations             400
      Threshold for SCF energy change            0.10E-08
      Threshold for density matrix               0.10E-03
      Threshold for Fock matrix                  0.15E-03
      Threshold for linear dependence            0.10E-08
      Threshold at which DIIS is turned on       0.15E+00
      Threshold at which QNR/C2DIIS is turned on 0.75E-01
      Threshold for Norm(delta) (QNR/C2DIIS)     0.20E-04
      DIIS extrapolation of the SCF procedure
      All orbitals punched on: SCFORB
--
 
      Input vectors read from INPORB
      Orbital file label: *Guess orbitals
 
 
++ Convergence information
                                   SCF        iterations: Energy and convergence statistics
 
Iter     Tot. SCF        One-elec.       Two-elec.     Energy      Max Dij or  Max Fij      DNorm      TNorm      AccCon     Time
         Energy          Energy          Energy        Change      Delta Norm                                                in Sec.
   1    -8.400327055   -50.139915302    20.295715430   0.00E+00    0.26E+00*   0.21E+00*    0.55E+01   0.30E+02   None         0.
   2    -8.592904029   -50.797386276    20.760609430  -0.19E+00*   0.95E-01*   0.21E-01*    0.26E+01   0.31E+02   EDIIS        0.
   3    -8.602163885   -50.775030858    20.728994156  -0.93E-02*   0.36E-01*   0.73E-02*    0.61E+00   0.31E+02   EDIIS        0.
   4    -8.603472288   -50.789089205    20.741744100  -0.13E-02*   0.14E-01*   0.51E-02*    0.21E+00   0.31E+02   c2DIIS       0.
   5    -8.603880479   -50.789532488    20.741779192  -0.41E-03*   0.39E-02*   0.11E-02*    0.53E-01   0.31E+02   QNRc2DIIS    0.
   6    -8.603905526   -50.789892801    20.742114458  -0.25E-04*   0.42E-02*   0.49E-03*    0.87E-02   0.31E+02   QNRc2DIIS    0.
   7    -8.603914630   -50.789349846    20.741562399  -0.91E-05*   0.13E-03*   0.54E-04     0.23E-02   0.31E+02   QNRc2DIIS    0.
   8    -8.603914665   -50.789376941    20.741589459  -0.35E-07*   0.34E-04*   0.12E-04     0.44E-03   0.31E+02   QNRc2DIIS    0.
   9    -8.603914667   -50.789395239    20.741607755  -0.17E-08*   0.27E-05    0.75E-06     0.93E-04   0.31E+02   QNRc2DIIS    0.
  10    -8.603914667   -50.789392886    20.741605402  -0.10E-10    0.54E-06    0.10E-06     0.13E-04   0.31E+02   QNRc2DIIS    0.
 
       Convergence after 10 Macro Iterations
--
 
 *****************************************************************************************************************************
 *                                                                                                                           *
 *                                             SCF/KS-DFT Program, Final results                                             *
 *                                                                                                                           *
 *                                                                                                                           *
 *                                                                                                                           *
 *                                                       Final Results                                                       *
 *                                                                                                                           *
 *****************************************************************************************************************************
 
::    Total SCF energy                                 -8.6039146668
      One-electron energy                             -50.7893928858
      Two-electron energy                              20.7416054020
      Nuclear repulsion energy                         21.4438728170
      Kinetic energy (interpolated)                     8.6079874508
      Virial theorem                                    0.9995268599
      Total spin, S(S+1)                                0.0000000000
      Total spin, S                                     0.0000000000
      Max non-diagonal density matrix element           0.0000004686
      Max non-diagonal Fock matrix element              0.0000000149
 
 
      All orbitals with orbital energies smaller than  E(LUMO)+0.5 are printed
 
++    Molecular orbitals:
      -------------------
 
      Title: SCF orbitals

      Molecular orbitals for symmetry species 1: a  
 
          Orbital            1         2         3         4         5         6         7         8         9        10    
          Energy           -0.7706   -0.7470   -0.7085   -0.6545   -0.5848   -0.4993   -0.3987   -0.2897    0.0127    0.1180
          Occ. No.          2.0000    2.0000    2.0000    2.0000    2.0000    2.0000    2.0000    2.0000    0.0000    0.0000
 
        1 H1     1s         0.0450   -0.0940    0.1451   -0.1912    0.2295   -0.2663    0.3050   -0.2958    0.5329   -0.8396
        2 H1     2s         0.0057   -0.0104    0.0119   -0.0081    0.0010   -0.0020    0.0235   -0.0561    0.2786   -0.5985
        3 H1     2px        0.0000   -0.0000    0.0000   -0.0000    0.0000    0.0000   -0.0000    0.0000    0.0000   -0.0000
        4 H1     2py       -0.0000    0.0000   -0.0000    0.0000   -0.0000    0.0000   -0.0000    0.0000   -0.0000    0.0000
        5 H1     2pz        0.0044   -0.0093    0.0140   -0.0164    0.0156   -0.0124    0.0082   -0.0041    0.0036   -0.0104
        6 H2     1s         0.0544   -0.1128    0.1686   -0.2158    0.2540   -0.2747    0.2489   -0.1436   -0.2750    0.8331
        7 H2     2s        -0.0169    0.0318   -0.0421    0.0404   -0.0162   -0.0282    0.0668   -0.0599   -0.1259    0.4245
        8 H2     2px       -0.0000   -0.0000    0.0000    0.0000    0.0000    0.0000   -0.0000    0.0000    0.0000   -0.0000
        9 H2     2py        0.0000   -0.0000    0.0000   -0.0000   -0.0000    0.0000   -0.0000    0.0000   -0.0000    0.0000
       10 H2     2pz        0.0025   -0.0058    0.0070   -0.0026   -0.0074    0.0189   -0.0268    0.0246   -0.0136   -0.0106
       11 H3     1s         0.1211   -0.2087    0.2334   -0.1799    0.0534    0.1290   -0.3255    0.3983   -0.4474    0.1810
       12 H3     2s        -0.0036    0.0141   -0.0272    0.0337   -0.0319    0.0387   -0.0732    0.1058   -0.1527   -0.0062
       13 H3     2px       -0.0000   -0.0000    0.0000   -0.0000   -0.0000    0.0000   -0.0000    0.0000   -0.0000   -0.0000
       14 H3     2py        0.0000   -0.0000    0.0000   -0.0000    0.0000    0.0000   -0.0000    0.0000   -0.0000    0.0000
       15 H3     2pz        0.0033   -0.0055    0.0023    0.0082   -0.0202    0.0254   -0.0206    0.0089    0.0144   -0.0313
       16 H4     1s         0.1318   -0.2191    0.2116   -0.0992   -0.0759    0.2458   -0.3205    0.2190    0.2221   -0.4804
       17 H4     2s        -0.0239    0.0301   -0.0149   -0.0150    0.0343   -0.0091   -0.0505    0.0708    0.0655   -0.2018
       18 H4     2px       -0.0000    0.0000   -0.0000    0.0000   -0.0000    0.0000    0.0000   -0.0000   -0.0000   -0.0000
       19 H4     2py       -0.0000    0.0000    0.0000   -0.0000    0.0000   -0.0000   -0.0000    0.0000   -0.0000    0.0000
       20 H4     2pz        0.0010   -0.0003   -0.0071    0.0180   -0.0193    0.0052    0.0157   -0.0253    0.0271   -0.0209
       21 H5     1s         0.1850   -0.2166    0.0669    0.1493   -0.2591    0.1491    0.1634   -0.4085    0.5202   -0.1256
       22 H5     2s        -0.0132    0.0301   -0.0304    0.0067    0.0125   -0.0138    0.0458   -0.1079    0.2115   -0.0810
       23 H5     2px       -0.0000    0.0000   -0.0000    0.0000   -0.0000   -0.0000    0.0000   -0.0000    0.0000   -0.0000
       24 H5     2py       -0.0000   -0.0000    0.0000   -0.0000    0.0000   -0.0000   -0.0000    0.0000   -0.0000    0.0000
       25 H5     2pz        0.0026   -0.0002   -0.0105    0.0166   -0.0042   -0.0171    0.0257   -0.0142   -0.0164    0.0207
       26 H6     1s         0.1925   -0.2020    0.0016    0.2115   -0.2080   -0.0459    0.3242   -0.3001   -0.3607    0.6333
       27 H6     2s        -0.0273    0.0132    0.0237   -0.0344   -0.0046    0.0238    0.0434   -0.0909   -0.1376    0.2936
       28 H6     2px       -0.0000    0.0000    0.0000   -0.0000    0.0000   -0.0000    0.0000   -0.0000    0.0000    0.0000
       29 H6     2py        0.0000   -0.0000   -0.0000   -0.0000   -0.0000   -0.0000   -0.0000    0.0000   -0.0000    0.0000
       30 H6     2pz       -0.0001    0.0045   -0.0121    0.0046    0.0176   -0.0227   -0.0021    0.0254   -0.0237   -0.0054
       31 H7     1s         0.2220   -0.1034   -0.1747    0.1986    0.0880   -0.2883    0.0308    0.3984   -0.4715   -0.2301
       32 H7     2s        -0.0213    0.0286    0.0041   -0.0341    0.0204   -0.0098   -0.0187    0.1097   -0.1804   -0.1227
       33 H7     2px       -0.0000    0.0000    0.0000    0.0000   -0.0000    0.0000    0.0000    0.0000   -0.0000   -0.0000
       34 H7     2py        0.0000    0.0000    0.0000    0.0000    0.0000    0.0000   -0.0000   -0.0000    0.0000   -0.0000
       35 H7     2pz        0.0020    0.0045   -0.0100   -0.0069    0.0228   -0.0042   -0.0231    0.0193    0.0200   -0.0228
       36 H8     1s         0.2248   -0.0693   -0.2108    0.1224    0.2047   -0.2002   -0.2133    0.3590    0.4223   -0.4360
       37 H8     2s        -0.0264   -0.0108    0.0337    0.0093   -0.0265   -0.0277   -0.0151    0.1023    0.1607   -0.2008
       38 H8     2px        0.0000   -0.0000   -0.0000    0.0000    0.0000    0.0000   -0.0000   -0.0000   -0.0000   -0.0000
       39 H8     2py        0.0000    0.0000   -0.0000   -0.0000    0.0000    0.0000    0.0000   -0.0000   -0.0000    0.0000
       40 H8     2pz       -0.0011    0.0064   -0.0025   -0.0177    0.0092    0.0224   -0.0128   -0.0231    0.0229    0.0092
       41 H9     1s         0.2248    0.0693   -0.2108   -0.1224    0.2047    0.2002   -0.2133   -0.3590    0.4223    0.4360
       42 H9     2s        -0.0264    0.0108    0.0337   -0.0093   -0.0265    0.0277   -0.0151   -0.1023    0.1607    0.2008
       43 H9     2px       -0.0000    0.0000   -0.0000   -0.0000   -0.0000   -0.0000    0.0000   -0.0000   -0.0000    0.0000
       44 H9     2py       -0.0000   -0.0000    0.0000    0.0000    0.0000    0.0000   -0.0000    0.0000   -0.0000    0.0000
       45 H9     2pz        0.0011    0.0064    0.0025   -0.0177   -0.0092    0.0224    0.0128   -0.0231   -0.0229    0.0092
       46 H10    1s         0.2220    0.1034   -0.1747   -0.1986    0.0880    0.2883    0.0308   -0.3984   -0.4715    0.2301
       47 H10    2s        -0.0213   -0.0286    0.0041    0.0341    0.0204    0.0098   -0.0187   -0.1097   -0.1804    0.1227
       48 H10    2px        0.0000   -0.0000   -0.0000    0.0000   -0.0000   -0.0000    0.0000   -0.0000    0.0000    0.0000
       49 H10    2py        0.0000    0.0000    0.0000   -0.0000   -0.0000   -0.0000    0.0000    0.0000   -0.0000    0.0000
       50 H10    2pz       -0.0020    0.0045    0.0100   -0.0069   -0.0228   -0.0042    0.0231    0.0193   -0.0200   -0.0228
       51 H11    1s         0.1925    0.2020    0.0016   -0.2115   -0.2080    0.0459    0.3242    0.3001   -0.3607   -0.6333
       52 H11    2s        -0.0273   -0.0132    0.0237    0.0344   -0.0046   -0.0238    0.0434    0.0909   -0.1376   -0.2936
       53 H11    2px       -0.0000    0.0000    0.0000    0.0000   -0.0000   -0.0000    0.0000    0.0000   -0.0000    0.0000
       54 H11    2py        0.0000   -0.0000    0.0000    0.0000   -0.0000   -0.0000    0.0000    0.0000   -0.0000    0.0000
       55 H11    2pz        0.0001    0.0045    0.0121    0.0046   -0.0176   -0.0227    0.0021    0.0254    0.0237   -0.0054
       56 H12    1s         0.1850    0.2166    0.0669   -0.1493   -0.2591   -0.1491    0.1634    0.4085    0.5202    0.1256
       57 H12    2s        -0.0132   -0.0301   -0.0304   -0.0067    0.0125    0.0138    0.0458    0.1079    0.2115    0.0810
       58 H12    2px        0.0000    0.0000   -0.0000   -0.0000    0.0000    0.0000    0.0000   -0.0000   -0.0000   -0.0000
       59 H12    2py       -0.0000   -0.0000    0.0000   -0.0000   -0.0000   -0.0000   -0.0000   -0.0000   -0.0000   -0.0000
       60 H12    2pz       -0.0026   -0.0002    0.0105    0.0166    0.0042   -0.0171   -0.0257   -0.0142    0.0164    0.0207
       61 H13    1s         0.1318    0.2191    0.2116    0.0992   -0.0759   -0.2458   -0.3205   -0.2190    0.2221    0.4804
       62 H13    2s        -0.0239   -0.0301   -0.0149    0.0150    0.0343    0.0091   -0.0505   -0.0708    0.0655    0.2018
       63 H13    2px       -0.0000   -0.0000    0.0000    0.0000    0.0000    0.0000    0.0000    0.0000   -0.0000   -0.0000
       64 H13    2py        0.0000    0.0000    0.0000    0.0000    0.0000   -0.0000   -0.0000    0.0000   -0.0000   -0.0000
       65 H13    2pz       -0.0010   -0.0003    0.0071    0.0180    0.0193    0.0052   -0.0157   -0.0253   -0.0271   -0.0209
       66 H14    1s         0.1211    0.2087    0.2334    0.1799    0.0534   -0.1290   -0.3255   -0.3983   -0.4474   -0.1810
       67 H14    2s        -0.0036   -0.0141   -0.0272   -0.0337   -0.0319   -0.0387   -0.0732   -0.1058   -0.1527    0.0062
       68 H14    2px        0.0000    0.0000    0.0000    0.0000   -0.0000    0.0000   -0.0000   -0.0000   -0.0000   -0.0000
       69 H14    2py       -0.0000   -0.0000   -0.0000   -0.0000   -0.0000    0.0000   -0.0000    0.0000    0.0000    0.0000
       70 H14    2pz       -0.0033   -0.0055   -0.0023    0.0082    0.0202    0.0254    0.0206    0.0089   -0.0144   -0.0313
       71 H15    1s         0.0544    0.1128    0.1686    0.2158    0.2540    0.2747    0.2489    0.1436   -0.2750   -0.8331
       72 H15    2s        -0.0169   -0.0318   -0.0421   -0.0404   -0.0162    0.0282    0.0668    0.0599   -0.1259   -0.4245
       73 H15    2px       -0.0000   -0.0000    0.0000    0.0000    0.0000   -0.0000   -0.0000    0.0000    0.0000   -0.0000
       74 H15    2py        0.0000    0.0000    0.0000    0.0000    0.0000   -0.0000    0.0000   -0.0000   -0.0000   -0.0000
       75 H15    2pz       -0.0025   -0.0058   -0.0070   -0.0026    0.0074    0.0189    0.0268    0.0246    0.0136   -0.0106
       76 H16    1s         0.0450    0.0940    0.1451    0.1912    0.2295    0.2663    0.3050    0.2958    0.5329    0.8396
       77 H16    2s         0.0057    0.0104    0.0119    0.0081    0.0010    0.0020    0.0235    0.0561    0.2786    0.5985
       78 H16    2px        0.0000    0.0000   -0.0000   -0.0000   -0.0000    0.0000    0.0000    0.0000   -0.0000   -0.0000
       79 H16    2py       -0.0000   -0.0000   -0.0000    0.0000    0.0000    0.0000    0.0000    0.0000   -0.0000    0.0000
       80 H16    2pz       -0.0044   -0.0093   -0.0140   -0.0164   -0.0156   -0.0124   -0.0082   -0.0041   -0.0036   -0.0104
 
          Orbital           11        12        13        14        15        16        17        18        19    
          Energy            0.1749    0.2070    0.2112    0.2936    0.2951    0.4159    0.4212    0.5076    0.5076
          Occ. No.          0.0000    0.0000    0.0000    0.0000    0.0000    0.0000    0.0000    0.0000    0.0000
 
        1 H1     1s         0.1842    0.7630    0.1992    0.7581   -0.5895    0.4594   -1.0381   -0.0000    0.0000
        2 H1     2s         0.2672    0.7330   -0.0720    0.3402   -0.7624    0.7438   -0.5674   -0.0000    0.0000
        3 H1     2px        0.0000    0.0000   -0.0000    0.0000   -0.0000    0.0000   -0.0000    0.0174   -0.0432
        4 H1     2py       -0.0000   -0.0000    0.0000    0.0000    0.0000   -0.0000   -0.0000    0.0432    0.0174
        5 H1     2pz       -0.0016    0.0245    0.0077    0.0140   -0.0462    0.0738   -0.0086   -0.0000    0.0000
        6 H2     1s        -0.4151   -1.0810    0.0858   -0.7385    1.0206   -0.7704    1.4710    0.0000   -0.0000
        7 H2     2s        -0.1386   -0.5819   -0.1098   -0.6565    0.5967   -0.5575    1.1962    0.0000   -0.0000
        8 H2     2px        0.0000    0.0000    0.0000    0.0000   -0.0000    0.0000   -0.0000    0.0300   -0.0743
        9 H2     2py       -0.0000    0.0000    0.0000    0.0000   -0.0000    0.0000   -0.0000    0.0743    0.0300
       10 H2     2pz        0.0046    0.0594   -0.0014    0.0102   -0.1110    0.1529   -0.0077   -0.0000    0.0000
       11 H3     1s         0.1617    0.4977   -0.2645    0.0251   -1.0316    1.1687   -0.6834   -0.0000    0.0000
       12 H3     2s         0.2297    0.3644   -0.3405   -0.1887   -0.6271    0.6261   -0.2214   -0.0000    0.0000
       13 H3     2px        0.0000    0.0000    0.0000   -0.0000   -0.0000   -0.0000   -0.0000    0.0435   -0.1078
       14 H3     2py       -0.0000   -0.0000    0.0000    0.0000   -0.0000    0.0000   -0.0000    0.1078    0.0435
       15 H3     2pz       -0.0049    0.0500    0.0126    0.0001   -0.0632    0.0516    0.0471   -0.0000   -0.0000
       16 H4     1s        -0.0027    0.1985    0.2945    0.4975    0.4694   -1.2808   -0.1675    0.0000   -0.0000
       17 H4     2s         0.1223    0.0407   -0.0521    0.0686    0.4134   -1.0130   -0.0093    0.0000   -0.0000
       18 H4     2px       -0.0000    0.0000    0.0000   -0.0000   -0.0000   -0.0000   -0.0000    0.0556   -0.1379
       19 H4     2py       -0.0000   -0.0000   -0.0000    0.0000   -0.0000    0.0000   -0.0000    0.1379    0.0556
       20 H4     2pz       -0.0133    0.0302    0.0022   -0.0498   -0.0400    0.0189    0.1086    0.0000    0.0000
       21 H5     1s        -0.2276   -0.3801    0.1647   -0.3996    0.3812    0.2885    0.7884    0.0000    0.0000
       22 H5     2s         0.0482   -0.2313   -0.1131   -0.2907    0.3552   -0.0117    0.3160    0.0000    0.0000
       23 H5     2px       -0.0000    0.0000   -0.0000   -0.0000   -0.0000   -0.0000    0.0000    0.0662   -0.1640
       24 H5     2py        0.0000   -0.0000   -0.0000    0.0000   -0.0000    0.0000   -0.0000    0.1640    0.0662
       25 H5     2pz       -0.0108    0.0247   -0.0281   -0.0814   -0.0355   -0.0229    0.0751    0.0000   -0.0000
       26 H6     1s        -0.0660   -0.0513   -0.2532   -0.1900   -0.5553    0.5355   -0.7797    0.0000   -0.0000
       27 H6     2s         0.1243   -0.1487   -0.2779   -0.0643   -0.0925    0.2287   -0.6849    0.0000   -0.0000
       28 H6     2px        0.0000    0.0000   -0.0000    0.0000   -0.0000   -0.0000    0.0000    0.0745   -0.1847
       29 H6     2py        0.0000   -0.0000   -0.0000    0.0000   -0.0000    0.0000   -0.0000    0.1847    0.0745
       30 H6     2pz        0.0013    0.0460   -0.0342   -0.0544    0.0012   -0.0943    0.0108    0.0000   -0.0000
       31 H7     1s         0.1409    0.5948    0.0752    0.6157    0.0406   -0.8968   -0.2574   -0.0000    0.0000
       32 H7     2s         0.2395    0.1658   -0.0640    0.4811    0.1578   -0.4063   -0.3852   -0.0000    0.0000
       33 H7     2px       -0.0000    0.0000    0.0000    0.0000   -0.0000    0.0000    0.0000    0.0803   -0.1989
       34 H7     2py        0.0000   -0.0000   -0.0000   -0.0000   -0.0000    0.0000   -0.0000    0.1989    0.0803
       35 H7     2pz       -0.0077    0.0096   -0.0327   -0.0568    0.0614   -0.0769   -0.0155    0.0000    0.0000
       36 H8     1s        -0.2004   -0.3039    0.2620   -0.3123    0.5832    0.5512    0.8252    0.0000    0.0000
       37 H8     2s         0.0763   -0.3065    0.1005    0.0499    0.3706    0.5360    0.3865    0.0000    0.0000
       38 H8     2px       -0.0000    0.0000    0.0000    0.0000   -0.0000    0.0000   -0.0000    0.0832   -0.2063
       39 H8     2py       -0.0000   -0.0000   -0.0000   -0.0000   -0.0000    0.0000   -0.0000    0.2063    0.0832
       40 H8     2pz       -0.0076   -0.0096   -0.0528   -0.0352    0.0496   -0.0079   -0.0934   -0.0000    0.0000
       41 H9     1s        -0.2004   -0.3039   -0.2620   -0.3123   -0.5832    0.5512   -0.8252   -0.0000   -0.0000
       42 H9     2s         0.0763   -0.3065   -0.1005    0.0499   -0.3706    0.5360   -0.3865   -0.0000   -0.0000
       43 H9     2px       -0.0000   -0.0000    0.0000   -0.0000   -0.0000    0.0000    0.0000    0.0832   -0.2063
       44 H9     2py       -0.0000   -0.0000   -0.0000    0.0000   -0.0000   -0.0000   -0.0000    0.2063    0.0832
       45 H9     2pz        0.0076    0.0096   -0.0528    0.0352    0.0496    0.0079   -0.0934   -0.0000   -0.0000
       46 H10    1s         0.1409    0.5948   -0.0752    0.6157   -0.0406   -0.8968    0.2574   -0.0000    0.0000
       47 H10    2s         0.2395    0.1658    0.0640    0.4811   -0.1578   -0.4063    0.3852   -0.0000    0.0000
       48 H10    2px        0.0000   -0.0000   -0.0000    0.0000   -0.0000    0.0000   -0.0000    0.0803   -0.1989
       49 H10    2py        0.0000   -0.0000   -0.0000   -0.0000   -0.0000   -0.0000    0.0000    0.1989    0.0803
       50 H10    2pz        0.0077   -0.0096   -0.0327    0.0568    0.0614    0.0769   -0.0155   -0.0000   -0.0000
       51 H11    1s        -0.0660   -0.0513    0.2532   -0.1900    0.5553    0.5355    0.7797    0.0000    0.0000
       52 H11    2s         0.1243   -0.1487    0.2779   -0.0643    0.0925    0.2287    0.6849    0.0000    0.0000
       53 H11    2px       -0.0000   -0.0000   -0.0000   -0.0000   -0.0000    0.0000   -0.0000    0.0745   -0.1847
       54 H11    2py       -0.0000    0.0000    0.0000    0.0000   -0.0000   -0.0000    0.0000    0.1847    0.0745
       55 H11    2pz       -0.0013   -0.0460   -0.0342    0.0544    0.0012    0.0943    0.0108   -0.0000   -0.0000
       56 H12    1s        -0.2276   -0.3801   -0.1647   -0.3996   -0.3812    0.2885   -0.7884   -0.0000   -0.0000
       57 H12    2s         0.0482   -0.2313    0.1131   -0.2907   -0.3552   -0.0117   -0.3160   -0.0000   -0.0000
       58 H12    2px       -0.0000    0.0000   -0.0000    0.0000   -0.0000    0.0000   -0.0000    0.0662   -0.1640
       59 H12    2py        0.0000    0.0000   -0.0000    0.0000    0.0000   -0.0000    0.0000    0.1640    0.0662
       60 H12    2pz        0.0108   -0.0247   -0.0281    0.0814   -0.0355    0.0229    0.0751   -0.0000   -0.0000
       61 H13    1s        -0.0027    0.1985   -0.2945    0.4975   -0.4694   -1.2808    0.1675    0.0000    0.0000
       62 H13    2s         0.1223    0.0407    0.0521    0.0686   -0.4134   -1.0130    0.0093    0.0000    0.0000
       63 H13    2px       -0.0000    0.0000    0.0000    0.0000   -0.0000    0.0000   -0.0000    0.0556   -0.1379
       64 H13    2py        0.0000    0.0000   -0.0000   -0.0000    0.0000    0.0000    0.0000    0.1379    0.0556
       65 H13    2pz        0.0133   -0.0302    0.0022    0.0498   -0.0400   -0.0189    0.1086    0.0000    0.0000
       66 H14    1s         0.1617    0.4977    0.2645    0.0251    1.0316    1.1687    0.6834    0.0000   -0.0000
       67 H14    2s         0.2297    0.3644    0.3405   -0.1887    0.6271    0.6261    0.2214    0.0000    0.0000
       68 H14    2px        0.0000    0.0000   -0.0000   -0.0000   -0.0000    0.0000   -0.0000    0.0435   -0.1078
       69 H14    2py       -0.0000    0.0000    0.0000    0.0000    0.0000    0.0000    0.0000    0.1078    0.0435
       70 H14    2pz        0.0049   -0.0500    0.0126   -0.0001   -0.0632   -0.0516    0.0471    0.0000    0.0000
       71 H15    1s        -0.4151   -1.0810   -0.0858   -0.7385   -1.0206   -0.7704   -1.4710   -0.0000   -0.0000
       72 H15    2s        -0.1386   -0.5819    0.1098   -0.6565   -0.5967   -0.5575   -1.1962   -0.0000   -0.0000
       73 H15    2px       -0.0000    0.0000    0.0000   -0.0000   -0.0000    0.0000   -0.0000    0.0300   -0.0743
       74 H15    2py        0.0000   -0.0000    0.0000   -0.0000   -0.0000    0.0000    0.0000    0.0743    0.0300
       75 H15    2pz       -0.0046   -0.0594   -0.0014   -0.0102   -0.1110   -0.1529   -0.0077    0.0000    0.0000
       76 H16    1s         0.1842    0.7630   -0.1992    0.7581    0.5895    0.4594    1.0381    0.0000    0.0000
       77 H16    2s         0.2672    0.7330    0.0720    0.3402    0.7624    0.7438    0.5674    0.0000   -0.0000
       78 H16    2px        0.0000    0.0000    0.0000   -0.0000    0.0000    0.0000   -0.0000    0.0174   -0.0432
       79 H16    2py        0.0000    0.0000   -0.0000    0.0000   -0.0000   -0.0000    0.0000    0.0432    0.0174
       80 H16    2pz        0.0016   -0.0245    0.0077   -0.0140   -0.0462   -0.0738   -0.0086    0.0000    0.0000
--
 
 
++    Molecular charges:
      ------------------
 
      Mulliken charges per centre and basis function type
      ---------------------------------------------------
 
                H1      H2      H3      H4      H5      H6      H7      H8      H9      H10     H11     H12   
      1s       1.0517  0.9359  1.0338  0.9551  1.0067  0.9815  0.9969  0.9889  0.9889  0.9969  0.9815  1.0067
      2s       0.0008 -0.0241 -0.0868 -0.0440 -0.0510 -0.0457 -0.0510 -0.0486 -0.0486 -0.0510 -0.0457 -0.0510
      2px      0.0000  0.0000  0.0000  0.0000  0.0000  0.0000  0.0000 -0.0000  0.0000  0.0000  0.0000  0.0000
      2pz      0.0225  0.0565  0.0543  0.0543  0.0520  0.0539  0.0529  0.0535  0.0535  0.0529  0.0539  0.0520
      2py      0.0000  0.0000  0.0000  0.0000  0.0000  0.0000  0.0000  0.0000  0.0000  0.0000  0.0000  0.0000
      Total    1.0750  0.9683  1.0013  0.9654  1.0077  0.9897  0.9988  0.9938  0.9938  0.9988  0.9897  1.0077
 
      N-E     -0.0750  0.0317 -0.0013  0.0346 -0.0077  0.0103  0.0012  0.0062  0.0062  0.0012  0.0103 -0.0077
 
                H13     H14     H15     H16   
      1s       0.9551  1.0338  0.9359  1.0517
      2s      -0.0440 -0.0868 -0.0241  0.0008
      2px      0.0000  0.0000  0.0000  0.0000
      2pz      0.0543  0.0543  0.0565  0.0225
      2py      0.0000  0.0000  0.0000  0.0000
      Total    0.9654  1.0013  0.9683  1.0750
 
      N-E      0.0346 -0.0013  0.0317 -0.0750
 
      Total electronic charge=   16.000000
 
      Total            charge=   -0.000000
--
 
 
  Input file to MOLDEN was generated!
 
 
++    Static properties:
      ------------------
 
 
      LoProp Charges per center
 

                   H1       H2       H3       H4       H5       H6       H7       H8       H9       H10   
      Nuclear      1.0000   1.0000   1.0000   1.0000   1.0000   1.0000   1.0000   1.0000   1.0000   1.0000
      Electronic  -1.0503  -0.9804  -1.0020  -0.9832  -1.0020  -0.9896  -0.9981  -0.9942  -0.9942  -0.9981
 
      Total       -0.0503   0.0196  -0.0020   0.0168  -0.0020   0.0104   0.0019   0.0058   0.0058   0.0019
 

                   H11      H12      H13      H14      H15      H16   
      Nuclear      1.0000   1.0000   1.0000   1.0000   1.0000   1.0000
      Electronic  -0.9896  -1.0020  -0.9832  -1.0020  -0.9804  -1.0503
 
      Total        0.0104  -0.0020   0.0168  -0.0020   0.0196  -0.0503
--
 
 
++    Natural Bond Order analysis
      ---------------------------
      Based on LoProp computed density
      -------------------------------------------------------------------------------------
      Atom A       Atom B       Bond Order | Atom A       Atom B       Bond Order
        H1           H2             0.984  |   H9           H10            0.928
        H3           H4             0.943  |   H11          H12            0.932
        H5           H6             0.932  |   H13          H14            0.943
        H7           H8             0.928  |   H15          H16            0.984
      -------------------------------------------------------------------------------------
      NBO located     15.153 electrons involved in    8 bonds.
      The remaining    0.847 electrons are to be considered as diffuse
--
 
 
++    Molecular properties:
      ---------------------
 
      Charge (e):
                      =   -0.0000
      Dipole Moment (Debye):
      Origin of the operator (Ang)=    0.0000    0.0000    0.0000
                   X=  3.0776E-14               Y=  2.0356E-14               Z= -1.5958E-08           Total=  1.5958E-08
      Quadrupole Moment (Debye*Ang):
      Origin of the operator (Ang)=    0.0000    0.0000    7.0500
                  XX= -1.7034E+01              XY= -2.8445E-27              XZ= -2.7873E-13              YY= -1.7034E+01
                  YZ= -3.7411E-13              ZZ= -3.1038E+01
      In traceless form (Debye*Ang)
                  XX=  7.0019E+00              XY= -4.2667E-27              XZ= -4.1810E-13              YY=  7.0019E+00
                  YZ= -5.6116E-13              ZZ= -1.4004E+01
--
 
 
  Input file to MOLDEN was generated!
 
 ###############################################################################
 ###############################################################################
 ###                                                                         ###
 ###                                                                         ###
 ###    RunFile label nBas                                                   ###
 ###    was used       78 times                                              ###
 ###                                                                         ###
 ###                                                                         ###
 ###############################################################################
 ###############################################################################
forrtl: warning (528): IEEE_UNDERFLOW is signaling
--- Stop Module: scf at Mon Feb 24 21:55:30 2025 /rc=_RC_ALL_IS_WELL_ ---
*** files: H16_0.94.LprOrb H16_0.94.LoProp.molden H16_0.94.scf.molden H16_0.94.ScfOrb H16_0.94.scf.h5 xmldump
    saved to directory /home/grierjones/DDCASPT2/hydrogen_comps/H16_chain/H16_0.94

>>> COPY /tmp/H16_0.94/H16_0.94.scf.h5 /home/grierjones/DDCASPT2/hydrogen_comps/H16_chain/H16_0.94/

*** symbolic link created: INPORB -> H16_0.94.ScfOrb
--- Start Module: rasscf at Mon Feb 24 21:55:30 2025 ---
 
()()()()()()()()()()()()()()()()()()()()()()()()()()()()()()()()()()()()()()()()()()()()()()()()()()

                                              &RASSCF

                                   only a single process is used
                       available to each process: 2.0 GB of memory, 1 thread?
()()()()()()()()()()()()()()()()()()()()()()()()()()()()()()()()()()()()()()()()()()()()()()()()()()
 
 
 *************** WARNING ****************
 ###############################################################################
 ###############################################################################
 ###                                                                         ###
 ###                                                                         ###
 ###    Too many macro-iterations.                                           ###
 ###                                                                         ###
 ###                                                                         ###
 ###############################################################################
 ###############################################################################
 Too many macro-iterations requested.
 Reset to maximum, new MAXIT=     200
 ****************************************
 
 *************** WARNING ****************
 ###############################################################################
 ###############################################################################
 ###                                                                         ###
 ###                                                                         ###
 ###    Too many SX-iterations.                                              ###
 ###                                                                         ###
 ###                                                                         ###
 ###############################################################################
 ###############################################################################
 Too many SX-iterations requested.
 Reset to maximum, new ITMAX=     100
 ****************************************
---------------------------------------------------------------------------------------------
  Nr.	 Label		Type		Offset		Length	   Atime	  Address
---------------------------------------------------------------------------------------------
  1	IP_DUM      	REAL	      48032180	           8           2	[0x17cbd300]
  2	IP_SDUM     	SNGL	      96064304	           4           3	[0x17cbd220]
  3	IP_IDUM     	INTE	      48032124	           8           4	[0x17cbd140]
  4	DRT0        	INTE	      48050552	       11400           7	[0x17ce1120]
  5	DOWN        	INTE	      48051978	        9120           8	[0x17ce3db0]
  6	DAW1        	INTE	      48053120	       11400          10	[0x17ce6160]
  7	LUP1        	INTE	      48054546	        9120          11	[0x17ce8df0]
  8	RAW1        	INTE	      48055688	       11400          12	[0x17ceb1a0]
  9	NOW1        	INTE	      48046934	         720          14	[0x17cda010]
 10	IOW1        	INTE	      48057114	         720          15	[0x17cede30]
 11	NCSF        	INTE	      48057206	         360          16	[0x17cee110]
 12	ICSF        	INTE	      48057252	         360          17	[0x17cee280]
 13	CASE        	INTE	17506834751830	      388960          19	[0x7f6106399010]
 14	IUSG        	INTE	17506834645846	      846720          20	[0x7f61062ca010]
 15	ILSG        	INTE	17506834539862	      846720          21	[0x7f61061fb010]
 16	INT1        	REAL	      48058754	        2048          22	[0x17cf1170]
 17	INT1O       	REAL	      48059012	        2048          23	[0x17cf1980]
 18	FI          	REAL	      48059270	        2048          24	[0x17cf2190]
 19	FIO         	REAL	      48059528	        2048          25	[0x17cf29a0]
 20	FIZ         	REAL	      48059786	        2048          26	[0x17cf31b0]
 21	PINT1       	INTE	      48032384	           8          27	[0x17cbd960]
 22	PINT2       	INTE	      48032328	           8          28	[0x17cbd7a0]
 23	PGINT1      	INTE	      48032296	           8          29	[0x17cbd6a0]
 24	PGIN1A      	INTE	      48032268	           8          30	[0x17cbd5c0]
 25	LSM1        	INTE	      48032468	           8          31	[0x17cbdc00]
 26	LSM2        	INTE	      48032668	           8          32	[0x17cbe240]
 27	RHO1        	REAL	      48060044	        2048          33	[0x17cf39c0]
 28	SRHO1       	REAL	      48060302	        2048          34	[0x17cf41d0]
 29	KINH1       	INTE	      48060560	        2048          35	[0x17cf49e0]
 30	KINH1       	INTE	      48060818	        2048          36	[0x17cf51f0]
 31	OCSTR       	INTE	-577777000306848033	           0          37	[(nil)]
 32	STREO       	INTE	      48032640	           8          38	[0x17cbe160]
 33	OCSTR       	INTE	-577777000306848031	           0          39	[(nil)]
 34	STREO       	INTE	      48032612	           8          40	[0x17cbe080]
 35	OCSTR       	INTE	      48046724	         128          41	[0x17cd9980]
 36	STREO       	INTE	      48046742	         128          42	[0x17cd9a10]
 37	OCSTR       	INTE	      48061076	        1920          43	[0x17cf5a00]
 38	STREO       	INTE	      48061318	         960          44	[0x17cf6190]
 39	OCSTR       	INTE	      48069336	       13440          45	[0x17d05c20]
 40	STREO       	INTE	      48071018	        4480          46	[0x17d090b0]
 41	OCSTR       	INTE	      48071580	       58240          47	[0x17d0a240]
 42	STREO       	INTE	      48078862	       14560          48	[0x17d185d0]
 43	OCSTR       	INTE	17506834517846	      174720          49	[0x7f61061d0010]
 44	STREO       	INTE	      48080684	       34944          50	[0x17d1bec0]
 45	OCSTR       	INTE	17506834469718	      384384          51	[0x7f6106172010]
 46	STREO       	INTE	      48085054	       64064          52	[0x17d24750]
 47	OCSTR       	INTE	17506834389334	      640640          53	[0x7f61060d5010]
 48	STREO       	INTE	      48093064	       91520          54	[0x17d341a0]
 49	OCSTR       	INTE	17506834285910	      823680          55	[0x7f610600b010]
 50	STREO       	INTE	      48104506	      102960          56	[0x17d4a730]
 51	OCSTR       	INTE	-577777000306848013	           0          57	[(nil)]
 52	STREO       	INTE	      48032584	           8          58	[0x17cbdfa0]
 53	NSTSGP      	INTE	      48048310	          88          59	[0x17cdcb10]
 54	ISTSGP      	INTE	      48045560	          88          60	[0x17cd7520]
 55	NSTSO       	INTE	      48032556	           8          61	[0x17cbdec0]
 56	ISTSO       	INTE	      48032528	           8          62	[0x17cbdde0]
 57	NSTSO       	INTE	      48032500	           8          63	[0x17cbdd00]
 58	ISTSO       	INTE	      48032696	           8          64	[0x17cbe320]
 59	NSTSO       	INTE	      48032892	           8          65	[0x17cbe940]
 60	ISTSO       	INTE	      48032864	           8          66	[0x17cbe860]
 61	NSTSO       	INTE	      48032836	           8          67	[0x17cbe780]
 62	ISTSO       	INTE	      48032808	           8          68	[0x17cbe6a0]
 63	NSTSO       	INTE	      48032780	           8          69	[0x17cbe5c0]
 64	ISTSO       	INTE	      48032752	           8          70	[0x17cbe4e0]
 65	NSTSO       	INTE	      48032724	           8          71	[0x17cbe400]
 66	ISTSO       	INTE	      48032920	           8          72	[0x17cbea20]
 67	ZMAT        	INTE	-577777000306847997	           0          73	[(nil)]
 68	ZMAT        	INTE	-577777000306847996	           0          74	[(nil)]
 69	ZMAT        	INTE	      48047026	         128          75	[0x17cda2f0]
 70	ZMAT        	INTE	      48045468	         256          76	[0x17cd7240]
 71	ZMAT        	INTE	      48061440	         384          77	[0x17cf6560]
 72	ZMAT        	INTE	      48046868	         512          78	[0x17cd9e00]
 73	ZMAT        	INTE	      48117378	         640          79	[0x17d63970]
 74	ZMAT        	INTE	      48117460	         768          80	[0x17d63c00]
 75	ZMAT        	INTE	      48117558	         896          81	[0x17d63f10]
 76	ZMAT        	INTE	      48117672	        1024          82	[0x17d642a0]
 77	ZMAT        	INTE	-577777000306847987	           0          83	[(nil)]
 78	ORBMAP      	INTE	      48047044	         128          84	[0x17cda380]
 79	STRMAP      	INTE	      48061490	         128          85	[0x17cf66f0]
 80	ORBMAP      	INTE	      48117802	        2048          86	[0x17d646b0]
 81	STRMAP      	INTE	      48118060	        2048          87	[0x17d64ec0]
 82	ORBMAP      	INTE	      48118318	       15360          88	[0x17d656d0]
 83	STRMAP      	INTE	      48120240	       15360          89	[0x17d692e0]
 84	ORBMAP      	INTE	      48122162	       71680          90	[0x17d6cef0]
 85	STRMAP      	INTE	      48131124	       71680          91	[0x17d7e700]
 86	ORBMAP      	INTE	17506834256726	      232960          92	[0x7f6105fd2010]
 87	STRMAP      	INTE	17506834227542	      232960          93	[0x7f6105f99010]
 88	ORBMAP      	INTE	17506834157398	      559104          94	[0x7f6105f10010]
 89	STRMAP      	INTE	17506834087254	      559104          95	[0x7f6105e87010]
 90	ORBMAP      	INTE	17506833958742	     1025024          96	[0x7f6105d8c010]
 91	STRMAP      	INTE	17506833830230	     1025024          97	[0x7f6105c91010]
 92	ORBMAP      	INTE	17506833646934	     1464320          98	[0x7f6105b2b010]
 93	STRMAP      	INTE	17506833463638	     1464320          99	[0x7f61059c5010]
 94	ORBMAP      	INTE	17506833360214	      823680         100	[0x7f61058fb010]
 95	STRMAP      	INTE	17506833256790	      823680         101	[0x7f6105831010]
 96	COBSM       	INTE	      48061508	         128         102	[0x17cf6780]
 97	NIFSJ       	INTE	      48140086	         128         103	[0x17d8ff10]
 98	IFSJ        	INTE	      48140104	        2048         104	[0x17d8ffa0]
 99	IFSJO       	INTE	      48140362	         128         105	[0x17d907b0]
100	STSTX       	INTE	      48033120	           8         106	[0x17cbf060]
101	IOCLS       	INTE	      48033088	          24         107	[0x17cbef60]
102	SPGPAN      	INTE	      48045266	          72         108	[0x17cd6bf0]
103	SPGPCR      	INTE	      48048342	          72         109	[0x17cdcc10]
104	ISMDFGP     	INTE	      48048298	          88         111	[0x17cdcab0]
105	NACTSYM     	INTE	      48045548	          88         112	[0x17cd74c0]
106	ISMMMA failed to allocate a memory block.
SCR      	INTE	      48048286	          88         113	[0x17cdca50]
107	VEC1        	REAL	17506667606870	  1325198160         116	[0x7f60b6862010]
---------------------------------------------------------------------------------------------
Maximal available memory for Molcas = 709839188
MEMORY ERROR: Memory is exhausted!
MEMORY ERROR: Available memory = 709839188 ( 709 Mb ) !
MEMORY ERROR: Requested memory = 1325198160 ( 1325 Mb ) !
MEMORY ERROR: The suggested MOLCAS_MEM=2664 !
C_GetMem Calling parameters: ('VEC2   ','ALLO   ','REAL   ',0,165649770)
--- Stop Module: rasscf at Mon Feb 24 21:55:30 2025 /rc=_RC_FLOATING_EXCEPTION_ ---
*** files: xmldump
    saved to directory /home/grierjones/DDCASPT2/hydrogen_comps/H16_chain/H16_0.94

.########################.
.# Non-zero return code #.
.########################.

    Timing: Wall=4.32 User=3.79 System=0.53
****************************************
*** WorkDir at /tmp/H16_0.94 cleaned ***
****************************************
1Y/LEAU5+9b5iZvU6cxcQlw3jF7fjmw0B797/Gf6StdKeQabUSdtB02SQ
HbcaUM3K