   This run of MOLCAS is using the pymolcas driver

                             OPE
                             OPE          NMOL  CASOP  ENMOLC A   SO
                 OPE        NMOLC        AS  OP EN  MO LC     AS  OP
                OPENM       OL CA        SO  PE NM  OL CA     SOP EN
                OP EN      MO   LC       AS  OP ENMOL  CASO   PENMOL
                OP  EN     MO   LC       AS  OP EN     MO     LC ASO
               OP   E  NMOL  C  AS       OP  EN MO     LC     AS  OP
               OP  E   NMO   LC AS        OPEN  MO     LCASOP EN   M
               O  PEN   MO  LCA  SO
            OPE   NMO   L   CAS    OP
        OPENMOL  CASOP     ENMOL   CASOPE
     OPENMOLCA   SOPENMOLCASOPEN   MOLCASOPE
    OPENMOLCAS   OP           EN   MOL    CAS
    OPENMOLCAS       OP  ENM        O     LCA
    OPENMOLCAS    OPEN  MOLCASO     P  E  NMO
    OPENMOLCAS     OP               E  N  MOL
    OPENMOLCA   SO           PENM   O  L  CAS    OPEN    MO    LCAS
    OPENMOLCA   SOP           ENM   O  L  CAS   OP  EN  MOLC  AS   O
    OPENMOLCA   SOPE           NM      O  LCA   S      OP  EN MO
    OPENMOLC                AS         O  PEN   M      OL  CA  SOPE
    OPENMO        LCASOPE  NMOL        C  ASO   P      ENMOLC     AS
    OPE     NMO      LCA  SO     P     E   NM   OL  CA SO  PE N   MO
          OPENMOLCA            SOPE   NMO        LCAS  O    P  ENMO
     OPENMOLCASOPENMOLCASOPENMOLCASOPENMOLCA
        OPENMOLCASOPENMOLCASOPENMOLCASOPE
            OPENMOLCASOPENMOLCASOPENM
               OPENMOLCASOPENMOLCA        version: ea724fe96-dirty
                   OPENMOLCASO
                       OPE                tag:

 OpenMolcas is free software; you can redistribute it and/or modify it
 under the terms of the GNU Lesser General Public License version 2.1.
 OpenMolcas is distributed in the hope that it will be useful, but it
 is provided "as is" and without any express or implied warranties.
 For more details see the full text of the license in the file
 LICENSE or in <http://www.gnu.org/licenses/>.

                 Copyright (C) The OpenMolcas Authors
           For the author list and the recommended citation,
                   consult the file CONTRIBUTORS.md

           *************************************************
           * pymolcas version py2.28                       *
           *   build c4a6d18ded8cb6cad61d2372a9abd97c      *
           *   (after the EMIL interpreter by V. Veryazov) *
           *************************************************

configuration info
------------------
C Compiler ID: Intel
C flags: -std=gnu99
Fortran Compiler ID: Intel
Fortran flags: -fpp -i8 -r8 -heap-arrays
Definitions: _MOLCAS_;_I8_;_LINUX_
Parallel: OFF (GA=OFF)


   -------------------------------------------------------------------------------
  |
  |              Project: 4.64
  |       Submitted from: /home/grierjones/DDCASPT2/iron_oxo_DDCASPT2/cluster/4.64
  |         Scratch area: /tmp/4.64
  |      Save outputs to: /home/grierjones/DDCASPT2/iron_oxo_DDCASPT2/cluster/4.64
  |               Molcas: /home/grierjones/Test/build
  |
  | Scratch area is empty
  |
  |       MOLCAS_DRIVER = /usr/local/pymolcas
  | MOLCAS_KEEP_WORKDIR = NO
  |  MOLCAS_NEW_WORKDIR = YES
  |       MOLCAS_NPROCS = 1
  |        MOLCAS_PRINT = NORMAL
  |       MOLCAS_SOURCE = /home/grierjones/Test/build
  |    MOLCAS_STRUCTURE = 0
  |
   -------------------------------------------------------------------------------

++ ---------   Input file   ---------

&GATEWAY
coord=4.64.xyz
Basis = ANO-RCC-VDZP
Group = nosymm
Expert
End of Input

&SEWARD
End of Input

&SCF
UHF
charge
2
spin
5

>>> COPY $WorkDir/4.64.scf.h5 $CurrDir/

&RASSCF
Title= RASSCF
FileOrb
/home/grierjones/DDCASPT2/iron_oxo_DDCASPT2/cluster/4.63/4.63.RasOrb
NACTEL
10 0 0
RAS2
14
Symmetry
1
Spin
5
charge
2
orblisting
all
ITERation
300 200

>>> COPY $WorkDir/4.64.rasscf.h5 $CurrDir/

>>> COPY $WorkDir/GMJ_Fock_MO.csv $CurrDir/4.64.GMJ_Fock_MO.csv

>>> COPY $WorkDir/GMJ_PT2_Fock_MO.csv $CurrDir/4.64.GMJ_PT2_Fock_MO.csv

&MOTRA
Frozen=0
LUMORB

>>> COPY $WorkDir/GMJ_one_int_indx.csv $CurrDir/4.64.GMJ_one_int_indx.csv

>>> COPY $WorkDir/GMJ_one_int.csv $CurrDir/4.64.GMJ_one_int.csv

>>> COPY $WorkDir/GMJ_two_int_indx.csv $CurrDir/4.64.GMJ_two_int_indx.csv

>>> COPY $WorkDir/GMJ_two_int.csv $CurrDir/4.64.GMJ_two_int.csv

&CASPT2
Frozen
0
MAXITER
50

>>> FOREACH i IN (B,E,F,G,H)

  >>> FOREACH j IN (P,M)

    >>> IF (-FILE GMJ_e2_${i}_${j}.csv)

      >>> COPY $WorkDir/GMJ_RHS_${i}_${j}.csv $CurrDir/GMJ_RHS_${i}_${j}.csv

      >>> COPY $WorkDir/GMJ_IVECW_${i}_${j}.csv $CurrDir/GMJ_IVECW_${i}_${j}.csv

      >>> COPY $WorkDir/GMJ_IVECX_${i}_${j}.csv $CurrDir/GMJ_IVECX_${i}_${j}.csv

      >>> COPY $WorkDir/GMJ_IVECC2_${i}_${j}.csv $CurrDir/GMJ_IVECC2_${i}_${j}.csv

      >>> COPY $WorkDir/GMJ_e2_${i}_${j}.csv $CurrDir/GMJ_e2_${i}_${j}.csv

    >>> END IF

  >>> END FOREACH

>>> END FOREACH

>>> FOREACH i IN (A,C,D)

  >>> IF (-FILE GMJ_e2_$i.csv)

    >>> COPY $WorkDir/GMJ_RHS_$i.csv $CurrDir/GMJ_RHS_$i.csv

    >>> COPY $WorkDir/GMJ_IVECW_$i.csv $CurrDir/GMJ_IVECW_$i.csv

    >>> COPY $WorkDir/GMJ_IVECX_$i.csv $CurrDir/GMJ_IVECX_$i.csv

    >>> COPY $WorkDir/GMJ_IVECC2_$i.csv $CurrDir/GMJ_IVECC2_$i.csv

    >>> COPY $WorkDir/GMJ_e2_$i.csv $CurrDir/GMJ_e2_$i.csv

  >>> END IF

>>> END FOREACH

-- ----------------------------------

--- Start Module: gateway at Sun Dec 22 16:40:43 2024 ---
 
()()()()()()()()()()()()()()()()()()()()()()()()()()()()()()()()()()()()()()()()()()()()()()()()()()

                                              &GATEWAY

                                   only a single process is used
                       available to each process: 2.0 GB of memory, 1 thread?
()()()()()()()()()()()()()()()()()()()()()()()()()()()()()()()()()()()()()()()()()()()()()()()()()()
 
 ###############################################################################
 ###############################################################################
 ###                                                                         ###
 ###                                                                         ###
 ###                                                                         ###
 ###    WARNING: EXPERT option is ON!                                        ###
 ###                                                                         ###
 ###                                                                         ###
 ###############################################################################
 ###############################################################################
 
++    Symmetry information:
      ---------------------
 
                    Character Table for C1 
 
                             E  
                    a        1  x, y, xy, Rz, z, xz, Ry, yz, Rx, I
--
 
 
++    Basis set information:
      ----------------------
 
 
      Basis set label: O.ANO-RCC...3S2P1D.
 
      Electronic valence basis set:
      ------------------
      Associated Effective Charge   8.000000 au
      Associated Actual Charge      8.000000 au
      Nuclear Model: Point charge
 
      Shell  nPrim  nBasis  Cartesian Spherical Contaminant
         s      14       3        X                  
         p       9       2        X                  
         d       4       1                 X         
 
 
      Basis set label: FE.ANO-RCC...5S4P2D1F.
 
      Electronic valence basis set:
      ------------------
      Associated Effective Charge  26.000000 au
      Associated Actual Charge     26.000000 au
      Nuclear Model: Point charge
 
      Shell  nPrim  nBasis  Cartesian Spherical Contaminant
         s      21       5        X                  
         p      15       4        X                  
         d      10       2                 X         
         f       6       1                 X         
--
 
 
++    Molecular structure info:
      -------------------------
 
                    ************************************************ 
                    **** Cartesian Coordinates / Bohr, Angstrom **** 
                    ************************************************ 
 
     Center  Label                x              y              z                     x              y              z
        1      O1               0.000000       0.000000       5.896399              0.000000       0.000000       3.120240
        2      FE2              0.000000       0.000000      -2.872837              0.000000       0.000000      -1.520240
--
 
 
            Nuclear Potential Energy             23.71928331 au
 
 ###############################################################################
 ###############################################################################
 ###                                                                         ###
 ###                                                                         ###
 ###    There were warnings during the execution                             ###
 ###    Please, check the output with care!                                  ###
 ###                                                                         ###
 ###                                                                         ###
 ###############################################################################
 ###############################################################################
--- Stop Module: gateway at Sun Dec 22 16:40:43 2024 /rc=_RC_ALL_IS_WELL_ ---
*** files: xmldump
    saved to directory /home/grierjones/DDCASPT2/iron_oxo_DDCASPT2/cluster/4.64

--- Start Module: seward at Sun Dec 22 16:40:43 2024 ---
 
()()()()()()()()()()()()()()()()()()()()()()()()()()()()()()()()()()()()()()()()()()()()()()()()()()

                                              &SEWARD

                                   only a single process is used
                       available to each process: 2.0 GB of memory, 1 thread?
()()()()()()()()()()()()()()()()()()()()()()()()()()()()()()()()()()()()()()()()()()()()()()()()()()
 
 ###############################################################################
 ###############################################################################
 ###                                                                         ###
 ###                                                                         ###
 ###                                                                         ###
 ###    WARNING: EXPERT option is ON!                                        ###
 ###                                                                         ###
 ###                                                                         ###
 ###############################################################################
 ###############################################################################
               SEWARD will generate:
                  Multipole Moment integrals up to order  2
                  Kinetic Energy integrals
                  Nuclear Attraction integrals (point charge)
                  One-Electron Hamiltonian integrals
                  Velocity integrals
                  Relativistic Douglas-Kroll-Hess integrals:
                    - Parametrization         : EXP
                    - DKH order of Hamiltonian: 2
                    - DKH order of Properties : 0
                         - multipole moment operators
                         - electric potential operators
                         - contact operators
                  Atomic mean-field integrals
                  Two-Electron Repulsion integrals
 
                   Integrals are discarded if absolute value <: 0.10E-13
                   Integral cutoff threshold is set to       <: 0.10E-15
 
            Nuclear Potential Energy             23.71928331 au
 
 
      Basis set specifications :
      Symmetry species         a  
      Basis functions           48
 
 
  Input file to MOLDEN was generated!
 
 ###############################################################################
 ###############################################################################
 ###                                                                         ###
 ###                                                                         ###
 ###    There were warnings during the execution                             ###
 ###    Please, check the output with care!                                  ###
 ###                                                                         ###
 ###                                                                         ###
 ###############################################################################
 ###############################################################################
--- Stop Module: seward at Sun Dec 22 16:40:44 2024 /rc=_RC_ALL_IS_WELL_ ---
*** files: 4.64.GssOrb 4.64.guessorb.h5 4.64.guessorb.molden xmldump
    saved to directory /home/grierjones/DDCASPT2/iron_oxo_DDCASPT2/cluster/4.64

*** symbolic link created: INPORB -> 4.64.GssOrb
--- Start Module: scf at Sun Dec 22 16:40:44 2024 ---
 
()()()()()()()()()()()()()()()()()()()()()()()()()()()()()()()()()()()()()()()()()()()()()()()()()()

                                                &SCF

                                   only a single process is used
                       available to each process: 2.0 GB of memory, 1 thread?
()()()()()()()()()()()()()()()()()()()()()()()()()()()()()()()()()()()()()()()()()()()()()()()()()()
 
 *** Possible bug in opening file
 *** isFreeUnit resets the unit number
++    Input section:
      --------------
 
      Header of the integral files:
      
       Integrals generated by seward 4.2.0  , Sun Dec 22 16:40:44 2024
 
 
      Cartesian coordinates in Angstrom:
      -----------------------------------------------------
      No.  Label        X            Y            Z        
      -----------------------------------------------------
       1   O1         0.00000000   0.00000000   3.12024000
       2   FE2        0.00000000   0.00000000  -1.52024000
      -----------------------------------------------------
      Nuclear repulsion energy =   23.71928331
--
 
++    Orbital specifications:
      -----------------------
 
      Symmetry species               1
                                     a
      Frozen orbitals                0
      Start temperature = 0.500
      End temperature   = 0.010
      Temperature Factor= 0.460
      Deleted orbitals               0
      Total number of orbitals      48
      Number of basis functions     48
--
 
      Molecular charge                           2.000
 
++    Optimization specifications:
      ----------------------------
 
      SCF Algorithm: Conventional USCF
      D(i)-D(i-1) density differences are used
      Number of density matrices in core                5
      Maximum number of NDDO SCF iterations           400
      Maximum number of HF SCF iterations             400
      Threshold for SCF energy change            0.10E-08
      Threshold for density matrix               0.10E-03
      Threshold for Fock matrix                  0.15E-03
      Threshold for linear dependence            0.10E-08
      Threshold at which DIIS is turned on       0.15E+00
      Threshold at which QNR/C2DIIS is turned on 0.75E-01
      Threshold for Norm(delta) (QNR/C2DIIS)     0.20E-04
      DIIS extrapolation of the SCF procedure
      All orbitals punched on: UHFORB
--
 
      Input vectors read from INPORB
      Orbital file label: *Guess orbitals
 
 
++ Convergence information
                               UHF SCF        iterations: Energy and convergence statistics
 
Iter     Tot. SCF        One-elec.       Two-elec.     Energy      Max Dij or  Max Fij      DNorm      TNorm      AccCon     Time
         Energy          Energy          Energy        Change      Delta Norm                                                in Sec.
 
 The total and one-electron energies are shifted by a value of      1000. a.u.
 
   1  -343.288798262  -880.757209445   513.749127872   0.00E+00    0.16E+00*   0.36E+00*    0.75E+01   0.18E+03   None         0.
   2  -343.469703684  -876.581684730   509.392697734  -0.18E+00*   0.12E+00*   0.16E+00*    0.10E+01   0.18E+03   EDIIS        0.
   3  -341.610963981  -924.669111470   559.338864177   0.19E+01*   0.65E-01*   0.19E+00*    0.18E+01   0.19E+03   EDIIS        0.
   4  -342.956922317  -865.252227501   498.576021873  -0.13E+01*   0.73E-01*   0.86E-01*    0.15E+01   0.17E+03   EDIIS        0.
   5  -344.066722244  -898.435918453   530.649912897  -0.11E+01*   0.37E-01*   0.44E-01*    0.85E+00   0.18E+03   EDIIS        0.
   6  -344.218428528  -870.974095090   503.036383251  -0.15E+00*   0.35E+00*   0.21E+00*    0.18E+01   0.18E+03   EDIIS        0.
   7  -342.817094945  -913.531880517   546.995502261   0.14E+01*   0.45E+00*   0.31E-01*    0.22E+01   0.18E+03   EDIIS        0.
   8  -345.075627579  -884.108647826   515.313736936  -0.23E+01*   0.68E+00*   0.18E+00*    0.20E+01   0.18E+03   EDIIS        0.
   9  -345.234088462  -878.998423711   510.045051937  -0.16E+00*   0.23E+00*   0.37E+00*    0.13E+01   0.18E+03   EDIIS        0.
  10  -345.281961299  -882.887310682   513.886066072  -0.48E-01*   0.32E+00*   0.84E-01*    0.70E+00   0.18E+03   EDIIS        0.
  11  -345.296011612  -880.345966906   511.330671983  -0.14E-01*   0.96E-01*   0.44E-01*    0.50E+00   0.18E+03   EDIIS        0.
  12  -345.300379327  -881.383931055   512.364268418  -0.44E-02*   0.68E-01*   0.19E-01*    0.19E+00   0.18E+03   EDIIS        0.
 
       Fermi aufbau procedure completed!
      nOcc(alpha)=   18
      nOcc(beta) =   14
 
  13  -345.301297393  -880.930837021   511.910256317  -0.92E-03*   0.29E-01*   0.69E-02*    0.11E+00   0.18E+03   EDIIS        0.
  14  -345.301538906  -881.108932738   512.088110520  -0.24E-03*   0.14E-01*   0.32E-02*    0.50E-01   0.18E+03   EDIIS        0.
  15  -345.301606826  -881.036917226   512.016027089  -0.68E-04*   0.64E-02*   0.22E-02*    0.25E-01   0.18E+03   EDIIS        0.
  16  -345.301628211  -881.064631479   512.043719957  -0.21E-04*   0.30E-02*   0.13E-02*    0.13E-01   0.18E+03   EDIIS        0.
  17  -345.301635403  -881.053482181   512.032563467  -0.72E-05*   0.60E-03*   0.17E-02*    0.71E-02   0.18E+03   c2DIIS       0.
  18  -345.301639184  -881.062266978   512.041344483  -0.38E-05*   0.64E-03*   0.18E-03*    0.18E-02   0.18E+03   QNRc2DIIS    0.
  19  -345.301639317  -881.054031942   512.033109314  -0.13E-06*   0.40E-03*   0.89E-04     0.86E-03   0.18E+03   QNRc2DIIS    0.
  20  -345.301639359  -881.055428180   512.034505510  -0.42E-07*   0.38E-03*   0.45E-04     0.53E-03   0.18E+03   QNRc2DIIS    0.
  21  -345.301639371  -881.056328115   512.035405433  -0.12E-07*   0.40E-04*   0.31E-05     0.50E-03   0.18E+03   QNRc2DIIS    0.
  22  -345.301639371  -881.056337497   512.035414815  -0.65E-10    0.20E-05    0.80E-06     0.57E-04   0.18E+03   QNRc2DIIS    0.
 
       Convergence after 22 Macro Iterations
--
 
 *****************************************************************************************************************************
 *                                                                                                                           *
 *                                             SCF/KS-DFT Program, Final results                                             *
 *                                                                                                                           *
 *                                                                                                                           *
 *                                                                                                                           *
 *                                                       Final Results                                                       *
 *                                                                                                                           *
 *****************************************************************************************************************************
 
::    Total SCF energy                              -1345.3016393709
      One-electron energy                           -1881.0563374974
      Two-electron energy                             512.0354148155
      Nuclear repulsion energy                         23.7192833111
      Kinetic energy (interpolated)                  1399.7936471325
      Virial theorem                                    0.9610713994
      Total spin, S(S+1)                                8.0105100812
      Total spin, S                                     2.3741103113
      Max non-diagonal density matrix element           0.0000008842
      Max non-diagonal Fock matrix element              0.0000001713
 
 
      All orbitals with orbital energies smaller than  E(LUMO)+0.5 are printed
 
++    Molecular orbitals:
      -------------------
 
      Title: UHF orbitals (alpha)

      Molecular orbitals for symmetry species 1: a  
 
          Orbital            1         2         3         4         5         6         7         8         9        10    
          Energy         -264.6156  -33.4932  -28.5571  -28.5570  -28.5570  -20.8658   -5.4414   -3.9814   -3.9814   -3.9813
          Occ. No.          1.0000    1.0000    1.0000    1.0000    1.0000    1.0000    1.0000    1.0000    1.0000    1.0000
 
        1 O1     1s        -0.0000   -0.0000   -0.0000   -0.0000    0.0000    1.0000   -0.0000   -0.0000   -0.0000   -0.0000
        2 O1     2s        -0.0000   -0.0000   -0.0000   -0.0000    0.0000   -0.0022   -0.0004   -0.0000   -0.0000   -0.0002
        3 O1     3s        -0.0000   -0.0000   -0.0001   -0.0000    0.0000    0.0004   -0.0005   -0.0000   -0.0000   -0.0002
        4 O1     2px       -0.0000    0.0000    0.0000   -0.0000   -0.0000    0.0000   -0.0000    0.0000   -0.0000    0.0000
        5 O1     3px       -0.0000   -0.0000    0.0000   -0.0000   -0.0000   -0.0000    0.0000    0.0000   -0.0001   -0.0000
        6 O1     2py        0.0000    0.0000   -0.0000    0.0000   -0.0000    0.0000   -0.0000   -0.0000   -0.0000    0.0000
        7 O1     3py       -0.0000    0.0000   -0.0000    0.0000   -0.0000   -0.0000   -0.0000   -0.0001   -0.0000    0.0000
        8 O1     2pz        0.0000    0.0000    0.0000    0.0000   -0.0000   -0.0001    0.0002    0.0000    0.0000    0.0001
        9 O1     3pz        0.0000    0.0000    0.0001    0.0000   -0.0000    0.0000    0.0004    0.0000    0.0000    0.0000
       10 O1     3d2-      -0.0000    0.0000   -0.0000   -0.0000    0.0000   -0.0000   -0.0000   -0.0000   -0.0000    0.0000
       11 O1     3d1-       0.0000   -0.0000    0.0000   -0.0000    0.0000   -0.0000   -0.0000    0.0000    0.0000   -0.0000
       12 O1     3d0        0.0000   -0.0000   -0.0000   -0.0000    0.0000    0.0009   -0.0000   -0.0000   -0.0000   -0.0000
       13 O1     3d1+      -0.0000    0.0000   -0.0000    0.0000    0.0000    0.0000   -0.0000   -0.0000    0.0000   -0.0000
       14 O1     3d2+      -0.0000   -0.0000   -0.0000    0.0000    0.0000   -0.0000    0.0000    0.0000    0.0000   -0.0000
       15 FE2    1s         1.0000   -0.0000   -0.0000   -0.0000    0.0000   -0.0000    0.0000    0.0000    0.0000    0.0000
       16 FE2    2s         0.0000    1.0000   -0.0000   -0.0000    0.0000   -0.0000   -0.0035   -0.0000   -0.0000   -0.0000
       17 FE2    3s        -0.0000    0.0035    0.0000    0.0000   -0.0000   -0.0000    0.9999    0.0000    0.0000   -0.0000
       18 FE2    4s         0.0000   -0.0003    0.0000    0.0000   -0.0000   -0.0000   -0.0076    0.0000   -0.0000    0.0000
       19 FE2    5s        -0.0000    0.0004    0.0000    0.0000   -0.0000   -0.0001    0.0083    0.0000    0.0000    0.0000
       20 FE2    2px        0.0000   -0.0000   -0.0000    0.8988    0.4384    0.0000   -0.0000    0.0000   -0.0035    0.0000
       21 FE2    3px       -0.0000    0.0000   -0.0000    0.0031    0.0015    0.0000   -0.0000   -0.0004    0.9996   -0.0000
       22 FE2    4px       -0.0000    0.0000    0.0000   -0.0005   -0.0003    0.0000    0.0000    0.0000   -0.0192    0.0000
       23 FE2    5px       -0.0000    0.0000   -0.0000    0.0013    0.0007    0.0000   -0.0000   -0.0000    0.0182   -0.0000
       24 FE2    2py        0.0000   -0.0000    0.0000   -0.4384    0.8988    0.0000    0.0000   -0.0035   -0.0000    0.0000
       25 FE2    3py       -0.0000    0.0000    0.0000   -0.0015    0.0031    0.0000   -0.0000    0.9996    0.0004   -0.0000
       26 FE2    4py        0.0000   -0.0000   -0.0000    0.0003   -0.0005   -0.0000    0.0000   -0.0192   -0.0000    0.0000
       27 FE2    5py        0.0000   -0.0000    0.0000   -0.0007    0.0013    0.0000   -0.0000    0.0182    0.0000   -0.0000
       28 FE2    2pz        0.0000    0.0000    1.0000    0.0000   -0.0000    0.0000   -0.0000   -0.0000   -0.0000   -0.0035
       29 FE2    3pz       -0.0000    0.0000    0.0035    0.0000   -0.0000   -0.0000    0.0001    0.0000    0.0000    0.9996
       30 FE2    4pz        0.0000    0.0000   -0.0006   -0.0000    0.0000   -0.0000    0.0001   -0.0000   -0.0000   -0.0192
       31 FE2    5pz       -0.0000    0.0000    0.0015    0.0000   -0.0000   -0.0000    0.0001    0.0000    0.0000    0.0182
       32 FE2    3d2-      -0.0000    0.0000   -0.0000   -0.0000   -0.0000   -0.0000    0.0000    0.0000    0.0000   -0.0000
       33 FE2    4d2-      -0.0000    0.0000    0.0000    0.0000    0.0000   -0.0000    0.0000   -0.0000    0.0000   -0.0000
       34 FE2    3d1-       0.0000   -0.0000    0.0000   -0.0000    0.0000    0.0000   -0.0000    0.0000    0.0000   -0.0000
       35 FE2    4d1-       0.0000   -0.0000    0.0000   -0.0000    0.0000    0.0000    0.0000   -0.0000   -0.0000    0.0000
       36 FE2    3d0        0.0000    0.0000    0.0000    0.0000   -0.0000   -0.0000   -0.0000    0.0000    0.0000    0.0001
       37 FE2    4d0        0.0000    0.0000    0.0000    0.0000   -0.0000   -0.0000    0.0001   -0.0000   -0.0000   -0.0000
       38 FE2    3d1+      -0.0000    0.0000   -0.0000    0.0000    0.0000    0.0000    0.0000   -0.0000    0.0000   -0.0000
       39 FE2    4d1+       0.0000   -0.0000   -0.0000    0.0000    0.0000    0.0000   -0.0000    0.0000   -0.0000    0.0000
       40 FE2    3d2+      -0.0000    0.0000   -0.0000    0.0000   -0.0000    0.0000    0.0000   -0.0000    0.0000   -0.0000
       41 FE2    4d2+       0.0000   -0.0000   -0.0000   -0.0000   -0.0000   -0.0000   -0.0000    0.0000   -0.0000    0.0000
       42 FE2    4f3-      -0.0000   -0.0000   -0.0000    0.0000   -0.0000    0.0000   -0.0000   -0.0000    0.0000    0.0000
       43 FE2    4f2-       0.0000    0.0000    0.0000    0.0000    0.0000   -0.0000    0.0000    0.0000    0.0000   -0.0000
       44 FE2    4f1-      -0.0000   -0.0000    0.0000   -0.0000    0.0000   -0.0000   -0.0000   -0.0000   -0.0000    0.0000
       45 FE2    4f0        0.0000    0.0000    0.0000    0.0000   -0.0000   -0.0000    0.0000   -0.0000   -0.0000   -0.0000
       46 FE2    4f1+      -0.0000    0.0000   -0.0000    0.0000    0.0000    0.0000   -0.0000    0.0000   -0.0000    0.0000
       47 FE2    4f2+       0.0000   -0.0000   -0.0000    0.0000    0.0000   -0.0000    0.0000    0.0000    0.0000    0.0000
       48 FE2    4f3+       0.0000   -0.0000   -0.0000    0.0000    0.0000   -0.0000    0.0000   -0.0000    0.0000    0.0000
 
          Orbital           11        12        13        14        15        16        17        18        19        20    
          Energy           -1.6620   -1.6620   -1.6620   -1.6620   -1.6620   -1.3096   -0.9495   -0.7490   -0.4814   -0.4814
          Occ. No.          1.0000    1.0000    1.0000    1.0000    1.0000    1.0000    1.0000    1.0000    0.0000    0.0000
 
        1 O1     1s        -0.0000   -0.0000    0.0001   -0.0000    0.0000    0.0021    0.0008    0.0002    0.0000    0.0000
        2 O1     2s        -0.0000   -0.0000    0.0011   -0.0000    0.0000    0.9991    0.0040    0.0221    0.0000    0.0000
        3 O1     3s        -0.0000   -0.0000    0.0009   -0.0000    0.0000    0.0223    0.0070   -0.0126    0.0000    0.0000
        4 O1     2px        0.0000    0.0000   -0.0000   -0.0000    0.0003    0.0000   -0.0000    0.0000   -0.0003    0.0011
        5 O1     3px        0.0000    0.0000   -0.0000   -0.0000    0.0006   -0.0000   -0.0000    0.0000   -0.0011    0.0042
        6 O1     2py        0.0000    0.0000    0.0000    0.0003    0.0000   -0.0000    0.0000   -0.0000   -0.0011   -0.0003
        7 O1     3py        0.0000    0.0000    0.0000    0.0006    0.0000   -0.0000    0.0000   -0.0000   -0.0042   -0.0011
        8 O1     2pz        0.0000    0.0000   -0.0009    0.0000   -0.0000   -0.0199   -0.0146    0.9961    0.0000   -0.0000
        9 O1     3pz        0.0000    0.0000   -0.0009    0.0000   -0.0000   -0.0075   -0.0049    0.0512   -0.0000   -0.0000
       10 O1     3d2-       0.0000    0.0000    0.0000   -0.0000   -0.0000   -0.0000   -0.0000    0.0000    0.0000    0.0000
       11 O1     3d1-      -0.0000   -0.0000    0.0000   -0.0001   -0.0000   -0.0000    0.0000    0.0000   -0.0000   -0.0000
       12 O1     3d0       -0.0000   -0.0000    0.0001   -0.0000    0.0000    0.0298    0.0001   -0.0064   -0.0000    0.0000
       13 O1     3d1+      -0.0000   -0.0000    0.0000    0.0000   -0.0001    0.0000   -0.0000   -0.0000   -0.0000    0.0000
       14 O1     3d2+       0.0000   -0.0000    0.0000   -0.0000    0.0000   -0.0000   -0.0000   -0.0000   -0.0000    0.0000
       15 FE2    1s         0.0000    0.0000   -0.0000   -0.0000   -0.0000   -0.0000   -0.0000    0.0000   -0.0000   -0.0000
       16 FE2    2s         0.0000    0.0000   -0.0000    0.0000   -0.0000   -0.0000    0.0004    0.0003    0.0000   -0.0000
       17 FE2    3s        -0.0000   -0.0000    0.0000    0.0000    0.0000   -0.0001    0.0101    0.0016   -0.0000   -0.0000
       18 FE2    4s         0.0000    0.0000   -0.0002    0.0000   -0.0000    0.0008    0.9276    0.0217    0.0000   -0.0000
       19 FE2    5s         0.0000    0.0000   -0.0003   -0.0000   -0.0000   -0.0009   -0.3720   -0.0125   -0.0000   -0.0000
       20 FE2    2px       -0.0000    0.0000    0.0000    0.0000   -0.0000   -0.0000   -0.0000    0.0000    0.0001   -0.0005
       21 FE2    3px       -0.0000   -0.0000    0.0000    0.0000   -0.0001    0.0000    0.0000   -0.0000    0.0045   -0.0180
       22 FE2    4px       -0.0000   -0.0000    0.0000    0.0000   -0.0002   -0.0000    0.0000   -0.0000    0.2429   -0.9695
       23 FE2    5px       -0.0000    0.0000    0.0000    0.0000   -0.0000   -0.0000    0.0000    0.0000    0.0079   -0.0315
       24 FE2    2py        0.0000   -0.0000    0.0000   -0.0000   -0.0000    0.0000    0.0000    0.0000    0.0005    0.0001
       25 FE2    3py       -0.0000   -0.0000   -0.0000   -0.0001   -0.0000   -0.0000   -0.0000   -0.0000    0.0180    0.0045
       26 FE2    4py       -0.0000   -0.0000   -0.0000   -0.0002   -0.0000    0.0000   -0.0000   -0.0000    0.9695    0.2429
       27 FE2    5py       -0.0000   -0.0000    0.0000   -0.0000   -0.0000    0.0000    0.0000    0.0000    0.0315    0.0079
       28 FE2    2pz        0.0000    0.0000   -0.0000    0.0000   -0.0000   -0.0000   -0.0000    0.0000   -0.0000   -0.0000
       29 FE2    3pz        0.0000    0.0000   -0.0001   -0.0000   -0.0000   -0.0001   -0.0002    0.0003   -0.0000   -0.0000
       30 FE2    4pz        0.0000    0.0000   -0.0005    0.0000   -0.0000    0.0006   -0.0074   -0.0291   -0.0000   -0.0000
       31 FE2    5pz        0.0000    0.0000   -0.0001    0.0000   -0.0000   -0.0001   -0.0005   -0.0014   -0.0000   -0.0000
       32 FE2    3d2-       0.0183    0.9905    0.0000   -0.0000   -0.0000    0.0000   -0.0000    0.0000    0.0000   -0.0000
       33 FE2    4d2-      -0.0025   -0.1363   -0.0000    0.0000    0.0000   -0.0000    0.0000    0.0000    0.0000   -0.0000
       34 FE2    3d1-       0.0000    0.0000    0.0000    0.9907    0.0009   -0.0000   -0.0000    0.0000    0.0001    0.0000
       35 FE2    4d1-      -0.0000   -0.0000   -0.0000   -0.1364   -0.0001    0.0000   -0.0000   -0.0000   -0.0007   -0.0002
       36 FE2    3d0       -0.0000   -0.0000    0.9906   -0.0000    0.0000   -0.0003   -0.0001    0.0007    0.0000   -0.0000
       37 FE2    4d0        0.0000    0.0000   -0.1365    0.0000   -0.0000    0.0004   -0.0010   -0.0044    0.0000    0.0000
       38 FE2    3d1+       0.0000    0.0000   -0.0000   -0.0009    0.9907   -0.0000   -0.0000    0.0000    0.0000   -0.0001
       39 FE2    4d1+      -0.0000   -0.0000    0.0000    0.0001   -0.1364   -0.0000    0.0000    0.0000   -0.0002    0.0007
       40 FE2    3d2+       0.9905   -0.0183    0.0000   -0.0000   -0.0000    0.0000    0.0000   -0.0000   -0.0000    0.0000
       41 FE2    4d2+      -0.1363    0.0025   -0.0000    0.0000    0.0000    0.0000    0.0000   -0.0000    0.0000   -0.0000
       42 FE2    4f3-       0.0000    0.0000   -0.0000    0.0000   -0.0000    0.0000    0.0000    0.0000   -0.0000   -0.0000
       43 FE2    4f2-       0.0000    0.0000    0.0000   -0.0000   -0.0000    0.0000   -0.0000    0.0000   -0.0000    0.0000
       44 FE2    4f1-       0.0000    0.0000    0.0000    0.0000    0.0000    0.0000   -0.0000   -0.0000   -0.0000   -0.0000
       45 FE2    4f0       -0.0000   -0.0000    0.0000   -0.0000    0.0000    0.0000   -0.0000   -0.0001    0.0000    0.0000
       46 FE2    4f1+       0.0000    0.0000   -0.0000   -0.0000    0.0000    0.0000    0.0000   -0.0000   -0.0000    0.0000
       47 FE2    4f2+       0.0000   -0.0000    0.0000   -0.0000   -0.0000   -0.0000   -0.0000    0.0000    0.0000    0.0000
       48 FE2    4f3+       0.0000   -0.0000    0.0000    0.0000   -0.0000   -0.0000    0.0000    0.0000   -0.0000   -0.0000
 
          Orbital           21        22        23        24    
          Energy           -0.4803   -0.2465   -0.1392   -0.1392
          Occ. No.          0.0000    0.0000    0.0000    0.0000
 
        1 O1     1s        -0.0021   -0.0058   -0.0000    0.0000
        2 O1     2s        -0.0313   -0.0707    0.0000   -0.0000
        3 O1     3s        -0.0114   -0.0173   -0.0000   -0.0000
        4 O1     2px        0.0000    0.0000    0.0043    0.9453
        5 O1     3px        0.0000    0.0000    0.0015    0.3247
        6 O1     2py       -0.0000   -0.0000    0.9453   -0.0043
        7 O1     3py       -0.0000   -0.0000    0.3247   -0.0015
        8 O1     2pz        0.0758    0.0712    0.0000   -0.0000
        9 O1     3pz        0.0179    0.0180    0.0000   -0.0000
       10 O1     3d2-       0.0000    0.0000    0.0000    0.0000
       11 O1     3d1-       0.0000    0.0000   -0.0062    0.0000
       12 O1     3d0       -0.0003   -0.0002   -0.0000    0.0000
       13 O1     3d1+      -0.0000   -0.0000   -0.0000   -0.0062
       14 O1     3d2+      -0.0000   -0.0000    0.0000   -0.0000
       15 FE2    1s         0.0000    0.0000    0.0000   -0.0000
       16 FE2    2s         0.0000   -0.0001    0.0000   -0.0000
       17 FE2    3s         0.0003   -0.0045    0.0000   -0.0000
       18 FE2    4s         0.0085    0.3755    0.0000   -0.0000
       19 FE2    5s        -0.0015    0.9365    0.0000   -0.0000
       20 FE2    2px       -0.0000   -0.0000   -0.0000   -0.0000
       21 FE2    3px       -0.0000   -0.0000   -0.0000   -0.0008
       22 FE2    4px       -0.0000   -0.0000   -0.0001   -0.0199
       23 FE2    5px       -0.0000   -0.0000    0.0000    0.0026
       24 FE2    2py        0.0000    0.0000   -0.0000    0.0000
       25 FE2    3py        0.0000   -0.0000   -0.0008    0.0000
       26 FE2    4py        0.0000    0.0000   -0.0199    0.0001
       27 FE2    5py        0.0000    0.0000    0.0026   -0.0000
       28 FE2    2pz        0.0005    0.0000    0.0000    0.0000
       29 FE2    3pz        0.0188    0.0004    0.0000   -0.0000
       30 FE2    4pz        1.0031    0.0101    0.0000   -0.0000
       31 FE2    5pz        0.0326   -0.0008   -0.0000    0.0000
       32 FE2    3d2-       0.0000   -0.0000    0.0000    0.0000
       33 FE2    4d2-      -0.0000   -0.0000    0.0000   -0.0000
       34 FE2    3d1-       0.0000    0.0000    0.0020   -0.0000
       35 FE2    4d1-      -0.0000   -0.0000    0.0200   -0.0001
       36 FE2    3d0        0.0003   -0.0003   -0.0000    0.0000
       37 FE2    4d0       -0.0016   -0.0035   -0.0000    0.0000
       38 FE2    3d1+       0.0000    0.0000    0.0000    0.0020
       39 FE2    4d1+       0.0000    0.0000    0.0001    0.0200
       40 FE2    3d2+      -0.0000   -0.0000   -0.0000    0.0000
       41 FE2    4d2+      -0.0000   -0.0000    0.0000    0.0000
       42 FE2    4f3-       0.0000    0.0000   -0.0000    0.0000
       43 FE2    4f2-      -0.0000   -0.0000    0.0000    0.0000
       44 FE2    4f1-      -0.0000    0.0000    0.0002   -0.0000
       45 FE2    4f0       -0.0001   -0.0000   -0.0000    0.0000
       46 FE2    4f1+       0.0000    0.0000    0.0000    0.0002
       47 FE2    4f2+       0.0000    0.0000   -0.0000   -0.0000
       48 FE2    4f3+      -0.0000   -0.0000   -0.0000    0.0000
--
 
 
  Input file to MOLDEN was generated!
 
 
++    Static properties:
      ------------------
 
 
      LoProp Charges per center
 

                   O1       FE2   
      Nuclear      8.0000  26.0000
      Electronic  -7.9988 -24.0012
 
      Total        0.0012   1.9988
--
 
 
      All orbitals with orbital energies smaller than  E(LUMO)+0.5 are printed
 
++    Molecular orbitals:
      -------------------
 
      Title: UHF orbitals (beta)

      Molecular orbitals for symmetry species 1: a  
 
          Orbital            1         2         3         4         5         6         7         8         9        10    
          Energy         -264.6078  -33.3166  -28.3846  -28.3846  -28.3846  -20.9511   -4.9673   -3.4188   -3.4188   -3.4188
          Occ. No.          1.0000    1.0000    1.0000    1.0000    1.0000    1.0000    1.0000    1.0000    1.0000    1.0000
 
        1 O1     1s        -0.0000    0.0000    0.0000    0.0000    0.0000    1.0000   -0.0000    0.0000    0.0000    0.0000
        2 O1     2s        -0.0000    0.0000    0.0000    0.0000    0.0000    0.0019   -0.0001    0.0000   -0.0000    0.0001
        3 O1     3s        -0.0000    0.0000    0.0000    0.0000    0.0001   -0.0017   -0.0002    0.0000    0.0000    0.0002
        4 O1     2px       -0.0000    0.0000   -0.0000    0.0000    0.0000    0.0000   -0.0000   -0.0000    0.0000    0.0000
        5 O1     3px       -0.0000   -0.0000   -0.0000    0.0000    0.0000   -0.0000    0.0000   -0.0000    0.0001   -0.0000
        6 O1     2py        0.0000    0.0000    0.0000    0.0000   -0.0000    0.0000   -0.0000    0.0000    0.0000   -0.0000
        7 O1     3py       -0.0000    0.0000    0.0000    0.0000   -0.0000   -0.0000    0.0000    0.0001    0.0000   -0.0000
        8 O1     2pz        0.0000   -0.0000   -0.0000   -0.0000   -0.0000   -0.0001    0.0001    0.0000   -0.0000   -0.0002
        9 O1     3pz        0.0000   -0.0000   -0.0000   -0.0000   -0.0001    0.0001    0.0001   -0.0000   -0.0000   -0.0004
       10 O1     3d2-      -0.0000    0.0000    0.0000    0.0000   -0.0000    0.0000   -0.0000   -0.0000   -0.0000    0.0000
       11 O1     3d1-       0.0000   -0.0000   -0.0000   -0.0000    0.0000    0.0000   -0.0000   -0.0000   -0.0000   -0.0000
       12 O1     3d0        0.0000    0.0000    0.0000    0.0000    0.0000   -0.0004    0.0000   -0.0000    0.0000    0.0000
       13 O1     3d1+      -0.0000    0.0000    0.0000   -0.0000   -0.0000   -0.0000   -0.0000    0.0000   -0.0000    0.0000
       14 O1     3d2+      -0.0000   -0.0000    0.0000    0.0000   -0.0000    0.0000    0.0000    0.0000    0.0000   -0.0000
       15 FE2    1s         1.0000   -0.0000   -0.0000   -0.0000   -0.0000    0.0000    0.0000    0.0000    0.0000   -0.0000
       16 FE2    2s         0.0000    1.0000   -0.0000   -0.0000   -0.0000    0.0000    0.0011   -0.0000   -0.0000   -0.0000
       17 FE2    3s        -0.0000   -0.0011    0.0000    0.0000    0.0000    0.0000    1.0000   -0.0000   -0.0000   -0.0002
       18 FE2    4s         0.0000    0.0002   -0.0000   -0.0000   -0.0000    0.0000   -0.0028    0.0000   -0.0000   -0.0001
       19 FE2    5s        -0.0000   -0.0002   -0.0000   -0.0000   -0.0000    0.0001    0.0033   -0.0000   -0.0000   -0.0001
       20 FE2    2px        0.0000   -0.0000   -0.7581    0.6521    0.0000    0.0000   -0.0000   -0.0002    0.0032   -0.0000
       21 FE2    3px       -0.0000    0.0000    0.0024   -0.0021   -0.0000   -0.0000   -0.0000   -0.0556    0.9984   -0.0000
       22 FE2    4px       -0.0000    0.0000   -0.0003    0.0003    0.0000    0.0000    0.0000    0.0006   -0.0114    0.0000
       23 FE2    5px       -0.0000    0.0000    0.0008   -0.0007   -0.0000    0.0000   -0.0000   -0.0003    0.0055   -0.0000
       24 FE2    2py        0.0000   -0.0000    0.6521    0.7581   -0.0000    0.0000    0.0000    0.0032    0.0002   -0.0000
       25 FE2    3py       -0.0000    0.0000   -0.0021   -0.0024    0.0000   -0.0000   -0.0000    0.9984    0.0556   -0.0000
       26 FE2    4py        0.0000   -0.0000    0.0003    0.0003   -0.0000   -0.0000    0.0000   -0.0114   -0.0006    0.0000
       27 FE2    5py        0.0000   -0.0000   -0.0007   -0.0008    0.0000    0.0000   -0.0000    0.0055    0.0003   -0.0000
       28 FE2    2pz        0.0000    0.0000    0.0000    0.0000    1.0000    0.0000   -0.0000    0.0000    0.0000    0.0032
       29 FE2    3pz       -0.0000    0.0000   -0.0000   -0.0000   -0.0032    0.0000    0.0002    0.0000    0.0000    0.9999
       30 FE2    4pz        0.0000   -0.0000    0.0000    0.0000    0.0004    0.0001    0.0000   -0.0000   -0.0000   -0.0115
       31 FE2    5pz       -0.0000   -0.0000   -0.0000   -0.0000   -0.0011    0.0000    0.0000    0.0000    0.0000    0.0055
       32 FE2    3d2-      -0.0000    0.0000    0.0000   -0.0000   -0.0000   -0.0000   -0.0000    0.0000    0.0000   -0.0000
       33 FE2    4d2-      -0.0000    0.0000   -0.0000    0.0000    0.0000    0.0000    0.0000   -0.0000    0.0000   -0.0000
       34 FE2    3d1-       0.0000   -0.0000    0.0000    0.0000   -0.0000   -0.0000   -0.0000    0.0001    0.0000   -0.0000
       35 FE2    4d1-       0.0000   -0.0000   -0.0000   -0.0000    0.0000    0.0000    0.0000   -0.0000   -0.0000    0.0000
       36 FE2    3d0        0.0000   -0.0000   -0.0000   -0.0000   -0.0000    0.0000   -0.0000    0.0000    0.0000    0.0001
       37 FE2    4d0        0.0000   -0.0000   -0.0000   -0.0000   -0.0000    0.0000    0.0000   -0.0000   -0.0000   -0.0001
       38 FE2    3d1+      -0.0000    0.0000   -0.0000    0.0000    0.0000    0.0000   -0.0000   -0.0000    0.0001   -0.0000
       39 FE2    4d1+       0.0000   -0.0000    0.0000   -0.0000   -0.0000   -0.0000   -0.0000    0.0000   -0.0000    0.0000
       40 FE2    3d2+      -0.0000    0.0000   -0.0000    0.0000   -0.0000    0.0000    0.0000   -0.0000    0.0000   -0.0000
       41 FE2    4d2+       0.0000   -0.0000    0.0000   -0.0000   -0.0000   -0.0000    0.0000   -0.0000   -0.0000    0.0000
       42 FE2    4f3-      -0.0000   -0.0000   -0.0000   -0.0000   -0.0000    0.0000   -0.0000   -0.0000    0.0000    0.0000
       43 FE2    4f2-       0.0000    0.0000   -0.0000    0.0000    0.0000   -0.0000    0.0000    0.0000    0.0000   -0.0000
       44 FE2    4f1-      -0.0000   -0.0000   -0.0000   -0.0000    0.0000   -0.0000   -0.0000   -0.0000   -0.0000    0.0000
       45 FE2    4f0        0.0000   -0.0000   -0.0000   -0.0000   -0.0000    0.0000   -0.0000   -0.0000   -0.0000   -0.0000
       46 FE2    4f1+      -0.0000    0.0000    0.0000   -0.0000   -0.0000    0.0000   -0.0000    0.0000   -0.0000    0.0000
       47 FE2    4f2+       0.0000   -0.0000   -0.0000    0.0000   -0.0000   -0.0000    0.0000    0.0000    0.0000    0.0000
       48 FE2    4f3+       0.0000    0.0000    0.0000    0.0000   -0.0000   -0.0000    0.0000   -0.0000   -0.0000    0.0000
 
          Orbital           11        12        13        14        15        16        17        18        19        20    
          Energy           -1.6527   -0.9428   -0.9428   -0.8450   -0.5728   -0.5708   -0.5708   -0.5706   -0.5706   -0.5706
          Occ. No.          1.0000    1.0000    1.0000    1.0000    0.0000    0.0000    0.0000    0.0000    0.0000    0.0000
 
        1 O1     1s        -0.0019   -0.0000   -0.0000    0.0001    0.0001    0.0000    0.0000   -0.0000    0.0000   -0.0003
        2 O1     2s         0.9994    0.0000   -0.0000    0.0161   -0.0015    0.0000    0.0000   -0.0000    0.0000   -0.0044
        3 O1     3s        -0.0286   -0.0000   -0.0000   -0.0120    0.0016    0.0000   -0.0000   -0.0000    0.0000   -0.0015
        4 O1     2px        0.0000    0.0353    0.9982    0.0000   -0.0000   -0.0000   -0.0000   -0.0001   -0.0021   -0.0000
        5 O1     3px       -0.0000   -0.0017   -0.0487   -0.0000   -0.0000   -0.0000   -0.0000   -0.0001   -0.0013   -0.0000
        6 O1     2py        0.0000    0.9982   -0.0353   -0.0000   -0.0000   -0.0000   -0.0000   -0.0021    0.0001    0.0000
        7 O1     3py       -0.0000   -0.0487    0.0017    0.0000   -0.0000   -0.0000   -0.0000   -0.0013    0.0001    0.0000
        8 O1     2pz       -0.0165    0.0000   -0.0000    0.9992    0.0207   -0.0000   -0.0000    0.0000   -0.0000    0.0159
        9 O1     3pz       -0.0038   -0.0000    0.0000   -0.0087   -0.0010   -0.0000    0.0000    0.0000   -0.0000    0.0034
       10 O1     3d2-      -0.0000   -0.0000    0.0000    0.0000    0.0000   -0.0000   -0.0000   -0.0000   -0.0000    0.0000
       11 O1     3d1-       0.0000   -0.0058    0.0002    0.0000    0.0000    0.0000    0.0000    0.0000   -0.0000    0.0000
       12 O1     3d0       -0.0208   -0.0000    0.0000   -0.0077    0.0002    0.0000   -0.0000   -0.0000   -0.0000    0.0000
       13 O1     3d1+      -0.0000   -0.0002   -0.0058   -0.0000   -0.0000    0.0000    0.0000    0.0000    0.0000   -0.0000
       14 O1     3d2+       0.0000   -0.0000   -0.0000   -0.0000   -0.0000   -0.0000    0.0000    0.0000    0.0000    0.0000
       15 FE2    1s        -0.0000   -0.0000    0.0000    0.0000   -0.0000   -0.0000    0.0000    0.0000    0.0000    0.0000
       16 FE2    2s        -0.0000   -0.0000   -0.0000    0.0001   -0.0002    0.0000    0.0000    0.0000    0.0000   -0.0000
       17 FE2    3s        -0.0001    0.0000    0.0000    0.0008    0.0035   -0.0000   -0.0000   -0.0000   -0.0000    0.0004
       18 FE2    4s        -0.0006    0.0000    0.0000   -0.0083    0.9629   -0.0000   -0.0000   -0.0000   -0.0000    0.1073
       19 FE2    5s        -0.0014    0.0000   -0.0000    0.0019   -0.2461    0.0000    0.0000    0.0000    0.0000   -0.0267
       20 FE2    2px       -0.0000   -0.0000   -0.0000    0.0000   -0.0000   -0.0000    0.0000   -0.0000   -0.0000    0.0000
       21 FE2    3px        0.0000   -0.0000   -0.0000   -0.0000    0.0000   -0.0000   -0.0000   -0.0000   -0.0001   -0.0000
       22 FE2    4px        0.0000   -0.0000   -0.0004   -0.0000    0.0000    0.0000   -0.0000    0.0000    0.0003    0.0000
       23 FE2    5px       -0.0000   -0.0000   -0.0002    0.0000    0.0000   -0.0000    0.0000   -0.0000   -0.0000   -0.0000
       24 FE2    2py        0.0000   -0.0000    0.0000    0.0000    0.0000    0.0000    0.0000   -0.0000    0.0000    0.0000
       25 FE2    3py       -0.0000   -0.0000    0.0000   -0.0000   -0.0000   -0.0000   -0.0000   -0.0001    0.0000   -0.0000
       26 FE2    4py        0.0000   -0.0004    0.0000   -0.0000   -0.0000   -0.0000    0.0000    0.0003   -0.0000   -0.0000
       27 FE2    5py        0.0000   -0.0002    0.0000    0.0000    0.0000    0.0000   -0.0000   -0.0000    0.0000    0.0000
       28 FE2    2pz       -0.0000    0.0000    0.0000    0.0000    0.0000    0.0000    0.0000   -0.0000   -0.0000    0.0000
       29 FE2    3pz       -0.0001    0.0000   -0.0000    0.0005   -0.0000    0.0000    0.0000   -0.0000    0.0000   -0.0001
       30 FE2    4pz       -0.0008   -0.0000    0.0000   -0.0059   -0.0019    0.0000   -0.0000    0.0000    0.0000   -0.0004
       31 FE2    5pz       -0.0004   -0.0000    0.0000   -0.0006   -0.0004    0.0000   -0.0000    0.0000    0.0000   -0.0001
       32 FE2    3d2-      -0.0000   -0.0000    0.0000   -0.0000    0.0000    0.0773    0.9889   -0.0000   -0.0000    0.0000
       33 FE2    4d2-       0.0000    0.0000   -0.0000    0.0000    0.0000    0.0099    0.1263   -0.0000   -0.0000    0.0000
       34 FE2    3d1-       0.0000    0.0002   -0.0000   -0.0000    0.0000    0.0000    0.0000    0.9899   -0.0648   -0.0000
       35 FE2    4d1-       0.0000   -0.0001    0.0000   -0.0000    0.0000    0.0000    0.0000    0.1263   -0.0083   -0.0000
       36 FE2    3d0       -0.0000   -0.0000   -0.0000   -0.0054   -0.1093   -0.0000   -0.0000    0.0000   -0.0000    0.9861
       37 FE2    4d0       -0.0003   -0.0000    0.0000   -0.0020   -0.0145   -0.0000   -0.0000    0.0000   -0.0000    0.1257
       38 FE2    3d1+       0.0000    0.0000    0.0002   -0.0000    0.0000    0.0000    0.0000    0.0648    0.9899    0.0000
       39 FE2    4d1+       0.0000   -0.0000   -0.0001   -0.0000    0.0000    0.0000    0.0000    0.0083    0.1263    0.0000
       40 FE2    3d2+      -0.0000    0.0000   -0.0000    0.0000    0.0000    0.9889   -0.0773   -0.0000   -0.0000    0.0000
       41 FE2    4d2+       0.0000    0.0000   -0.0000   -0.0000    0.0000    0.1263   -0.0099   -0.0000   -0.0000    0.0000
       42 FE2    4f3-       0.0000   -0.0000    0.0000    0.0000    0.0000    0.0000    0.0000    0.0000   -0.0000    0.0000
       43 FE2    4f2-       0.0000    0.0000    0.0000    0.0000   -0.0000    0.0000    0.0001   -0.0000   -0.0000    0.0000
       44 FE2    4f1-      -0.0000    0.0000   -0.0000    0.0000    0.0000    0.0000    0.0000    0.0001   -0.0000   -0.0000
       45 FE2    4f0        0.0000    0.0000   -0.0000   -0.0001   -0.0000    0.0000   -0.0000    0.0000   -0.0000    0.0000
       46 FE2    4f1+       0.0000    0.0000    0.0000   -0.0000    0.0000    0.0000    0.0000    0.0000    0.0001    0.0000
       47 FE2    4f2+      -0.0000   -0.0000   -0.0000    0.0000   -0.0000    0.0001   -0.0000   -0.0000   -0.0000    0.0000
       48 FE2    4f3+      -0.0000   -0.0000    0.0000    0.0000    0.0000    0.0000   -0.0000    0.0000   -0.0000    0.0000
 
          Orbital           21        22        23        24    
          Energy           -0.3912   -0.3912   -0.3898   -0.2250
          Occ. No.          0.0000    0.0000    0.0000    0.0000
 
        1 O1     1s         0.0000    0.0000   -0.0022   -0.0057
        2 O1     2s         0.0000    0.0000   -0.0275   -0.0634
        3 O1     3s         0.0000    0.0000   -0.0058   -0.0107
        4 O1     2px       -0.0003    0.0066    0.0000    0.0000
        5 O1     3px       -0.0001    0.0012    0.0000    0.0000
        6 O1     2py       -0.0066   -0.0003   -0.0000   -0.0000
        7 O1     3py       -0.0012   -0.0001   -0.0000   -0.0000
        8 O1     2pz       -0.0000   -0.0000    0.0452    0.0562
        9 O1     3pz       -0.0000   -0.0000    0.0032    0.0107
       10 O1     3d2-       0.0000    0.0000   -0.0000    0.0000
       11 O1     3d1-      -0.0002   -0.0000    0.0000    0.0000
       12 O1     3d0       -0.0000   -0.0000    0.0009    0.0009
       13 O1     3d1+      -0.0000    0.0002    0.0000    0.0000
       14 O1     3d2+      -0.0000   -0.0000   -0.0000   -0.0000
       15 FE2    1s        -0.0000   -0.0000    0.0000    0.0000
       16 FE2    2s         0.0000   -0.0000    0.0000    0.0002
       17 FE2    3s        -0.0000    0.0000    0.0001   -0.0023
       18 FE2    4s         0.0000   -0.0000    0.0014    0.2511
       19 FE2    5s        -0.0000   -0.0000   -0.0053    0.9751
       20 FE2    2px       -0.0000    0.0003    0.0000   -0.0000
       21 FE2    3px        0.0005   -0.0110   -0.0000   -0.0000
       22 FE2    4px        0.0415   -0.9966   -0.0000   -0.0000
       23 FE2    5px        0.0030   -0.0721   -0.0000   -0.0000
       24 FE2    2py       -0.0003   -0.0000   -0.0000    0.0000
       25 FE2    3py        0.0110    0.0005    0.0000   -0.0000
       26 FE2    4py        0.9966    0.0415    0.0000    0.0000
       27 FE2    5py        0.0721    0.0030    0.0000    0.0000
       28 FE2    2pz        0.0000    0.0000   -0.0003   -0.0000
       29 FE2    3pz       -0.0000   -0.0000    0.0111    0.0003
       30 FE2    4pz       -0.0000   -0.0000    0.9994    0.0127
       31 FE2    5pz       -0.0000   -0.0000    0.0720    0.0001
       32 FE2    3d2-      -0.0000   -0.0000    0.0000   -0.0000
       33 FE2    4d2-       0.0000   -0.0000    0.0000   -0.0000
       34 FE2    3d1-      -0.0002   -0.0000    0.0000    0.0000
       35 FE2    4d1-      -0.0000   -0.0000    0.0000    0.0000
       36 FE2    3d0        0.0000   -0.0000    0.0015    0.0015
       37 FE2    4d0        0.0000    0.0000   -0.0007   -0.0018
       38 FE2    3d1+      -0.0000    0.0002   -0.0000   -0.0000
       39 FE2    4d1+      -0.0000    0.0000    0.0000    0.0000
       40 FE2    3d2+       0.0000    0.0000   -0.0000   -0.0000
       41 FE2    4d2+      -0.0000    0.0000   -0.0000   -0.0000
       42 FE2    4f3-      -0.0000   -0.0000    0.0000   -0.0000
       43 FE2    4f2-       0.0000    0.0000   -0.0000   -0.0000
       44 FE2    4f1-      -0.0000   -0.0000   -0.0000    0.0000
       45 FE2    4f0        0.0000    0.0000   -0.0000   -0.0000
       46 FE2    4f1+      -0.0000    0.0000    0.0000    0.0000
       47 FE2    4f2+       0.0000    0.0000    0.0000    0.0000
       48 FE2    4f3+      -0.0000   -0.0000   -0.0000   -0.0000
--
 
 
++    Molecular charges:
      ------------------
 
      Mulliken charges per centre and basis function type
      ---------------------------------------------------
 
                            O1                      FE2   
                     alpha        beta       alpha        beta
      1s           1.0000      1.0000      1.0000      1.0000
      2s           0.9986      0.9988      1.0000      1.0000
      2px          0.0000      0.9976      1.0000      1.0000
      2pz          0.9942      0.9992      1.0000      1.0000
      2py          0.0000      0.9976      1.0000      1.0000
      3s           0.0007      0.0010      1.0000      1.0000
      3px          0.0000      0.0024      0.9993      0.9998
      3pz          0.0032      0.0001      0.9993      0.9998
      3py          0.0000      0.0024      0.9993      0.9998
      4s           0.0000      0.0000      0.8615      0.0003
      3d2+        -0.0000      0.0000      0.9814      0.0000
      3d1+        -0.0000      0.0000      0.9814      0.0000
      3d0          0.0009      0.0005      0.9814      0.0001
      3d1-        -0.0000      0.0000      0.9814      0.0000
      3d2-        -0.0000      0.0000      0.9814      0.0000
      4px          0.0000      0.0000      0.0004      0.0001
      4pz          0.0000      0.0000      0.0026      0.0004
      4py          0.0000      0.0000      0.0004      0.0001
      5s           0.0000      0.0000      0.1383     -0.0002
      4d2+         0.0000      0.0000      0.0186      0.0000
      4d1+         0.0000      0.0000      0.0186     -0.0000
      4d0          0.0000      0.0000      0.0188      0.0001
      4d1-         0.0000      0.0000      0.0186     -0.0000
      4d2-         0.0000      0.0000      0.0186      0.0000
      5px          0.0000      0.0000      0.0003      0.0000
      5pz          0.0000      0.0000      0.0004      0.0000
      5py          0.0000      0.0000      0.0003      0.0000
      4f3+         0.0000      0.0000      0.0000      0.0000
      4f2+         0.0000      0.0000      0.0000      0.0000
      4f1+         0.0000      0.0000      0.0000      0.0000
      4f0          0.0000      0.0000      0.0000      0.0000
      4f1-         0.0000      0.0000      0.0000      0.0000
      4f2-         0.0000      0.0000      0.0000      0.0000
      4f3-         0.0000      0.0000      0.0000      0.0000
      Total        2.9977      4.9996     15.0023      9.0004
      Total              7.9973                 24.0027
 
      Charge            0.0027                  1.9973
 
      Total electronic charge=   32.000000
 
      Total            charge=    2.000000
--
 
 
  Input file to MOLDEN was generated!
 
 
++    Static properties:
      ------------------
 
 
      LoProp Charges per center
 

                   O1       FE2   
      Nuclear      8.0000  26.0000
      Electronic  -7.9988 -24.0012
 
      Total        0.0012   1.9988
--
 
 
++    Natural Bond Order analysis
      ---------------------------
      Based on LoProp computed density
      -------------------------------------------------------------------------------------
      Atom A       Atom B       Bond Order
      -------------------------------------------------------------------------------------
      NBO located     20.000 core electrons.
      NBO located      3.992 lone pair electrons.
      NBO located      1.000 non-bonded electrons on atom O1        
      NBO located      1.000 non-bonded electrons on atom O1        
      NBO located      1.000 non-bonded electrons on atom FE2       
      NBO located      1.000 non-bonded electrons on atom FE2       
      NBO located      1.000 non-bonded electrons on atom FE2       
      NBO located      1.000 non-bonded electrons on atom FE2       
      NBO located      1.000 non-bonded electrons on atom FE2       
      NBO located      1.000 non-bonded electrons on atom FE2       
      The remaining    0.008 electrons are to be considered as diffuse
--
 
 
++    Molecular orbitals:
      -------------------
 
      Title: Natural orbitals

      Molecular orbitals for symmetry species 1: a  
 
          Orbital            1         2         3         4         5         6         7         8         9        10    
          Energy         -264.6117  -33.0533  -27.5487  -27.7103  -27.7095  -20.9704   -5.6172   -4.4715   -4.4608   -4.4606
          Occ. No.          2.0000    2.0000    2.0000    2.0000    2.0000    2.0000    2.0000    1.9999    1.9999    1.9999
 
        1 O1     1s         0.0000    0.0070    0.1464    0.0000   -0.0000    0.9867   -0.0622   -0.0028    0.0000   -0.0000
        2 O1     2s        -0.0000   -0.0002   -0.0047   -0.0000    0.0000   -0.0332    0.0007   -0.0036   -0.0000   -0.0000
        3 O1     3s        -0.0000    0.0000   -0.0001   -0.0000    0.0000   -0.0005   -0.0003    0.0005   -0.0000    0.0000
        4 O1     2px       -0.0000    0.0000    0.0000   -0.0000   -0.0000   -0.0000    0.0000   -0.0000    0.0000    0.0000
        5 O1     3px       -0.0000   -0.0000    0.0000   -0.0000   -0.0000    0.0000    0.0000   -0.0000   -0.0000   -0.0000
        6 O1     2py        0.0000    0.0000   -0.0000    0.0000   -0.0000    0.0000   -0.0000    0.0000   -0.0000    0.0000
        7 O1     3py       -0.0000    0.0000   -0.0000    0.0000   -0.0000   -0.0000   -0.0000    0.0000    0.0000   -0.0000
        8 O1     2pz        0.0000   -0.0000    0.0019   -0.0000   -0.0000   -0.0015    0.0051   -0.0391    0.0000   -0.0000
        9 O1     3pz        0.0000   -0.0000    0.0001    0.0000   -0.0000    0.0002    0.0004   -0.0010    0.0000   -0.0000
       10 O1     3d2-      -0.0000    0.0000   -0.0000   -0.0000    0.0000    0.0000    0.0000   -0.0000   -0.0000    0.0000
       11 O1     3d1-       0.0000   -0.0000    0.0000   -0.0000    0.0000   -0.0000   -0.0000   -0.0000    0.0000   -0.0000
       12 O1     3d0        0.0000    0.0000    0.0000    0.0000   -0.0000    0.0002   -0.0001    0.0003   -0.0000    0.0000
       13 O1     3d1+      -0.0000    0.0000    0.0000    0.0000    0.0000    0.0000   -0.0000    0.0000   -0.0000   -0.0000
       14 O1     3d2+      -0.0000   -0.0000    0.0000   -0.0000   -0.0000    0.0000    0.0000   -0.0000   -0.0000   -0.0000
       15 FE2    1s         1.0000   -0.0000    0.0000   -0.0000    0.0000    0.0000    0.0000   -0.0000    0.0000    0.0000
       16 FE2    2s         0.0000    0.9939    0.0023    0.0000   -0.0000   -0.0004    0.1106    0.0008   -0.0000    0.0000
       17 FE2    3s        -0.0000   -0.1104    0.0102    0.0000   -0.0000    0.0618    0.9919    0.0053    0.0000    0.0000
       18 FE2    4s         0.0000    0.0005   -0.0000   -0.0000    0.0000   -0.0001   -0.0022    0.0002    0.0000    0.0000
       19 FE2    5s        -0.0000   -0.0006    0.0001    0.0000   -0.0000    0.0003    0.0046   -0.0000    0.0000   -0.0000
       20 FE2    2px        0.0000    0.0000   -0.0000    0.8845    0.4324   -0.0000   -0.0000   -0.0000   -0.0477   -0.1685
       21 FE2    3px       -0.0000   -0.0000    0.0000   -0.1573   -0.0769    0.0000    0.0000   -0.0000   -0.2683   -0.9471
       22 FE2    4px        0.0000    0.0000   -0.0000    0.0024    0.0012   -0.0000   -0.0000    0.0000    0.0041    0.0145
       23 FE2    5px       -0.0000   -0.0000    0.0000   -0.0017   -0.0008    0.0000    0.0000   -0.0000   -0.0032   -0.0113
       24 FE2    2py       -0.0000    0.0000    0.0000   -0.4324    0.8845    0.0000    0.0000    0.0000    0.1685   -0.0478
       25 FE2    3py        0.0000   -0.0000   -0.0000    0.0769   -0.1574   -0.0000   -0.0000    0.0000    0.9471   -0.2682
       26 FE2    4py       -0.0000    0.0000    0.0000   -0.0011    0.0024    0.0000    0.0000   -0.0000   -0.0145    0.0041
       27 FE2    5py        0.0000   -0.0000   -0.0000    0.0008   -0.0017   -0.0000   -0.0000    0.0000    0.0113   -0.0032
       28 FE2    2pz       -0.0000   -0.0022    0.9736    0.0000   -0.0000   -0.1441   -0.0023    0.1769   -0.0000    0.0000
       29 FE2    3pz       -0.0000    0.0002   -0.1747   -0.0000    0.0000    0.0282   -0.0050    0.9832   -0.0000    0.0000
       30 FE2    4pz        0.0000   -0.0000    0.0026    0.0000   -0.0000   -0.0004    0.0000   -0.0144    0.0000   -0.0000
       31 FE2    5pz       -0.0000   -0.0000   -0.0019   -0.0000    0.0000    0.0003   -0.0000    0.0117   -0.0000    0.0000
       32 FE2    3d2-      -0.0000    0.0000    0.0000   -0.0000   -0.0000    0.0000   -0.0000    0.0000   -0.0000   -0.0000
       33 FE2    4d2-      -0.0000   -0.0000    0.0000    0.0000    0.0000   -0.0000    0.0000   -0.0000   -0.0000   -0.0000
       34 FE2    3d1-       0.0000   -0.0000   -0.0000    0.0000   -0.0000   -0.0000   -0.0000    0.0000    0.0001   -0.0000
       35 FE2    4d1-       0.0000   -0.0000    0.0000   -0.0000    0.0000    0.0000    0.0000   -0.0000   -0.0000    0.0000
       36 FE2    3d0        0.0000    0.0000   -0.0000   -0.0000    0.0000    0.0000   -0.0000    0.0003   -0.0000   -0.0000
       37 FE2    4d0        0.0000   -0.0000    0.0000    0.0000   -0.0000    0.0000    0.0000    0.0001   -0.0000    0.0000
       38 FE2    3d1+      -0.0000    0.0000    0.0000   -0.0000   -0.0000    0.0000   -0.0000    0.0000   -0.0000   -0.0001
       39 FE2    4d1+       0.0000   -0.0000   -0.0000    0.0000    0.0000   -0.0000   -0.0000   -0.0000    0.0000    0.0000
       40 FE2    3d2+       0.0000    0.0000    0.0000   -0.0000   -0.0000    0.0000    0.0000   -0.0000   -0.0000   -0.0000
       41 FE2    4d2+      -0.0000   -0.0000   -0.0000    0.0000   -0.0000   -0.0000    0.0000    0.0000    0.0000    0.0000
       42 FE2    4f3-      -0.0000   -0.0000   -0.0000   -0.0000    0.0000    0.0000   -0.0000    0.0000   -0.0000    0.0000
       43 FE2    4f2-       0.0000   -0.0000    0.0000    0.0000    0.0000   -0.0000    0.0000   -0.0000    0.0000   -0.0000
       44 FE2    4f1-      -0.0000    0.0000    0.0000   -0.0000    0.0000    0.0000   -0.0000   -0.0000   -0.0000    0.0000
       45 FE2    4f0        0.0000    0.0000    0.0000    0.0000   -0.0000   -0.0000   -0.0000   -0.0000   -0.0000   -0.0000
       46 FE2    4f1+      -0.0000    0.0000   -0.0000    0.0000    0.0000   -0.0000   -0.0000    0.0000    0.0000    0.0000
       47 FE2    4f2+       0.0000   -0.0000   -0.0000    0.0000    0.0000   -0.0000    0.0000    0.0000    0.0000   -0.0000
       48 FE2    4f3+       0.0000   -0.0000   -0.0000   -0.0000    0.0000   -0.0000    0.0000    0.0000   -0.0000    0.0000
 
          Orbital           11        12        13        14        15        16        17        18        19        20    
          Energy           -0.9479   -1.3526   -0.7900   -0.7900   -1.0827   -1.0827   -1.0826   -0.7582   -0.7897   -0.7897
          Occ. No.          1.9978    1.9973    1.0003    1.0003    1.0000    1.0000    1.0000    1.0000    0.9997    0.9997
 
        1 O1     1s         0.0171   -0.0289   -0.0000    0.0000    0.0000   -0.0000   -0.0001   -0.0008   -0.0000   -0.0000
        2 O1     2s         0.4725   -0.8808   -0.0000    0.0000    0.0000   -0.0000   -0.0008   -0.0065   -0.0000   -0.0000
        3 O1     3s        -0.0126   -0.0029   -0.0000    0.0000    0.0000   -0.0000   -0.0008   -0.0067   -0.0000   -0.0000
        4 O1     2px        0.0000    0.0000    0.0002    0.7064   -0.0000   -0.0000   -0.0000    0.0000    0.0032    0.7061
        5 O1     3px        0.0000    0.0000   -0.0000   -0.0340    0.0000    0.0000   -0.0000    0.0000   -0.0002   -0.0349
        6 O1     2py       -0.0000   -0.0000    0.7064   -0.0002   -0.0000   -0.0000   -0.0000    0.0000   -0.7061    0.0032
        7 O1     3py       -0.0000   -0.0000   -0.0340    0.0000    0.0000    0.0000   -0.0000   -0.0000    0.0349   -0.0002
        8 O1     2pz        0.8794    0.4711    0.0000    0.0000   -0.0000   -0.0000   -0.0052   -0.0146   -0.0000   -0.0000
        9 O1     3pz        0.0164    0.0147    0.0000   -0.0000    0.0000    0.0000    0.0005    0.0034    0.0000    0.0000
       10 O1     3d2-       0.0000    0.0000   -0.0000    0.0000    0.0000   -0.0000   -0.0000    0.0000    0.0000    0.0000
       11 O1     3d1-       0.0000    0.0000   -0.0041    0.0000    0.0000    0.0000    0.0000    0.0000    0.0040   -0.0000
       12 O1     3d0       -0.0043   -0.0073   -0.0000    0.0000   -0.0000    0.0000   -0.0001    0.0000    0.0000    0.0000
       13 O1     3d1+      -0.0000   -0.0000   -0.0000   -0.0041    0.0000    0.0000    0.0000   -0.0000   -0.0000   -0.0040
       14 O1     3d2+      -0.0000   -0.0000   -0.0000   -0.0000    0.0000    0.0000   -0.0000    0.0000    0.0000   -0.0000
       15 FE2    1s         0.0000    0.0000    0.0000   -0.0000   -0.0000    0.0000    0.0000    0.0000    0.0000    0.0000
       16 FE2    2s        -0.0002   -0.0002    0.0000   -0.0000   -0.0000    0.0000    0.0000    0.0003    0.0000    0.0000
       17 FE2    3s        -0.0027   -0.0027   -0.0000    0.0000    0.0000   -0.0000   -0.0000   -0.0038   -0.0000   -0.0000
       18 FE2    4s        -0.0065   -0.0025   -0.0000    0.0000    0.0000   -0.0000    0.0003   -0.9278   -0.0000   -0.0000
       19 FE2    5s        -0.0003    0.0008    0.0000   -0.0000   -0.0000    0.0000    0.0003    0.3723    0.0000    0.0000
       20 FE2    2px        0.0000   -0.0000   -0.0000   -0.0000    0.0000   -0.0000   -0.0000   -0.0000   -0.0000   -0.0000
       21 FE2    3px       -0.0000    0.0000   -0.0000   -0.0001   -0.0000    0.0000    0.0000   -0.0000    0.0000    0.0000
       22 FE2    4px       -0.0000   -0.0000   -0.0000   -0.0004   -0.0000    0.0000    0.0000   -0.0000   -0.0000   -0.0001
       23 FE2    5px        0.0000    0.0000   -0.0000   -0.0001   -0.0000   -0.0000    0.0000   -0.0000   -0.0000   -0.0001
       24 FE2    2py        0.0000   -0.0000   -0.0000    0.0000    0.0000    0.0000    0.0000   -0.0000    0.0000   -0.0000
       25 FE2    3py        0.0000    0.0000   -0.0001    0.0000    0.0000    0.0000    0.0000    0.0000   -0.0000    0.0000
       26 FE2    4py       -0.0000   -0.0000   -0.0004    0.0000    0.0000    0.0000    0.0000    0.0000    0.0001   -0.0000
       27 FE2    5py        0.0000    0.0000   -0.0001    0.0000    0.0000    0.0000    0.0000   -0.0000    0.0001   -0.0000
       28 FE2    2pz        0.0045    0.0019    0.0000    0.0000    0.0000   -0.0000    0.0000   -0.0000   -0.0000    0.0000
       29 FE2    3pz        0.0364    0.0155    0.0000   -0.0000    0.0000    0.0000    0.0001    0.0001    0.0000    0.0000
       30 FE2    4pz       -0.0161   -0.0081    0.0000   -0.0000   -0.0000    0.0000    0.0007    0.0083    0.0000    0.0000
       31 FE2    5pz       -0.0006   -0.0001    0.0000   -0.0000    0.0000    0.0000    0.0001    0.0005    0.0000    0.0000
       32 FE2    3d2-      -0.0000   -0.0000   -0.0000   -0.0000    0.0179   -0.9905   -0.0000    0.0000   -0.0000   -0.0000
       33 FE2    4d2-       0.0000    0.0000    0.0000    0.0000   -0.0025    0.1363    0.0000   -0.0000    0.0000    0.0000
       34 FE2    3d1-      -0.0000   -0.0000    0.7005   -0.0002   -0.0000   -0.0000   -0.0000   -0.0000    0.7005   -0.0032
       35 FE2    4d1-       0.0000   -0.0000   -0.0965    0.0000    0.0000    0.0000    0.0000    0.0000   -0.0964    0.0004
       36 FE2    3d0       -0.0048   -0.0025   -0.0000   -0.0000   -0.0000    0.0000   -0.9906    0.0001   -0.0000    0.0000
       37 FE2    4d0       -0.0024   -0.0013    0.0000    0.0000    0.0000   -0.0000    0.1366    0.0012    0.0000   -0.0000
       38 FE2    3d1+      -0.0000   -0.0000    0.0002    0.7005    0.0000    0.0000   -0.0000    0.0000   -0.0032   -0.7005
       39 FE2    4d1+       0.0000    0.0000   -0.0000   -0.0965   -0.0000   -0.0000    0.0000   -0.0000    0.0004    0.0964
       40 FE2    3d2+       0.0000    0.0000    0.0000   -0.0000    0.9905    0.0179   -0.0000    0.0000    0.0000    0.0000
       41 FE2    4d2+      -0.0000   -0.0000   -0.0000    0.0000   -0.1363   -0.0025    0.0000   -0.0000   -0.0000   -0.0000
       42 FE2    4f3-       0.0000   -0.0000   -0.0000    0.0000    0.0000   -0.0000    0.0000   -0.0000    0.0000    0.0000
       43 FE2    4f2-       0.0000    0.0000   -0.0000    0.0000    0.0000   -0.0000   -0.0000    0.0000   -0.0000   -0.0000
       44 FE2    4f1-       0.0000    0.0000    0.0000   -0.0000    0.0000   -0.0000   -0.0000   -0.0000    0.0000   -0.0000
       45 FE2    4f0       -0.0001   -0.0001    0.0000   -0.0000   -0.0000    0.0000   -0.0000    0.0000   -0.0000    0.0000
       46 FE2    4f1+      -0.0000   -0.0000    0.0000    0.0000    0.0000    0.0000   -0.0000    0.0000   -0.0000   -0.0000
       47 FE2    4f2+       0.0000    0.0000   -0.0000   -0.0000    0.0000    0.0000   -0.0000    0.0000    0.0000    0.0000
       48 FE2    4f3+       0.0000    0.0000   -0.0000    0.0000    0.0000    0.0000   -0.0000   -0.0000    0.0000    0.0000
 
          Orbital           21        22        23        24        25        26        27        28        29        30    
          Energy            0.9780    0.4901    0.9487    0.9487    1.0221   -0.2042    0.8548   -0.0375   -0.0375    0.5527
          Occ. No.          0.0027    0.0022    0.0001    0.0001    0.0001    0.0000    0.0000    0.0000    0.0000    0.0000
 
        1 O1     1s        -0.0003    0.0008    0.0000    0.0000   -0.0021    0.0059   -0.0031    0.0000    0.0000   -0.0024
        2 O1     2s        -0.0093    0.0139    0.0000    0.0000   -0.0248    0.0672   -0.0361    0.0000    0.0000   -0.0304
        3 O1     3s         0.6218    0.3373    0.0000    0.0000   -0.0384    0.1368   -0.6115    0.0000    0.0000    0.3644
        4 O1     2px        0.0000   -0.0000   -0.0005   -0.0047   -0.0000    0.0000   -0.0000   -0.0031   -0.0123    0.0000
        5 O1     3px       -0.0000    0.0000   -0.0018   -0.0156   -0.0000   -0.0000   -0.0000   -0.0166   -0.0662    0.0000
        6 O1     2py       -0.0000    0.0000   -0.0047    0.0005   -0.0000    0.0000    0.0000   -0.0123    0.0031    0.0000
        7 O1     3py        0.0000   -0.0000   -0.0156    0.0018    0.0000    0.0000    0.0000   -0.0662    0.0166   -0.0000
        8 O1     2pz        0.0353   -0.0315   -0.0000   -0.0000    0.0133   -0.0589    0.0406   -0.0000   -0.0000    0.0475
        9 O1     3pz       -0.4173    0.7757   -0.0000   -0.0000   -0.1251   -0.2040    0.3007   -0.0000   -0.0000    0.4026
       10 O1     3d2-       0.0000   -0.0000    0.0000   -0.0000   -0.0000   -0.0000    0.0000   -0.0000    0.0000    0.0000
       11 O1     3d1-      -0.0000   -0.0000    0.0014   -0.0002    0.0000    0.0000   -0.0000    0.0098   -0.0025    0.0000
       12 O1     3d0        0.6043    0.3634    0.0000   -0.0000   -0.0155    0.0160    0.5309   -0.0000   -0.0000   -0.4547
       13 O1     3d1+       0.0000    0.0000    0.0002    0.0014   -0.0000    0.0000    0.0000    0.0025    0.0098   -0.0000
       14 O1     3d2+      -0.0000   -0.0000    0.0000   -0.0000    0.0000   -0.0000    0.0000   -0.0000    0.0000    0.0000
       15 FE2    1s        -0.0001    0.0002   -0.0000    0.0000   -0.0000   -0.0001    0.0001   -0.0000   -0.0000    0.0001
       16 FE2    2s        -0.0008    0.0014   -0.0000   -0.0000   -0.0002   -0.0004    0.0006   -0.0000   -0.0000    0.0007
       17 FE2    3s        -0.0046    0.0075   -0.0000    0.0000   -0.0013    0.0013    0.0033   -0.0000   -0.0000    0.0037
       18 FE2    4s        -0.0216    0.0349   -0.0000   -0.0000   -0.0041   -0.3953    0.0384   -0.0000   -0.0000    0.0496
       19 FE2    5s         0.0353   -0.0389   -0.0000   -0.0000    0.0218   -0.9505    0.0277   -0.0000   -0.0000    0.0391
       20 FE2    2px       -0.0000   -0.0000   -0.0000   -0.0002    0.0000    0.0000   -0.0000   -0.0000   -0.0000   -0.0000
       21 FE2    3px        0.0000   -0.0000   -0.0020   -0.0179   -0.0000    0.0000    0.0000    0.0017    0.0069    0.0000
       22 FE2    4px        0.0000   -0.0000   -0.0576   -0.5123   -0.0000    0.0000    0.0000    0.2081    0.8321    0.0000
       23 FE2    5px       -0.0000    0.0000    0.0957    0.8515    0.0000    0.0000    0.0000    0.1256    0.5020    0.0000
       24 FE2    2py       -0.0000    0.0000   -0.0002    0.0000    0.0000   -0.0000    0.0000   -0.0000    0.0000    0.0000
       25 FE2    3py        0.0000   -0.0000   -0.0179    0.0020   -0.0000    0.0000   -0.0000    0.0069   -0.0017   -0.0000
       26 FE2    4py        0.0000   -0.0000   -0.5123    0.0576   -0.0000    0.0000   -0.0000    0.8321   -0.2081   -0.0000
       27 FE2    5py       -0.0000    0.0000    0.8515   -0.0957    0.0000    0.0000   -0.0000    0.5020   -0.1256   -0.0000
       28 FE2    2pz       -0.0001    0.0002    0.0000   -0.0000   -0.0002   -0.0001    0.0001   -0.0000   -0.0000    0.0001
       29 FE2    3pz       -0.0004   -0.0003    0.0000    0.0000   -0.0181   -0.0012    0.0064   -0.0000   -0.0000    0.0076
       30 FE2    4pz        0.1603   -0.3021    0.0000    0.0000   -0.4551    0.0127    0.5349   -0.0000   -0.0000    0.6504
       31 FE2    5pz        0.0068   -0.0017   -0.0000   -0.0000    0.8770    0.0088    0.3252   -0.0000   -0.0000    0.3891
       32 FE2    3d2-      -0.0000    0.0000    0.0000    0.0000   -0.0000    0.0000    0.0000   -0.0000    0.0000    0.0000
       33 FE2    4d2-      -0.0000    0.0000    0.0000    0.0000   -0.0000    0.0000    0.0000   -0.0000    0.0000    0.0000
       34 FE2    3d1-       0.0000    0.0000   -0.0001    0.0000   -0.0000   -0.0000   -0.0000    0.0017   -0.0004   -0.0000
       35 FE2    4d1-       0.0000   -0.0000   -0.0005    0.0001   -0.0000    0.0000   -0.0000    0.0106   -0.0027   -0.0000
       36 FE2    3d0       -0.0005    0.0015   -0.0000   -0.0000    0.0001   -0.0035    0.0205   -0.0000   -0.0000   -0.0065
       37 FE2    4d0        0.0167   -0.0165    0.0000   -0.0000    0.0071   -0.0161    0.1333   -0.0000   -0.0000   -0.0645
       38 FE2    3d1+      -0.0000    0.0000   -0.0000   -0.0001    0.0000    0.0000    0.0000    0.0004    0.0017   -0.0000
       39 FE2    4d1+      -0.0000    0.0000   -0.0001   -0.0005   -0.0000    0.0000    0.0000    0.0027    0.0106   -0.0000
       40 FE2    3d2+       0.0000   -0.0000   -0.0000    0.0000   -0.0000    0.0000   -0.0000    0.0000    0.0000   -0.0000
       41 FE2    4d2+       0.0000   -0.0000   -0.0000    0.0000   -0.0000    0.0000   -0.0000    0.0000    0.0000   -0.0000
       42 FE2    4f3-       0.0000   -0.0000    0.0000   -0.0000   -0.0000   -0.0000    0.0000    0.0000   -0.0000    0.0000
       43 FE2    4f2-       0.0000    0.0000    0.0000   -0.0000   -0.0000    0.0000   -0.0000    0.0000    0.0000   -0.0000
       44 FE2    4f1-       0.0000   -0.0000   -0.0001    0.0000    0.0000   -0.0000    0.0000    0.0007   -0.0002    0.0000
       45 FE2    4f0        0.0006   -0.0007   -0.0000   -0.0000    0.0003   -0.0010    0.0071   -0.0000   -0.0000   -0.0023
       46 FE2    4f1+       0.0000    0.0000   -0.0000   -0.0001   -0.0000    0.0000   -0.0000    0.0002    0.0007   -0.0000
       47 FE2    4f2+      -0.0000   -0.0000    0.0000    0.0000    0.0000    0.0000   -0.0000   -0.0000   -0.0000   -0.0000
       48 FE2    4f3+       0.0000   -0.0000   -0.0000    0.0000   -0.0000   -0.0000   -0.0000    0.0000   -0.0000   -0.0000
 
          Orbital           31        32        33        34        35        36        37        38        39        40    
          Energy            0.3110    0.3432    0.2862    0.3446    0.2856    0.2700    0.2722    1.9316    1.9681    3.1046
          Occ. No.          0.0000    0.0000    0.0000    0.0000    0.0000    0.0000    0.0000    0.0000    0.0000    0.0000
 
        1 O1     1s         0.0014    0.0000    0.0000   -0.0000    0.0000    0.0000    0.0000    0.0000   -0.0000   -0.0000
        2 O1     2s         0.0192    0.0000    0.0000   -0.0000    0.0000    0.0000    0.0000    0.0000   -0.0000   -0.0000
        3 O1     3s        -0.0526   -0.0000   -0.0000    0.0000   -0.0000   -0.0000   -0.0000   -0.0000    0.0000   -0.0010
        4 O1     2px       -0.0000    0.0024    0.0028   -0.0459   -0.0176    0.0006   -0.0002   -0.0028   -0.0046   -0.0000
        5 O1     3px       -0.0000    0.0472    0.0734   -0.9720   -0.2109    0.0098   -0.0027   -0.0183   -0.0202   -0.0000
        6 O1     2py        0.0000    0.0458    0.0180    0.0037   -0.0002   -0.0000   -0.0000   -0.0064    0.0038   -0.0000
        7 O1     3py        0.0000    0.9720    0.2199    0.0624    0.0084   -0.0005   -0.0003   -0.0306    0.0164   -0.0000
        8 O1     2pz       -0.0326   -0.0000   -0.0000    0.0000   -0.0000   -0.0000   -0.0000   -0.0000    0.0000   -0.0007
        9 O1     3pz       -0.1116   -0.0000   -0.0000    0.0000   -0.0000   -0.0000   -0.0000   -0.0000    0.0000   -0.0029
       10 O1     3d2-      -0.0000    0.0003   -0.0006   -0.0004    0.0036    0.0014    0.0029    0.3496    0.5198    0.0000
       11 O1     3d1-       0.0000   -0.0329   -0.0183    0.0027    0.0056    0.0022   -0.0044   -0.8293    0.5178   -0.0000
       12 O1     3d0        0.1201    0.0000    0.0000   -0.0000    0.0000    0.0000    0.0000    0.0000   -0.0000    0.0023
       13 O1     3d1+       0.0000   -0.0046   -0.0038    0.0340    0.0211   -0.0048   -0.0093   -0.3296   -0.6258   -0.0000
       14 O1     3d2+      -0.0000   -0.0002   -0.0007    0.0018   -0.0010    0.0058    0.0138   -0.2023    0.0242    0.0000
       15 FE2    1s        -0.0000   -0.0000   -0.0000    0.0000   -0.0000   -0.0000   -0.0000   -0.0000    0.0000   -0.0000
       16 FE2    2s        -0.0002   -0.0000   -0.0000    0.0000   -0.0000   -0.0000   -0.0000   -0.0000    0.0000   -0.0000
       17 FE2    3s        -0.0011   -0.0000   -0.0000    0.0000   -0.0000   -0.0000   -0.0000   -0.0000    0.0000   -0.0000
       18 FE2    4s        -0.0116   -0.0000   -0.0000    0.0000   -0.0000   -0.0000   -0.0000   -0.0000    0.0000   -0.0002
       19 FE2    5s        -0.0068   -0.0000   -0.0000    0.0000   -0.0000   -0.0000   -0.0000   -0.0000   -0.0000   -0.0001
       20 FE2    2px        0.0000   -0.0000   -0.0000    0.0000    0.0000   -0.0000    0.0000    0.0000    0.0000    0.0000
       21 FE2    3px        0.0000   -0.0000   -0.0001    0.0009    0.0001   -0.0000    0.0000    0.0000    0.0000    0.0000
       22 FE2    4px       -0.0000    0.0005   -0.0001   -0.0065   -0.0090    0.0002   -0.0000    0.0009    0.0019    0.0000
       23 FE2    5px       -0.0000    0.0002   -0.0000   -0.0032   -0.0037    0.0001   -0.0000    0.0003    0.0005    0.0000
       24 FE2    2py       -0.0000   -0.0000   -0.0000   -0.0000   -0.0000    0.0000    0.0000    0.0000   -0.0000    0.0000
       25 FE2    3py       -0.0000   -0.0009   -0.0001   -0.0001   -0.0000    0.0000    0.0000    0.0001   -0.0000    0.0000
       26 FE2    4py        0.0000    0.0064    0.0091    0.0011   -0.0006   -0.0000    0.0000    0.0024   -0.0016   -0.0000
       27 FE2    5py        0.0000    0.0031    0.0038    0.0005   -0.0002   -0.0000    0.0000    0.0007   -0.0004   -0.0000
       28 FE2    2pz       -0.0000   -0.0000   -0.0000    0.0000   -0.0000   -0.0000   -0.0000   -0.0000    0.0000   -0.0000
       29 FE2    3pz       -0.0005   -0.0000   -0.0000    0.0000   -0.0000   -0.0000   -0.0000   -0.0000    0.0000   -0.0000
       30 FE2    4pz        0.0123    0.0000    0.0000   -0.0000    0.0000    0.0000    0.0000    0.0000   -0.0000    0.0008
       31 FE2    5pz        0.0055    0.0000    0.0000   -0.0000    0.0000    0.0000    0.0000    0.0000   -0.0000    0.0003
       32 FE2    3d2-       0.0000   -0.0000   -0.0001    0.0002   -0.0002   -0.0126   -0.1357    0.0008    0.0011   -0.0000
       33 FE2    4d2-       0.0000   -0.0001   -0.0007    0.0017   -0.0014   -0.0914   -0.9860    0.0055    0.0079   -0.0000
       34 FE2    3d1-      -0.0000    0.0231   -0.1336   -0.0116    0.0119   -0.0001    0.0001    0.0007   -0.0003   -0.0000
       35 FE2    4d1-      -0.0000    0.1798   -0.9677   -0.0833    0.0866   -0.0009    0.0005    0.0047   -0.0019   -0.0000
       36 FE2    3d0       -0.1364   -0.0000   -0.0000    0.0000   -0.0000   -0.0000   -0.0000   -0.0000    0.0000    0.0042
       37 FE2    4d0       -0.9856   -0.0000   -0.0000    0.0000   -0.0000   -0.0000   -0.0000   -0.0000    0.0000    0.0305
       38 FE2    3d1+      -0.0000   -0.0028    0.0133   -0.0206    0.1343   -0.0026    0.0000    0.0006    0.0002   -0.0000
       39 FE2    4d1+      -0.0000   -0.0200    0.0973   -0.1613    0.9731   -0.0189    0.0001    0.0042    0.0011   -0.0000
       40 FE2    3d2+       0.0000    0.0000   -0.0000   -0.0008   -0.0028   -0.1357    0.0126   -0.0002    0.0005   -0.0000
       41 FE2    4d2+       0.0000    0.0000   -0.0003   -0.0060   -0.0201   -0.9862    0.0914   -0.0017    0.0038   -0.0000
       42 FE2    4f3-       0.0002    0.0000   -0.0000    0.0000    0.0001    0.0001    0.0005    0.0057    0.0148   -0.0002
       43 FE2    4f2-       0.0000   -0.0000   -0.0001    0.0001    0.0000    0.0005   -0.0002   -0.0116    0.0001   -0.0000
       44 FE2    4f1-      -0.0000   -0.0023   -0.0018    0.0006    0.0009   -0.0035    0.0031    0.0717   -0.0006    0.0000
       45 FE2    4f0       -0.0307   -0.0000   -0.0000    0.0000   -0.0000    0.0000    0.0000    0.0000    0.0000   -0.9995
       46 FE2    4f1+       0.0000   -0.0006   -0.0011    0.0046    0.0010   -0.0018    0.0197   -0.0443    0.0008   -0.0000
       47 FE2    4f2+       0.0000   -0.0000    0.0022   -0.0015   -0.0028   -0.0015    0.0132   -0.0101    0.0000   -0.0000
       48 FE2    4f3+      -0.0000    0.0001    0.0009   -0.0009    0.0002   -0.0001    0.0101    0.1778    0.2614    0.0000
 
          Orbital           41        42        43        44        45        46    
          Energy            2.4952    2.4807    3.0838    2.9333    3.0764    3.0893
          Occ. No.          0.0000    0.0000    0.0000    0.0000    0.0000    0.0000
 
        1 O1     1s        -0.0000   -0.0000    0.0000   -0.0000    0.0000   -0.0000
        2 O1     2s        -0.0000   -0.0000    0.0000   -0.0000    0.0000   -0.0000
        3 O1     3s         0.0000    0.0000   -0.0000    0.0000   -0.0000    0.0000
        4 O1     2px        0.0041   -0.0030   -0.0001   -0.0008   -0.0009   -0.0004
        5 O1     3px        0.0205   -0.0144    0.0027   -0.0030   -0.0045   -0.0002
        6 O1     2py        0.0006   -0.0009   -0.0000   -0.0002   -0.0002   -0.0001
        7 O1     3py        0.0047   -0.0038    0.0005   -0.0008   -0.0011   -0.0002
        8 O1     2pz        0.0000    0.0000   -0.0000    0.0000   -0.0000    0.0000
        9 O1     3pz        0.0000    0.0000   -0.0000    0.0000   -0.0000    0.0000
       10 O1     3d2-       0.4653   -0.3902    0.0297    0.3566   -0.1045   -0.0632
       11 O1     3d1-       0.1032   -0.0687    0.0016   -0.0200   -0.0229   -0.0112
       12 O1     3d0       -0.0000   -0.0000    0.0000   -0.0000    0.0000   -0.0000
       13 O1     3d1+       0.5139   -0.3961    0.0228   -0.1054   -0.1152   -0.0639
       14 O1     3d2+      -0.0888    0.4441   -0.1303    0.0559    0.0205    0.0781
       15 FE2    1s         0.0000    0.0000   -0.0000    0.0000   -0.0000    0.0000
       16 FE2    2s         0.0000    0.0000   -0.0000    0.0000   -0.0000    0.0000
       17 FE2    3s         0.0000    0.0000   -0.0000    0.0000   -0.0000    0.0000
       18 FE2    4s         0.0000    0.0000   -0.0000    0.0000   -0.0000    0.0000
       19 FE2    5s        -0.0000    0.0000    0.0000   -0.0000    0.0000   -0.0000
       20 FE2    2px       -0.0000    0.0000   -0.0000    0.0000    0.0000    0.0000
       21 FE2    3px       -0.0000    0.0000   -0.0000    0.0000    0.0000    0.0000
       22 FE2    4px       -0.0014    0.0012   -0.0006    0.0003    0.0003    0.0002
       23 FE2    5px       -0.0004    0.0003   -0.0002    0.0001    0.0001    0.0001
       24 FE2    2py       -0.0000    0.0000   -0.0000    0.0000    0.0000    0.0000
       25 FE2    3py       -0.0000    0.0000   -0.0000    0.0000    0.0000    0.0000
       26 FE2    4py       -0.0006   -0.0002   -0.0001    0.0001    0.0001    0.0001
       27 FE2    5py       -0.0002   -0.0001   -0.0000    0.0000    0.0000    0.0000
       28 FE2    2pz        0.0000    0.0000   -0.0000    0.0000   -0.0000    0.0000
       29 FE2    3pz        0.0000    0.0000   -0.0000    0.0000   -0.0000    0.0000
       30 FE2    4pz       -0.0000   -0.0000    0.0000   -0.0000    0.0000   -0.0000
       31 FE2    5pz       -0.0000   -0.0000    0.0000   -0.0000    0.0000   -0.0000
       32 FE2    3d2-      -0.0010    0.0015    0.0023   -0.0009    0.0002   -0.0016
       33 FE2    4d2-      -0.0072    0.0107    0.0171   -0.0066    0.0015   -0.0113
       34 FE2    3d1-      -0.0004    0.0001   -0.0001   -0.0001    0.0001   -0.0003
       35 FE2    4d1-      -0.0027    0.0006   -0.0010   -0.0008    0.0005   -0.0021
       36 FE2    3d0        0.0000    0.0000   -0.0000    0.0000   -0.0000    0.0000
       37 FE2    4d0        0.0000    0.0000   -0.0000    0.0000   -0.0000    0.0000
       38 FE2    3d1+      -0.0010    0.0008   -0.0001    0.0000    0.0002   -0.0002
       39 FE2    4d1+      -0.0070    0.0052   -0.0007    0.0002    0.0015   -0.0013
       40 FE2    3d2+      -0.0004   -0.0000   -0.0006    0.0003    0.0001    0.0005
       41 FE2    4d2+      -0.0028   -0.0004   -0.0046    0.0018    0.0007    0.0032
       42 FE2    4f3-       0.0072    0.0149   -0.0004   -0.0178   -0.0020    0.0062
       43 FE2    4f2-       0.1196   -0.1041    0.0090    0.0001    0.9861    0.0270
       44 FE2    4f1-       0.6603    0.6788    0.2042    0.0000    0.0000    0.0000
       45 FE2    4f0       -0.0000    0.0000    0.0000   -0.0000   -0.0000    0.0000
       46 FE2    4f1+      -0.1796   -0.0600    0.9692    0.0001    0.0001    0.0001
       47 FE2    4f2+      -0.0689    0.0841   -0.0135    0.0000    0.0431   -0.9923
       48 FE2    4f3+       0.1129   -0.0772    0.0010   -0.9262   -0.0253   -0.0122
--
 
 
++    Molecular properties:
      ---------------------
 
      Charge (e):
                      =    2.0000
      Dipole Moment (Debye):
      Origin of the operator (Ang)=    0.0000    0.0000    0.0000
                   X= -5.5385E-13               Y=  9.0208E-13               Z= -1.4335E+01           Total=  1.4335E+01
      Center of Charge (Ang)
                     X=   -0.00000000               Y=    0.00000000               Z=   -1.49226899
      Quadrupole Moment (Debye*Ang):
      Origin of the operator (Ang)=    0.0000    0.0000   -0.4883
                  XX= -1.4224E+01              XY=  4.6438E-14              XZ= -1.0624E-11              YY= -1.4224E+01
                  YZ=  1.0915E-11              ZZ= -4.1774E+00
      In traceless form (Debye*Ang)
                  XX= -5.0234E+00              XY=  6.9657E-14              XZ= -1.5936E-11              YY= -5.0234E+00
                  YZ=  1.6373E-11              ZZ=  1.0047E+01
--
 
 
  Input file to MOLDEN was generated!
 
 ###############################################################################
 ###############################################################################
 ###                                                                         ###
 ###                                                                         ###
 ###    RunFile label nBas                                                   ###
 ###    was used       86 times                                              ###
 ###                                                                         ###
 ###                                                                         ###
 ###############################################################################
 ###############################################################################
--- Stop Module: scf at Sun Dec 22 16:40:45 2024 /rc=_RC_ALL_IS_WELL_ ---
*** files: 4.64.LprOrb 4.64.LoProp.molden 4.64.scf.molden 4.64.scf.h5 4.64.UhfOrb 4.64.UnaOrb xmldump
    saved to directory /home/grierjones/DDCASPT2/iron_oxo_DDCASPT2/cluster/4.64

>>> COPY /tmp/4.64/4.64.scf.h5 /home/grierjones/DDCASPT2/iron_oxo_DDCASPT2/cluster/4.64/

*** symbolic link created: INPORB -> 4.64.UnaOrb
--- Start Module: rasscf at Sun Dec 22 16:40:45 2024 ---
 
()()()()()()()()()()()()()()()()()()()()()()()()()()()()()()()()()()()()()()()()()()()()()()()()()()

                                              &RASSCF

                                   only a single process is used
                       available to each process: 2.0 GB of memory, 1 thread?
()()()()()()()()()()()()()()()()()()()()()()()()()()()()()()()()()()()()()()()()()()()()()()()()()()
 
 ###############################################################################
 ###############################################################################
 ###                                                                         ###
 ###                                                                         ###
 ###    LUMORB input error.                                                  ###
 ###                                                                         ###
 ###                                                                         ###
 ###############################################################################
 ###############################################################################
  Keyword LUMORB used with file name StartOrbFile=
 /home/grierjones/DDCASPT2/iron_oxo_DDCASPT2/cluster/4.63/4.63.RasOrb           
                                                  
  but that file cannot be used. Perhaps it does
  not exist?
 
 *************** WARNING ****************
 ###############################################################################
 ###############################################################################
 ###                                                                         ###
 ###                                                                         ###
 ###    Too many macro-iterations.                                           ###
 ###                                                                         ###
 ###                                                                         ###
 ###############################################################################
 ###############################################################################
 Too many macro-iterations requested.
 Reset to maximum, new MAXIT=     200
 ****************************************
 
 *************** WARNING ****************
 ###############################################################################
 ###############################################################################
 ###                                                                         ###
 ###                                                                         ###
 ###    Too many SX-iterations.                                              ###
 ###                                                                         ###
 ###                                                                         ###
 ###############################################################################
 ###############################################################################
 Too many SX-iterations requested.
 Reset to maximum, new ITMAX=     100
 ****************************************
 
      Header of the ONEINT file:
      --------------------------
      
      Integrals generated by seward 4.2.0  , Sun Dec 22 16:40:44 2024
 
 
      OrdInt status: non-squared
 
 
      Cartesian coordinates in Angstrom:
      -----------------------------------------------------
      No.  Label        X            Y            Z        
      -----------------------------------------------------
       1   O1         0.00000000   0.00000000   3.12024000
       2   FE2        0.00000000   0.00000000  -1.52024000
      -----------------------------------------------------
      Nuclear repulsion energy =   23.71928331
 
++    Wave function specifications:
      -----------------------------
 
      Number of closed shell electrons          22
      Number of electrons in active shells      10
      Max number of holes in RAS1 space          0
      Max nr of electrons in RAS3 space          0
      Number of inactive orbitals               11
      Number of active orbitals                 14
      Number of secondary orbitals              23
      Spin quantum number                      2.0
      State symmetry                             1
--
 
++    Orbital specifications:
      -----------------------
 
      Symmetry species                           1
                                                 a
      Frozen orbitals                            0
      Inactive orbitals                         11
      Active orbitals                           14
      RAS1 orbitals                              0
      RAS2 orbitals                             14
      RAS3 orbitals                              0
      Secondary orbitals                        23
      Deleted orbitals                           0
      Number of basis functions                 48
--
 
++    CI expansion specifications:
      ----------------------------
 
      Number of CSFs                        975975
      Number of determinants               1249248
      Number of root(s) required                 1
      Root chosen for geometry opt.              1
      CI root used                               1
         
      highest root included in the CI            1
      max. size of the explicit Hamiltonian    200
--
 
++    Optimization specifications:
      ----------------------------
 
      RASSCF algorithm: Conventional
      Maximum number of macro iterations       200
      Maximum number of SX iterations          100
      Threshold for RASSCF energy            0.100E-07
      Threshold for max MO rotation          0.100E+00
      Threshold for max BLB element          0.100E-03
      Level shift parameter                  0.500E+00
      Make Quasi-Newton update
--
 
 RdVec: File 
 /home/grierjones/DDCASPT2/iron_oxo_DDCASPT2/cluster/4.63/4.63.RasOrb 
  not found!
[ process      0]: xquit (rc =    128): _INTERNAL_ERROR_
abort: 
--- Stop Module: rasscf at Sun Dec 22 16:40:45 2024 /rc=_RC_FLOATING_EXCEPTION_ ---
*** files: xmldump
    saved to directory /home/grierjones/DDCASPT2/iron_oxo_DDCASPT2/cluster/4.64

.########################.
.# Non-zero return code #.
.########################.

    Timing: Wall=1.73 User=1.44 System=0.28
************************************
*** WorkDir at /tmp/4.64 cleaned ***
************************************
