   This run of MOLCAS is using the pymolcas driver

                             OPE
                             OPE          NMOL  CASOP  ENMOLC A   SO
                 OPE        NMOLC        AS  OP EN  MO LC     AS  OP
                OPENM       OL CA        SO  PE NM  OL CA     SOP EN
                OP EN      MO   LC       AS  OP ENMOL  CASO   PENMOL
                OP  EN     MO   LC       AS  OP EN     MO     LC ASO
               OP   E  NMOL  C  AS       OP  EN MO     LC     AS  OP
               OP  E   NMO   LC AS        OPEN  MO     LCASOP EN   M
               O  PEN   MO  LCA  SO
            OPE   NMO   L   CAS    OP
        OPENMOL  CASOP     ENMOL   CASOPE
     OPENMOLCA   SOPENMOLCASOPEN   MOLCASOPE
    OPENMOLCAS   OP           EN   MOL    CAS
    OPENMOLCAS       OP  ENM        O     LCA
    OPENMOLCAS    OPEN  MOLCASO     P  E  NMO
    OPENMOLCAS     OP               E  N  MOL
    OPENMOLCA   SO           PENM   O  L  CAS    OPEN    MO    LCAS
    OPENMOLCA   SOP           ENM   O  L  CAS   OP  EN  MOLC  AS   O
    OPENMOLCA   SOPE           NM      O  LCA   S      OP  EN MO
    OPENMOLC                AS         O  PEN   M      OL  CA  SOPE
    OPENMO        LCASOPE  NMOL        C  ASO   P      ENMOLC     AS
    OPE     NMO      LCA  SO     P     E   NM   OL  CA SO  PE N   MO
          OPENMOLCA            SOPE   NMO        LCAS  O    P  ENMO
     OPENMOLCASOPENMOLCASOPENMOLCASOPENMOLCA
        OPENMOLCASOPENMOLCASOPENMOLCASOPE
            OPENMOLCASOPENMOLCASOPENM
               OPENMOLCASOPENMOLCA        version: ea724fe96-dirty
                   OPENMOLCASO
                       OPE                tag:

 OpenMolcas is free software; you can redistribute it and/or modify it
 under the terms of the GNU Lesser General Public License version 2.1.
 OpenMolcas is distributed in the hope that it will be useful, but it
 is provided "as is" and without any express or implied warranties.
 For more details see the full text of the license in the file
 LICENSE or in <http://www.gnu.org/licenses/>.

                 Copyright (C) The OpenMolcas Authors
           For the author list and the recommended citation,
                   consult the file CONTRIBUTORS.md

           *************************************************
           * pymolcas version py2.28                       *
           *   build c4a6d18ded8cb6cad61d2372a9abd97c      *
           *   (after the EMIL interpreter by V. Veryazov) *
           *************************************************

configuration info
------------------
C Compiler ID: Intel
C flags: -std=gnu99
Fortran Compiler ID: Intel
Fortran flags: -fpp -i8 -r8 -heap-arrays
Definitions: _MOLCAS_;_I8_;_LINUX_
Parallel: OFF (GA=OFF)


   -------------------------------------------------------------------------------
  |
  |              Project: 4.64
  |       Submitted from: /home/grierjones/DDCASPT2/iron_oxo_DDCASPT2/cluster/4.64
  |         Scratch area: /tmp/4.64
  |      Save outputs to: /home/grierjones/DDCASPT2/iron_oxo_DDCASPT2/cluster/4.64
  |               Molcas: /home/grierjones/Test/build
  |
  | Scratch area is empty
  |
  |       MOLCAS_DRIVER = /usr/local/pymolcas
  | MOLCAS_KEEP_WORKDIR = NO
  |  MOLCAS_NEW_WORKDIR = YES
  |       MOLCAS_NPROCS = 1
  |        MOLCAS_PRINT = NORMAL
  |       MOLCAS_SOURCE = /home/grierjones/Test/build
  |    MOLCAS_STRUCTURE = 0
  |
   -------------------------------------------------------------------------------

++ ---------   Input file   ---------

&GATEWAY
coord=4.64.xyz
Basis = ANO-RCC-VDZP
Group = nosymm
Expert
End of Input

&SEWARD
End of Input

&SCF
UHF
charge
2
spin
5

>>> COPY $WorkDir/4.64.scf.h5 $CurrDir/

&RASSCF
Title= RASSCF
FileOrb
/home/grierjones/DDCASPT2/iron_oxo_DDCASPT2/cluster/4.62/4.62.RasOrb
NACTEL
10 0 0
RAS2
14
Symmetry
1
Spin
5
charge
2
orblisting
all
ITERation
300 200

>>> COPY $WorkDir/4.64.rasscf.h5 $CurrDir/

>>> COPY $WorkDir/GMJ_Fock_MO.csv $CurrDir/4.64.GMJ_Fock_MO.csv

>>> COPY $WorkDir/GMJ_PT2_Fock_MO.csv $CurrDir/4.64.GMJ_PT2_Fock_MO.csv

&MOTRA
Frozen=0
LUMORB

>>> COPY $WorkDir/GMJ_one_int_indx.csv $CurrDir/4.64.GMJ_one_int_indx.csv

>>> COPY $WorkDir/GMJ_one_int.csv $CurrDir/4.64.GMJ_one_int.csv

>>> COPY $WorkDir/GMJ_two_int_indx.csv $CurrDir/4.64.GMJ_two_int_indx.csv

>>> COPY $WorkDir/GMJ_two_int.csv $CurrDir/4.64.GMJ_two_int.csv

&CASPT2
Frozen
0
MAXITER
50

>>> FOREACH i IN (B,E,F,G,H)

  >>> FOREACH j IN (P,M)

    >>> IF (-FILE GMJ_e2_${i}_${j}.csv)

      >>> COPY $WorkDir/GMJ_RHS_${i}_${j}.csv $CurrDir/GMJ_RHS_${i}_${j}.csv

      >>> COPY $WorkDir/GMJ_IVECW_${i}_${j}.csv $CurrDir/GMJ_IVECW_${i}_${j}.csv

      >>> COPY $WorkDir/GMJ_IVECX_${i}_${j}.csv $CurrDir/GMJ_IVECX_${i}_${j}.csv

      >>> COPY $WorkDir/GMJ_IVECC2_${i}_${j}.csv $CurrDir/GMJ_IVECC2_${i}_${j}.csv

      >>> COPY $WorkDir/GMJ_e2_${i}_${j}.csv $CurrDir/GMJ_e2_${i}_${j}.csv

    >>> END IF

  >>> END FOREACH

>>> END FOREACH

>>> FOREACH i IN (A,C,D)

  >>> IF (-FILE GMJ_e2_$i.csv)

    >>> COPY $WorkDir/GMJ_RHS_$i.csv $CurrDir/GMJ_RHS_$i.csv

    >>> COPY $WorkDir/GMJ_IVECW_$i.csv $CurrDir/GMJ_IVECW_$i.csv

    >>> COPY $WorkDir/GMJ_IVECX_$i.csv $CurrDir/GMJ_IVECX_$i.csv

    >>> COPY $WorkDir/GMJ_IVECC2_$i.csv $CurrDir/GMJ_IVECC2_$i.csv

    >>> COPY $WorkDir/GMJ_e2_$i.csv $CurrDir/GMJ_e2_$i.csv

  >>> END IF

>>> END FOREACH

-- ----------------------------------

--- Start Module: gateway at Wed Dec 18 03:19:13 2024 ---
 
()()()()()()()()()()()()()()()()()()()()()()()()()()()()()()()()()()()()()()()()()()()()()()()()()()

                                              &GATEWAY

                                   only a single process is used
                       available to each process: 2.0 GB of memory, 1 thread?
()()()()()()()()()()()()()()()()()()()()()()()()()()()()()()()()()()()()()()()()()()()()()()()()()()
 
 ###############################################################################
 ###############################################################################
 ###                                                                         ###
 ###                                                                         ###
 ###                                                                         ###
 ###    WARNING: EXPERT option is ON!                                        ###
 ###                                                                         ###
 ###                                                                         ###
 ###############################################################################
 ###############################################################################
 
++    Symmetry information:
      ---------------------
 
                    Character Table for C1 
 
                             E  
                    a        1  x, y, xy, Rz, z, xz, Ry, yz, Rx, I
--
 
 
++    Basis set information:
      ----------------------
 
 
      Basis set label: O.ANO-RCC...3S2P1D.
 
      Electronic valence basis set:
      ------------------
      Associated Effective Charge   8.000000 au
      Associated Actual Charge      8.000000 au
      Nuclear Model: Point charge
 
      Shell  nPrim  nBasis  Cartesian Spherical Contaminant
         s      14       3        X                  
         p       9       2        X                  
         d       4       1                 X         
 
 
      Basis set label: FE.ANO-RCC...5S4P2D1F.
 
      Electronic valence basis set:
      ------------------
      Associated Effective Charge  26.000000 au
      Associated Actual Charge     26.000000 au
      Nuclear Model: Point charge
 
      Shell  nPrim  nBasis  Cartesian Spherical Contaminant
         s      21       5        X                  
         p      15       4        X                  
         d      10       2                 X         
         f       6       1                 X         
--
 
 
++    Molecular structure info:
      -------------------------
 
                    ************************************************ 
                    **** Cartesian Coordinates / Bohr, Angstrom **** 
                    ************************************************ 
 
     Center  Label                x              y              z                     x              y              z
        1      O1               0.000000       0.000000       5.892506              0.000000       0.000000       3.118180
        2      FE2              0.000000       0.000000      -2.868944              0.000000       0.000000      -1.518180
--
 
 
            Nuclear Potential Energy             23.74036093 au
 
 ###############################################################################
 ###############################################################################
 ###                                                                         ###
 ###                                                                         ###
 ###    There were warnings during the execution                             ###
 ###    Please, check the output with care!                                  ###
 ###                                                                         ###
 ###                                                                         ###
 ###############################################################################
 ###############################################################################
--- Stop Module: gateway at Wed Dec 18 03:19:14 2024 /rc=_RC_ALL_IS_WELL_ ---
*** files: xmldump
    saved to directory /home/grierjones/DDCASPT2/iron_oxo_DDCASPT2/cluster/4.64

--- Start Module: seward at Wed Dec 18 03:19:14 2024 ---
 
()()()()()()()()()()()()()()()()()()()()()()()()()()()()()()()()()()()()()()()()()()()()()()()()()()

                                              &SEWARD

                                   only a single process is used
                       available to each process: 2.0 GB of memory, 1 thread?
()()()()()()()()()()()()()()()()()()()()()()()()()()()()()()()()()()()()()()()()()()()()()()()()()()
 
 ###############################################################################
 ###############################################################################
 ###                                                                         ###
 ###                                                                         ###
 ###                                                                         ###
 ###    WARNING: EXPERT option is ON!                                        ###
 ###                                                                         ###
 ###                                                                         ###
 ###############################################################################
 ###############################################################################
               SEWARD will generate:
                  Multipole Moment integrals up to order  2
                  Kinetic Energy integrals
                  Nuclear Attraction integrals (point charge)
                  One-Electron Hamiltonian integrals
                  Velocity integrals
                  Relativistic Douglas-Kroll-Hess integrals:
                    - Parametrization         : EXP
                    - DKH order of Hamiltonian: 2
                    - DKH order of Properties : 0
                         - multipole moment operators
                         - electric potential operators
                         - contact operators
                  Atomic mean-field integrals
                  Two-Electron Repulsion integrals
 
                   Integrals are discarded if absolute value <: 0.10E-13
                   Integral cutoff threshold is set to       <: 0.10E-15
 
            Nuclear Potential Energy             23.74036093 au
 
 
      Basis set specifications :
      Symmetry species         a  
      Basis functions           48
 
 
  Input file to MOLDEN was generated!
 
 ###############################################################################
 ###############################################################################
 ###                                                                         ###
 ###                                                                         ###
 ###    There were warnings during the execution                             ###
 ###    Please, check the output with care!                                  ###
 ###                                                                         ###
 ###                                                                         ###
 ###############################################################################
 ###############################################################################
--- Stop Module: seward at Wed Dec 18 03:19:14 2024 /rc=_RC_ALL_IS_WELL_ ---
*** files: 4.64.GssOrb 4.64.guessorb.h5 4.64.guessorb.molden xmldump
    saved to directory /home/grierjones/DDCASPT2/iron_oxo_DDCASPT2/cluster/4.64

*** symbolic link created: INPORB -> 4.64.GssOrb
--- Start Module: scf at Wed Dec 18 03:19:14 2024 ---
 
()()()()()()()()()()()()()()()()()()()()()()()()()()()()()()()()()()()()()()()()()()()()()()()()()()

                                                &SCF

                                   only a single process is used
                       available to each process: 2.0 GB of memory, 1 thread?
()()()()()()()()()()()()()()()()()()()()()()()()()()()()()()()()()()()()()()()()()()()()()()()()()()
 
 *** Possible bug in opening file
 *** isFreeUnit resets the unit number
++    Input section:
      --------------
 
      Header of the integral files:
      
       Integrals generated by seward 4.2.0  , Wed Dec 18 03:19:14 2024
 
 
      Cartesian coordinates in Angstrom:
      -----------------------------------------------------
      No.  Label        X            Y            Z        
      -----------------------------------------------------
       1   O1         0.00000000   0.00000000   3.11818000
       2   FE2        0.00000000   0.00000000  -1.51818000
      -----------------------------------------------------
      Nuclear repulsion energy =   23.74036093
--
 
++    Orbital specifications:
      -----------------------
 
      Symmetry species               1
                                     a
      Frozen orbitals                0
      Start temperature = 0.500
      End temperature   = 0.010
      Temperature Factor= 0.460
      Deleted orbitals               0
      Total number of orbitals      48
      Number of basis functions     48
--
 
      Molecular charge                           2.000
 
++    Optimization specifications:
      ----------------------------
 
      SCF Algorithm: Conventional USCF
      D(i)-D(i-1) density differences are used
      Number of density matrices in core                5
      Maximum number of NDDO SCF iterations           400
      Maximum number of HF SCF iterations             400
      Threshold for SCF energy change            0.10E-08
      Threshold for density matrix               0.10E-03
      Threshold for Fock matrix                  0.15E-03
      Threshold for linear dependence            0.10E-08
      Threshold at which DIIS is turned on       0.15E+00
      Threshold at which QNR/C2DIIS is turned on 0.75E-01
      Threshold for Norm(delta) (QNR/C2DIIS)     0.20E-04
      DIIS extrapolation of the SCF procedure
      All orbitals punched on: UHFORB
--
 
      Input vectors read from INPORB
      Orbital file label: *Guess orbitals
 
 
++ Convergence information
                               UHF SCF        iterations: Energy and convergence statistics
 
Iter     Tot. SCF        One-elec.       Two-elec.     Energy      Max Dij or  Max Fij      DNorm      TNorm      AccCon     Time
         Energy          Energy          Energy        Change      Delta Norm                                                in Sec.
 
 The total and one-electron energies are shifted by a value of      1000. a.u.
 
   1  -343.288697378  -880.796313447   513.767255135   0.00E+00    0.16E+00*   0.36E+00*    0.75E+01   0.18E+03   None         0.
   2  -343.469624569  -876.620328055   509.410342553  -0.18E+00*   0.12E+00*   0.16E+00*    0.10E+01   0.18E+03   EDIIS        0.
   3  -341.611076721  -924.707241192   559.355803536   0.19E+01*   0.62E-01*   0.19E+00*    0.18E+01   0.19E+03   EDIIS        0.
   4  -342.957406070  -865.295111976   498.597344972  -0.13E+01*   0.73E-01*   0.86E-01*    0.15E+01   0.17E+03   EDIIS        0.
   5  -344.067099926  -898.468043910   530.660583050  -0.11E+01*   0.37E-01*   0.44E-01*    0.85E+00   0.18E+03   EDIIS        0.
   6  -344.218888836  -871.016773619   503.057523849  -0.15E+00*   0.35E+00*   0.21E+00*    0.18E+01   0.18E+03   EDIIS        0.
   7  -342.806258311  -913.590453773   547.043834528   0.14E+01*   0.45E+00*   0.31E-01*    0.22E+01   0.18E+03   EDIIS        0.
   8  -345.085714402  -883.903847170   515.077771834  -0.23E+01*   0.68E+00*   0.18E+00*    0.20E+01   0.18E+03   EDIIS        0.
   9  -345.238207683  -879.233121470   510.254552853  -0.15E+00*   0.22E+00*   0.35E+00*    0.13E+01   0.18E+03   EDIIS        0.
  10  -345.283343802  -882.800944155   513.777239420  -0.45E-01*   0.31E+00*   0.80E-01*    0.66E+00   0.18E+03   EDIIS        0.
  11  -345.296377033  -880.442899677   511.406161710  -0.13E-01*   0.96E-01*   0.41E-01*    0.48E+00   0.18E+03   EDIIS        0.
  12  -345.300443509  -881.400758857   512.359954415  -0.41E-02*   0.66E-01*   0.17E-01*    0.19E+00   0.18E+03   EDIIS        0.
 
       Fermi aufbau procedure completed!
      nOcc(alpha)=   18
      nOcc(beta) =   14
 
  13  -345.301318492  -880.981105411   511.939425985  -0.87E-03*   0.28E-01*   0.68E-02*    0.11E+00   0.18E+03   EDIIS        0.
  14  -345.301552771  -881.145854032   512.103940327  -0.23E-03*   0.14E-01*   0.32E-02*    0.49E-01   0.18E+03   EDIIS        0.
  15  -345.301619690  -881.079109906   512.037129282  -0.67E-04*   0.63E-02*   0.22E-02*    0.25E-01   0.18E+03   EDIIS        0.
  16  -345.301640956  -881.104758300   512.062756410  -0.21E-04*   0.30E-02*   0.13E-02*    0.13E-01   0.18E+03   EDIIS        0.
  17  -345.301648147  -881.094415672   512.052406591  -0.72E-05*   0.59E-03*   0.17E-02*    0.70E-02   0.18E+03   c2DIIS       0.
  18  -345.301651958  -881.102589850   512.060576959  -0.38E-05*   0.62E-03*   0.17E-03*    0.18E-02   0.18E+03   QNRc2DIIS    0.
  19  -345.301652081  -881.094891713   512.052878699  -0.12E-06*   0.41E-03*   0.87E-04     0.84E-03   0.18E+03   QNRc2DIIS    0.
  20  -345.301652120  -881.096150167   512.054137113  -0.40E-07*   0.36E-03*   0.43E-04     0.54E-03   0.18E+03   QNRc2DIIS    0.
  21  -345.301652131  -881.097037701   512.055024636  -0.11E-07*   0.41E-04*   0.31E-05     0.47E-03   0.18E+03   QNRc2DIIS    0.
  22  -345.301652131  -881.097048546   512.055035481  -0.67E-10    0.19E-05    0.76E-06     0.57E-04   0.18E+03   QNRc2DIIS    0.
 
       Convergence after 22 Macro Iterations
--
 
 *****************************************************************************************************************************
 *                                                                                                                           *
 *                                             SCF/KS-DFT Program, Final results                                             *
 *                                                                                                                           *
 *                                                                                                                           *
 *                                                                                                                           *
 *                                                       Final Results                                                       *
 *                                                                                                                           *
 *****************************************************************************************************************************
 
::    Total SCF energy                              -1345.3016521314
      One-electron energy                           -1881.0970485462
      Two-electron energy                             512.0550354809
      Nuclear repulsion energy                         23.7403609339
      Kinetic energy (interpolated)                  1399.7936220344
      Virial theorem                                    0.9610714258
      Total spin, S(S+1)                                8.0105195577
      Total spin, S                                     2.3741119598
      Max non-diagonal density matrix element           0.0000008537
      Max non-diagonal Fock matrix element              0.0000001619
 
 
      All orbitals with orbital energies smaller than  E(LUMO)+0.5 are printed
 
++    Molecular orbitals:
      -------------------
 
      Title: UHF orbitals (alpha)

      Molecular orbitals for symmetry species 1: a  
 
          Orbital            1         2         3         4         5         6         7         8         9        10    
          Energy         -264.6156  -33.4932  -28.5570  -28.5570  -28.5570  -20.8660   -5.4414   -3.9813   -3.9813   -3.9813
          Occ. No.          1.0000    1.0000    1.0000    1.0000    1.0000    1.0000    1.0000    1.0000    1.0000    1.0000
 
        1 O1     1s        -0.0000   -0.0000   -0.0000    0.0000    0.0000    1.0000   -0.0000   -0.0000    0.0000   -0.0000
        2 O1     2s        -0.0000   -0.0000   -0.0000    0.0000    0.0000   -0.0022   -0.0004   -0.0000    0.0000   -0.0002
        3 O1     3s        -0.0000   -0.0000   -0.0001    0.0000    0.0000    0.0004   -0.0005   -0.0000    0.0000   -0.0002
        4 O1     2px       -0.0000   -0.0000   -0.0000   -0.0000   -0.0000   -0.0000    0.0000   -0.0000    0.0000    0.0000
        5 O1     3px       -0.0000    0.0000   -0.0000   -0.0000   -0.0000    0.0000   -0.0000   -0.0000    0.0001    0.0000
        6 O1     2py       -0.0000    0.0000   -0.0000    0.0000   -0.0000   -0.0000   -0.0000   -0.0000   -0.0000    0.0000
        7 O1     3py       -0.0000   -0.0000   -0.0000    0.0000   -0.0000    0.0000   -0.0000   -0.0001   -0.0000    0.0000
        8 O1     2pz        0.0000    0.0000    0.0000   -0.0000   -0.0000   -0.0001    0.0002   -0.0000    0.0000    0.0001
        9 O1     3pz        0.0000    0.0000    0.0001   -0.0000   -0.0000    0.0000    0.0004   -0.0000   -0.0000    0.0000
       10 O1     3d2-       0.0000   -0.0000    0.0000    0.0000   -0.0000   -0.0000   -0.0000    0.0000   -0.0000    0.0000
       11 O1     3d1-      -0.0000    0.0000    0.0000   -0.0000    0.0000    0.0000    0.0000    0.0000    0.0000   -0.0000
       12 O1     3d0        0.0000   -0.0000   -0.0000    0.0000    0.0000    0.0009   -0.0000   -0.0000   -0.0000   -0.0000
       13 O1     3d1+      -0.0000   -0.0000    0.0000    0.0000    0.0000    0.0000    0.0000    0.0000   -0.0000   -0.0000
       14 O1     3d2+       0.0000   -0.0000   -0.0000   -0.0000    0.0000    0.0000   -0.0000   -0.0000    0.0000    0.0000
       15 FE2    1s         1.0000   -0.0000   -0.0000   -0.0000   -0.0000   -0.0000    0.0000   -0.0000    0.0000    0.0000
       16 FE2    2s         0.0000    1.0000   -0.0000    0.0000    0.0000   -0.0000   -0.0035   -0.0000   -0.0000   -0.0000
       17 FE2    3s        -0.0000    0.0035    0.0000   -0.0000   -0.0000   -0.0000    0.9999    0.0000    0.0000   -0.0000
       18 FE2    4s         0.0000   -0.0003    0.0000   -0.0000   -0.0000   -0.0000   -0.0076   -0.0000    0.0000    0.0000
       19 FE2    5s        -0.0000    0.0004    0.0000   -0.0000   -0.0000   -0.0001    0.0083    0.0000   -0.0000    0.0000
       20 FE2    2px        0.0000   -0.0000    0.0000    0.9989    0.0474   -0.0000   -0.0000   -0.0011    0.0033    0.0000
       21 FE2    3px        0.0000   -0.0000    0.0000    0.0035    0.0002   -0.0000   -0.0000    0.3085   -0.9509   -0.0000
       22 FE2    4px       -0.0000    0.0000   -0.0000   -0.0006   -0.0000   -0.0000    0.0000   -0.0059    0.0182    0.0000
       23 FE2    5px        0.0000   -0.0000    0.0000    0.0015    0.0001   -0.0000    0.0000    0.0056   -0.0173   -0.0000
       24 FE2    2py        0.0000   -0.0000    0.0000   -0.0474    0.9989    0.0000    0.0000   -0.0033   -0.0011    0.0000
       25 FE2    3py        0.0000    0.0000    0.0000   -0.0002    0.0035   -0.0000   -0.0000    0.9509    0.3085   -0.0000
       26 FE2    4py        0.0000   -0.0000   -0.0000    0.0000   -0.0006    0.0000    0.0000   -0.0182   -0.0059    0.0000
       27 FE2    5py       -0.0000    0.0000    0.0000   -0.0001    0.0015    0.0000   -0.0000    0.0173    0.0056   -0.0000
       28 FE2    2pz        0.0000    0.0000    1.0000   -0.0000   -0.0000    0.0000   -0.0000   -0.0000    0.0000   -0.0035
       29 FE2    3pz       -0.0000    0.0000    0.0035   -0.0000   -0.0000   -0.0000    0.0001    0.0000   -0.0000    0.9996
       30 FE2    4pz        0.0000    0.0000   -0.0006    0.0000    0.0000   -0.0000    0.0001   -0.0000    0.0000   -0.0192
       31 FE2    5pz       -0.0000    0.0000    0.0015   -0.0000   -0.0000   -0.0000    0.0001    0.0000   -0.0000    0.0182
       32 FE2    3d2-       0.0000    0.0000    0.0000    0.0000    0.0000   -0.0000    0.0000    0.0000    0.0000    0.0000
       33 FE2    4d2-      -0.0000   -0.0000    0.0000   -0.0000    0.0000    0.0000   -0.0000    0.0000   -0.0000   -0.0000
       34 FE2    3d1-       0.0000   -0.0000    0.0000   -0.0000    0.0000   -0.0000    0.0000    0.0000    0.0000   -0.0000
       35 FE2    4d1-       0.0000   -0.0000    0.0000   -0.0000    0.0000    0.0000    0.0000   -0.0000   -0.0000    0.0000
       36 FE2    3d0        0.0000    0.0000    0.0000   -0.0000   -0.0000   -0.0000   -0.0000    0.0000    0.0000    0.0001
       37 FE2    4d0        0.0000    0.0000    0.0000   -0.0000   -0.0000   -0.0000    0.0001   -0.0000   -0.0000   -0.0000
       38 FE2    3d1+      -0.0000    0.0000    0.0000    0.0000    0.0000   -0.0000   -0.0000    0.0000   -0.0000   -0.0000
       39 FE2    4d1+      -0.0000   -0.0000    0.0000    0.0000    0.0000   -0.0000    0.0000   -0.0000    0.0000    0.0000
       40 FE2    3d2+       0.0000   -0.0000   -0.0000   -0.0000   -0.0000   -0.0000    0.0000   -0.0000    0.0000    0.0000
       41 FE2    4d2+      -0.0000    0.0000    0.0000    0.0000    0.0000    0.0000   -0.0000   -0.0000   -0.0000   -0.0000
       42 FE2    4f3-      -0.0000    0.0000   -0.0000    0.0000   -0.0000   -0.0000   -0.0000    0.0000    0.0000    0.0000
       43 FE2    4f2-       0.0000   -0.0000    0.0000    0.0000   -0.0000    0.0000   -0.0000    0.0000   -0.0000   -0.0000
       44 FE2    4f1-       0.0000   -0.0000    0.0000   -0.0000    0.0000    0.0000    0.0000   -0.0000   -0.0000    0.0000
       45 FE2    4f0       -0.0000    0.0000    0.0000   -0.0000   -0.0000   -0.0000    0.0000   -0.0000   -0.0000   -0.0000
       46 FE2    4f1+       0.0000    0.0000    0.0000    0.0000    0.0000   -0.0000    0.0000   -0.0000    0.0000    0.0000
       47 FE2    4f2+      -0.0000    0.0000   -0.0000   -0.0000   -0.0000   -0.0000    0.0000   -0.0000   -0.0000   -0.0000
       48 FE2    4f3+       0.0000   -0.0000    0.0000   -0.0000    0.0000   -0.0000    0.0000    0.0000   -0.0000   -0.0000
 
          Orbital           11        12        13        14        15        16        17        18        19        20    
          Energy           -1.6620   -1.6620   -1.6620   -1.6620   -1.6620   -1.3098   -0.9495   -0.7492   -0.4814   -0.4814
          Occ. No.          1.0000    1.0000    1.0000    1.0000    1.0000    1.0000    1.0000    1.0000    0.0000    0.0000
 
        1 O1     1s        -0.0000    0.0000    0.0001    0.0000   -0.0000    0.0021    0.0008    0.0002   -0.0000   -0.0000
        2 O1     2s        -0.0000    0.0000    0.0011    0.0000   -0.0000    0.9991    0.0040    0.0222   -0.0000   -0.0000
        3 O1     3s        -0.0000    0.0000    0.0009    0.0000   -0.0000    0.0223    0.0071   -0.0126   -0.0000   -0.0000
        4 O1     2px        0.0000   -0.0000   -0.0000    0.0003    0.0000    0.0000   -0.0000    0.0000    0.0003   -0.0011
        5 O1     3px        0.0000   -0.0000   -0.0000    0.0006    0.0000   -0.0000   -0.0000    0.0000    0.0013   -0.0042
        6 O1     2py       -0.0000    0.0000   -0.0000   -0.0000    0.0003    0.0000   -0.0000    0.0000   -0.0011   -0.0003
        7 O1     3py       -0.0000    0.0000    0.0000   -0.0000    0.0006   -0.0000   -0.0000    0.0000   -0.0042   -0.0013
        8 O1     2pz        0.0000   -0.0000   -0.0009   -0.0000    0.0000   -0.0199   -0.0146    0.9961    0.0000    0.0000
        9 O1     3pz        0.0000   -0.0000   -0.0009   -0.0000    0.0000   -0.0076   -0.0049    0.0512    0.0000    0.0000
       10 O1     3d2-      -0.0000    0.0000   -0.0000    0.0000    0.0000   -0.0000    0.0000   -0.0000    0.0000   -0.0000
       11 O1     3d1-       0.0000   -0.0000    0.0000    0.0000   -0.0001    0.0000   -0.0000   -0.0000   -0.0000   -0.0000
       12 O1     3d0       -0.0000    0.0000    0.0001    0.0000   -0.0000    0.0298    0.0001   -0.0064   -0.0000   -0.0000
       13 O1     3d1+      -0.0000    0.0000    0.0000   -0.0001   -0.0000    0.0000    0.0000   -0.0000    0.0000   -0.0000
       14 O1     3d2+       0.0000    0.0000    0.0000   -0.0000   -0.0000    0.0000    0.0000    0.0000    0.0000    0.0000
       15 FE2    1s         0.0000   -0.0000   -0.0000   -0.0000   -0.0000   -0.0000   -0.0000    0.0000    0.0000    0.0000
       16 FE2    2s         0.0000   -0.0000   -0.0000   -0.0000    0.0000   -0.0000    0.0004    0.0003    0.0000    0.0000
       17 FE2    3s        -0.0000    0.0000    0.0000    0.0000   -0.0000   -0.0001    0.0101    0.0016    0.0000    0.0000
       18 FE2    4s         0.0000   -0.0000   -0.0002   -0.0000   -0.0000    0.0008    0.9276    0.0218    0.0000    0.0000
       19 FE2    5s         0.0000   -0.0000   -0.0003   -0.0000    0.0000   -0.0009   -0.3720   -0.0126    0.0000    0.0000
       20 FE2    2px        0.0000    0.0000   -0.0000   -0.0000   -0.0000   -0.0000   -0.0000   -0.0000   -0.0001    0.0005
       21 FE2    3px       -0.0000    0.0000    0.0000   -0.0001   -0.0000   -0.0000    0.0000    0.0000   -0.0055    0.0178
       22 FE2    4px       -0.0000    0.0000    0.0000   -0.0002   -0.0000   -0.0000    0.0000    0.0000   -0.2972    0.9543
       23 FE2    5px       -0.0000    0.0000   -0.0000   -0.0000   -0.0000   -0.0000   -0.0000   -0.0000   -0.0097    0.0310
       24 FE2    2py        0.0000   -0.0000    0.0000    0.0000   -0.0000    0.0000   -0.0000   -0.0000    0.0005    0.0001
       25 FE2    3py        0.0000   -0.0000   -0.0000    0.0000   -0.0001   -0.0000    0.0000    0.0000    0.0178    0.0055
       26 FE2    4py       -0.0000   -0.0000   -0.0000    0.0000   -0.0002   -0.0000    0.0000    0.0000    0.9543    0.2972
       27 FE2    5py        0.0000    0.0000   -0.0000    0.0000   -0.0000   -0.0000    0.0000   -0.0000    0.0310    0.0097
       28 FE2    2pz        0.0000   -0.0000   -0.0000   -0.0000    0.0000   -0.0000   -0.0000    0.0000    0.0000    0.0000
       29 FE2    3pz        0.0000   -0.0000   -0.0001   -0.0000    0.0000   -0.0001   -0.0002    0.0003    0.0000    0.0000
       30 FE2    4pz        0.0000   -0.0000   -0.0005   -0.0000    0.0000    0.0006   -0.0074   -0.0293    0.0000    0.0000
       31 FE2    5pz        0.0000   -0.0000   -0.0001   -0.0000    0.0000   -0.0001   -0.0005   -0.0014    0.0000    0.0000
       32 FE2    3d2-      -0.2196    0.9660   -0.0000    0.0000   -0.0000   -0.0000    0.0000   -0.0000   -0.0000   -0.0000
       33 FE2    4d2-       0.0302   -0.1329    0.0000   -0.0000    0.0000   -0.0000    0.0000   -0.0000   -0.0000    0.0000
       34 FE2    3d1-      -0.0000    0.0000    0.0000   -0.0532    0.9892    0.0000    0.0000   -0.0000    0.0001    0.0000
       35 FE2    4d1-       0.0000   -0.0000   -0.0000    0.0073   -0.1362   -0.0000    0.0000    0.0000   -0.0007   -0.0002
       36 FE2    3d0       -0.0000    0.0000    0.9906    0.0000   -0.0000   -0.0003   -0.0001    0.0007    0.0000    0.0000
       37 FE2    4d0        0.0000   -0.0000   -0.1365   -0.0000    0.0000    0.0004   -0.0010   -0.0044   -0.0000   -0.0000
       38 FE2    3d1+       0.0000   -0.0000   -0.0000    0.9892    0.0532   -0.0000   -0.0000   -0.0000   -0.0000    0.0001
       39 FE2    4d1+      -0.0000    0.0000    0.0000   -0.1362   -0.0073   -0.0000    0.0000    0.0000    0.0002   -0.0007
       40 FE2    3d2+       0.9660    0.2196    0.0000   -0.0000    0.0000   -0.0000    0.0000    0.0000    0.0000   -0.0000
       41 FE2    4d2+      -0.1329   -0.0302   -0.0000    0.0000   -0.0000    0.0000    0.0000    0.0000   -0.0000   -0.0000
       42 FE2    4f3-       0.0000    0.0000   -0.0000    0.0000   -0.0000    0.0000   -0.0000   -0.0000   -0.0000   -0.0000
       43 FE2    4f2-      -0.0000    0.0000   -0.0000    0.0000   -0.0000    0.0000    0.0000    0.0000   -0.0000    0.0000
       44 FE2    4f1-      -0.0000    0.0000    0.0000   -0.0000    0.0000   -0.0000    0.0000    0.0000   -0.0000   -0.0000
       45 FE2    4f0       -0.0000    0.0000    0.0000    0.0000   -0.0000    0.0000   -0.0000   -0.0001   -0.0000   -0.0000
       46 FE2    4f1+       0.0000   -0.0000   -0.0000    0.0000    0.0000   -0.0000   -0.0000    0.0000    0.0000   -0.0000
       47 FE2    4f2+       0.0000    0.0000    0.0000   -0.0000   -0.0000   -0.0000   -0.0000   -0.0000   -0.0000   -0.0000
       48 FE2    4f3+       0.0000    0.0000   -0.0000    0.0000   -0.0000    0.0000   -0.0000    0.0000    0.0000   -0.0000
 
          Orbital           21        22        23        24    
          Energy           -0.4803   -0.2465   -0.1394   -0.1394
          Occ. No.          0.0000    0.0000    0.0000    0.0000
 
        1 O1     1s        -0.0022   -0.0058    0.0000    0.0000
        2 O1     2s        -0.0314   -0.0710   -0.0000   -0.0000
        3 O1     3s        -0.0114   -0.0174   -0.0000    0.0000
        4 O1     2px        0.0000    0.0000    0.9450    0.0233
        5 O1     3px        0.0000    0.0000    0.3246    0.0080
        6 O1     2py        0.0000    0.0000   -0.0233    0.9450
        7 O1     3py        0.0000    0.0000   -0.0080    0.3246
        8 O1     2pz        0.0762    0.0714   -0.0000   -0.0000
        9 O1     3pz        0.0179    0.0180   -0.0000   -0.0000
       10 O1     3d2-       0.0000    0.0000   -0.0000   -0.0000
       11 O1     3d1-      -0.0000   -0.0000    0.0002   -0.0062
       12 O1     3d0       -0.0003   -0.0002    0.0000    0.0000
       13 O1     3d1+      -0.0000   -0.0000   -0.0062   -0.0002
       14 O1     3d2+       0.0000    0.0000   -0.0000    0.0000
       15 FE2    1s         0.0000    0.0000   -0.0000   -0.0000
       16 FE2    2s         0.0001   -0.0001   -0.0000   -0.0000
       17 FE2    3s         0.0003   -0.0045   -0.0000   -0.0000
       18 FE2    4s         0.0085    0.3755   -0.0000   -0.0000
       19 FE2    5s        -0.0015    0.9365   -0.0000   -0.0000
       20 FE2    2px       -0.0000   -0.0000   -0.0000   -0.0000
       21 FE2    3px       -0.0000    0.0000   -0.0008   -0.0000
       22 FE2    4px       -0.0000   -0.0000   -0.0200   -0.0005
       23 FE2    5px       -0.0000    0.0000    0.0026    0.0001
       24 FE2    2py       -0.0000   -0.0000    0.0000   -0.0000
       25 FE2    3py       -0.0000   -0.0000    0.0000   -0.0008
       26 FE2    4py       -0.0000   -0.0000    0.0005   -0.0200
       27 FE2    5py       -0.0000    0.0000   -0.0001    0.0026
       28 FE2    2pz        0.0005    0.0000   -0.0000   -0.0000
       29 FE2    3pz        0.0188    0.0004   -0.0000   -0.0000
       30 FE2    4pz        1.0031    0.0102   -0.0000   -0.0000
       31 FE2    5pz        0.0326   -0.0008    0.0000    0.0000
       32 FE2    3d2-      -0.0000   -0.0000    0.0000   -0.0000
       33 FE2    4d2-       0.0000    0.0000    0.0000   -0.0000
       34 FE2    3d1-      -0.0000    0.0000   -0.0000    0.0020
       35 FE2    4d1-       0.0000    0.0000   -0.0005    0.0201
       36 FE2    3d0        0.0003   -0.0003    0.0000    0.0000
       37 FE2    4d0       -0.0016   -0.0035    0.0000    0.0000
       38 FE2    3d1+      -0.0000    0.0000    0.0020    0.0000
       39 FE2    4d1+       0.0000    0.0000    0.0201    0.0005
       40 FE2    3d2+      -0.0000    0.0000   -0.0000    0.0000
       41 FE2    4d2+      -0.0000    0.0000   -0.0000   -0.0000
       42 FE2    4f3-      -0.0000   -0.0000    0.0000   -0.0000
       43 FE2    4f2-       0.0000    0.0000   -0.0000    0.0000
       44 FE2    4f1-       0.0000    0.0000   -0.0000    0.0002
       45 FE2    4f0       -0.0001   -0.0000    0.0000    0.0000
       46 FE2    4f1+       0.0000    0.0000    0.0002    0.0000
       47 FE2    4f2+      -0.0000   -0.0000    0.0000   -0.0000
       48 FE2    4f3+       0.0000    0.0000   -0.0000   -0.0000
--
 
 
  Input file to MOLDEN was generated!
 
 
++    Static properties:
      ------------------
 
 
      LoProp Charges per center
 

                   O1       FE2   
      Nuclear      8.0000  26.0000
      Electronic  -7.9987 -24.0013
 
      Total        0.0013   1.9987
--
 
 
      All orbitals with orbital energies smaller than  E(LUMO)+0.5 are printed
 
++    Molecular orbitals:
      -------------------
 
      Title: UHF orbitals (beta)

      Molecular orbitals for symmetry species 1: a  
 
          Orbital            1         2         3         4         5         6         7         8         9        10    
          Energy         -264.6077  -33.3165  -28.3846  -28.3846  -28.3846  -20.9513   -4.9672   -3.4188   -3.4188   -3.4188
          Occ. No.          1.0000    1.0000    1.0000    1.0000    1.0000    1.0000    1.0000    1.0000    1.0000    1.0000
 
        1 O1     1s        -0.0000    0.0000    0.0000    0.0000    0.0000    1.0000   -0.0000   -0.0000    0.0000    0.0000
        2 O1     2s        -0.0000    0.0000    0.0000    0.0000    0.0000    0.0019   -0.0001   -0.0000    0.0000    0.0001
        3 O1     3s        -0.0000    0.0000    0.0000    0.0000    0.0001   -0.0017   -0.0002    0.0000    0.0000    0.0002
        4 O1     2px       -0.0000   -0.0000    0.0000    0.0000   -0.0000   -0.0000    0.0000   -0.0000    0.0000    0.0000
        5 O1     3px       -0.0000    0.0000    0.0000    0.0000   -0.0000    0.0000   -0.0000   -0.0001    0.0001   -0.0000
        6 O1     2py       -0.0000    0.0000   -0.0000    0.0000   -0.0000   -0.0000   -0.0000    0.0000    0.0000    0.0000
        7 O1     3py       -0.0000   -0.0000   -0.0000    0.0000   -0.0000    0.0000   -0.0000    0.0001    0.0001   -0.0000
        8 O1     2pz        0.0000   -0.0000   -0.0000   -0.0000   -0.0000   -0.0001    0.0001   -0.0000   -0.0000   -0.0002
        9 O1     3pz        0.0000   -0.0000   -0.0000   -0.0000   -0.0001    0.0001    0.0001   -0.0000   -0.0000   -0.0004
       10 O1     3d2-       0.0000   -0.0000    0.0000   -0.0000    0.0000    0.0000   -0.0000    0.0000    0.0000    0.0000
       11 O1     3d1-      -0.0000    0.0000    0.0000   -0.0000    0.0000   -0.0000    0.0000   -0.0000   -0.0000   -0.0000
       12 O1     3d0        0.0000    0.0000    0.0000    0.0000    0.0000   -0.0004    0.0000   -0.0000    0.0000    0.0000
       13 O1     3d1+      -0.0000   -0.0000   -0.0000   -0.0000    0.0000   -0.0000    0.0000    0.0000   -0.0000   -0.0000
       14 O1     3d2+       0.0000   -0.0000   -0.0000    0.0000   -0.0000   -0.0000   -0.0000    0.0000   -0.0000    0.0000
       15 FE2    1s         1.0000   -0.0000   -0.0000   -0.0000   -0.0000    0.0000    0.0000    0.0000   -0.0000   -0.0000
       16 FE2    2s         0.0000    1.0000   -0.0000   -0.0000   -0.0000    0.0000    0.0011   -0.0000    0.0000   -0.0000
       17 FE2    3s        -0.0000   -0.0011    0.0000    0.0000    0.0000    0.0000    1.0000    0.0000   -0.0000   -0.0002
       18 FE2    4s         0.0000    0.0002   -0.0000   -0.0000   -0.0000    0.0000   -0.0028   -0.0000   -0.0000   -0.0001
       19 FE2    5s        -0.0000   -0.0002   -0.0000   -0.0000   -0.0000    0.0001    0.0033   -0.0000   -0.0000   -0.0001
       20 FE2    2px        0.0000   -0.0000    0.9963    0.0858   -0.0000   -0.0000   -0.0000   -0.0017    0.0027   -0.0000
       21 FE2    3px        0.0000   -0.0000   -0.0032   -0.0003    0.0000   -0.0000   -0.0000   -0.5273    0.8496   -0.0000
       22 FE2    4px       -0.0000    0.0000    0.0004    0.0000   -0.0000   -0.0000    0.0000    0.0060   -0.0097    0.0000
       23 FE2    5px        0.0000   -0.0000   -0.0011   -0.0001    0.0000   -0.0000    0.0000   -0.0029    0.0047   -0.0000
       24 FE2    2py        0.0000   -0.0000   -0.0858    0.9963   -0.0000    0.0000    0.0000    0.0027    0.0017   -0.0000
       25 FE2    3py        0.0000    0.0000    0.0003   -0.0032    0.0000    0.0000   -0.0000    0.8496    0.5273   -0.0000
       26 FE2    4py        0.0000   -0.0000   -0.0000    0.0004   -0.0000   -0.0000    0.0000   -0.0097   -0.0060    0.0000
       27 FE2    5py       -0.0000    0.0000    0.0001   -0.0011    0.0000   -0.0000   -0.0000    0.0047    0.0029   -0.0000
       28 FE2    2pz        0.0000    0.0000    0.0000    0.0000    1.0000    0.0000   -0.0000    0.0000    0.0000    0.0032
       29 FE2    3pz       -0.0000    0.0000   -0.0000   -0.0000   -0.0032    0.0000    0.0002    0.0000    0.0000    0.9999
       30 FE2    4pz        0.0000   -0.0000    0.0000    0.0000    0.0004    0.0001    0.0000   -0.0000   -0.0000   -0.0115
       31 FE2    5pz       -0.0000   -0.0000   -0.0000   -0.0000   -0.0011    0.0000    0.0000    0.0000    0.0000    0.0055
       32 FE2    3d2-       0.0000    0.0000   -0.0000    0.0000   -0.0000   -0.0000    0.0000    0.0000   -0.0000    0.0000
       33 FE2    4d2-      -0.0000   -0.0000   -0.0000   -0.0000    0.0000    0.0000   -0.0000   -0.0000    0.0000   -0.0000
       34 FE2    3d1-       0.0000   -0.0000   -0.0000    0.0000   -0.0000   -0.0000    0.0000    0.0001    0.0000   -0.0000
       35 FE2    4d1-       0.0000   -0.0000    0.0000   -0.0000    0.0000   -0.0000    0.0000   -0.0000   -0.0000    0.0000
       36 FE2    3d0        0.0000   -0.0000   -0.0000   -0.0000   -0.0000    0.0000   -0.0000    0.0000    0.0000    0.0001
       37 FE2    4d0        0.0000   -0.0000   -0.0000   -0.0000   -0.0000    0.0000    0.0000   -0.0000   -0.0000   -0.0001
       38 FE2    3d1+      -0.0000    0.0000    0.0000    0.0000   -0.0000   -0.0000   -0.0000   -0.0000    0.0001   -0.0000
       39 FE2    4d1+      -0.0000   -0.0000   -0.0000   -0.0000    0.0000   -0.0000    0.0000    0.0000   -0.0000    0.0000
       40 FE2    3d2+       0.0000   -0.0000    0.0000    0.0000   -0.0000   -0.0000    0.0000    0.0000   -0.0000    0.0000
       41 FE2    4d2+      -0.0000    0.0000   -0.0000    0.0000    0.0000    0.0000   -0.0000   -0.0000    0.0000   -0.0000
       42 FE2    4f3-      -0.0000    0.0000    0.0000   -0.0000   -0.0000   -0.0000   -0.0000    0.0000    0.0000    0.0000
       43 FE2    4f2-       0.0000   -0.0000    0.0000   -0.0000    0.0000    0.0000   -0.0000   -0.0000    0.0000   -0.0000
       44 FE2    4f1-       0.0000   -0.0000    0.0000   -0.0000    0.0000   -0.0000    0.0000   -0.0000   -0.0000    0.0000
       45 FE2    4f0        0.0000   -0.0000   -0.0000   -0.0000   -0.0000    0.0000   -0.0000   -0.0000   -0.0000   -0.0000
       46 FE2    4f1+       0.0000    0.0000   -0.0000   -0.0000    0.0000   -0.0000    0.0000    0.0000   -0.0000    0.0000
       47 FE2    4f2+      -0.0000   -0.0000   -0.0000   -0.0000   -0.0000   -0.0000    0.0000   -0.0000    0.0000   -0.0000
       48 FE2    4f3+       0.0000   -0.0000   -0.0000    0.0000    0.0000   -0.0000   -0.0000    0.0000    0.0000   -0.0000
 
          Orbital           11        12        13        14        15        16        17        18        19        20    
          Energy           -1.6530   -0.9431   -0.9431   -0.8453   -0.5728   -0.5707   -0.5707   -0.5706   -0.5706   -0.5706
          Occ. No.          1.0000    1.0000    1.0000    1.0000    0.0000    0.0000    0.0000    0.0000    0.0000    0.0000
 
        1 O1     1s        -0.0019   -0.0000    0.0000    0.0001    0.0001    0.0000   -0.0000    0.0000   -0.0000   -0.0003
        2 O1     2s         0.9994   -0.0000   -0.0000    0.0162   -0.0015    0.0000   -0.0000    0.0000   -0.0000   -0.0044
        3 O1     3s        -0.0286    0.0000    0.0000   -0.0120    0.0016    0.0000   -0.0000    0.0000   -0.0000   -0.0015
        4 O1     2px        0.0000    0.9987    0.0134    0.0000   -0.0000   -0.0000   -0.0000   -0.0021   -0.0001   -0.0000
        5 O1     3px        0.0000   -0.0487   -0.0007   -0.0000   -0.0000   -0.0000   -0.0000   -0.0013   -0.0001   -0.0000
        6 O1     2py       -0.0000   -0.0134    0.9987    0.0000    0.0000    0.0000   -0.0000    0.0001   -0.0021    0.0000
        7 O1     3py        0.0000    0.0007   -0.0487   -0.0000    0.0000    0.0000   -0.0000    0.0001   -0.0013    0.0000
        8 O1     2pz       -0.0166   -0.0000   -0.0000    0.9992    0.0208   -0.0000    0.0000   -0.0000    0.0000    0.0160
        9 O1     3pz       -0.0038    0.0000    0.0000   -0.0087   -0.0010   -0.0000    0.0000   -0.0000    0.0000    0.0034
       10 O1     3d2-      -0.0000   -0.0000   -0.0000   -0.0000    0.0000    0.0000   -0.0000   -0.0000    0.0000    0.0000
       11 O1     3d1-      -0.0000    0.0001   -0.0058   -0.0000    0.0000   -0.0000    0.0000   -0.0000    0.0000    0.0000
       12 O1     3d0       -0.0208    0.0000    0.0000   -0.0078    0.0002    0.0000    0.0000    0.0000    0.0000    0.0000
       13 O1     3d1+      -0.0000   -0.0058   -0.0001   -0.0000    0.0000    0.0000    0.0000    0.0000    0.0000    0.0000
       14 O1     3d2+      -0.0000   -0.0000    0.0000    0.0000    0.0000   -0.0000   -0.0000    0.0000   -0.0000    0.0000
       15 FE2    1s        -0.0000    0.0000   -0.0000    0.0000   -0.0000   -0.0000   -0.0000    0.0000    0.0000    0.0000
       16 FE2    2s        -0.0000    0.0000   -0.0000    0.0002   -0.0002   -0.0000   -0.0000    0.0000   -0.0000   -0.0000
       17 FE2    3s        -0.0001   -0.0000   -0.0000    0.0008    0.0035    0.0000    0.0000   -0.0000    0.0000    0.0004
       18 FE2    4s        -0.0006    0.0000    0.0000   -0.0084    0.9629    0.0000    0.0000   -0.0000    0.0000    0.1078
       19 FE2    5s        -0.0014    0.0000   -0.0000    0.0019   -0.2461   -0.0000   -0.0000    0.0000   -0.0000   -0.0268
       20 FE2    2px       -0.0000   -0.0000   -0.0000   -0.0000   -0.0000   -0.0000   -0.0000   -0.0000   -0.0000   -0.0000
       21 FE2    3px       -0.0000   -0.0000   -0.0000    0.0000    0.0000    0.0000    0.0000   -0.0001   -0.0000    0.0000
       22 FE2    4px       -0.0000   -0.0004   -0.0000   -0.0000    0.0000    0.0000    0.0000    0.0003    0.0000    0.0000
       23 FE2    5px       -0.0000   -0.0002   -0.0000   -0.0000   -0.0000   -0.0000    0.0000   -0.0000   -0.0000   -0.0000
       24 FE2    2py        0.0000    0.0000   -0.0000   -0.0000   -0.0000    0.0000   -0.0000    0.0000   -0.0000    0.0000
       25 FE2    3py       -0.0000    0.0000   -0.0000    0.0000    0.0000    0.0000   -0.0000    0.0000   -0.0001    0.0000
       26 FE2    4py       -0.0000    0.0000   -0.0004    0.0000    0.0000   -0.0000    0.0000   -0.0000    0.0003    0.0000
       27 FE2    5py       -0.0000    0.0000   -0.0002   -0.0000    0.0000   -0.0000    0.0000    0.0000   -0.0000    0.0000
       28 FE2    2pz       -0.0000    0.0000   -0.0000    0.0000    0.0000    0.0000    0.0000    0.0000    0.0000    0.0000
       29 FE2    3pz       -0.0001   -0.0000   -0.0000    0.0005   -0.0000   -0.0000   -0.0000    0.0000   -0.0000   -0.0001
       30 FE2    4pz       -0.0008    0.0000    0.0000   -0.0059   -0.0019    0.0000   -0.0000    0.0000    0.0000   -0.0004
       31 FE2    5pz       -0.0004    0.0000    0.0000   -0.0006   -0.0004    0.0000   -0.0000    0.0000    0.0000   -0.0001
       32 FE2    3d2-       0.0000    0.0000    0.0000    0.0000   -0.0000   -0.0618    0.9900   -0.0000   -0.0000   -0.0000
       33 FE2    4d2-      -0.0000    0.0000    0.0000    0.0000   -0.0000   -0.0079    0.1264   -0.0000   -0.0000   -0.0000
       34 FE2    3d1-      -0.0000   -0.0000    0.0002    0.0000    0.0000   -0.0000    0.0000   -0.0448    0.9910   -0.0000
       35 FE2    4d1-      -0.0000    0.0000   -0.0001   -0.0000    0.0000   -0.0000    0.0000   -0.0057    0.1264   -0.0000
       36 FE2    3d0       -0.0000    0.0000    0.0000   -0.0055   -0.1097   -0.0000    0.0000   -0.0000    0.0000    0.9860
       37 FE2    4d0       -0.0003    0.0000    0.0000   -0.0020   -0.0146   -0.0000    0.0000   -0.0000    0.0000    0.1257
       38 FE2    3d1+       0.0000    0.0002    0.0000    0.0000    0.0000    0.0000    0.0000    0.9910    0.0448    0.0000
       39 FE2    4d1+      -0.0000   -0.0001   -0.0000   -0.0000    0.0000    0.0000    0.0000    0.1264    0.0057    0.0000
       40 FE2    3d2+       0.0000   -0.0000   -0.0000   -0.0000   -0.0000    0.9900    0.0618   -0.0000    0.0000    0.0000
       41 FE2    4d2+      -0.0000    0.0000   -0.0000    0.0000   -0.0000    0.1264    0.0079   -0.0000    0.0000    0.0000
       42 FE2    4f3-       0.0000    0.0000   -0.0000   -0.0000    0.0000   -0.0000   -0.0000    0.0000   -0.0000   -0.0000
       43 FE2    4f2-       0.0000   -0.0000   -0.0000    0.0000    0.0000   -0.0000    0.0001   -0.0000   -0.0000   -0.0000
       44 FE2    4f1-      -0.0000   -0.0000    0.0000    0.0000    0.0000   -0.0000    0.0000   -0.0000    0.0001   -0.0000
       45 FE2    4f0        0.0000    0.0000    0.0000   -0.0001   -0.0000   -0.0000    0.0000   -0.0000    0.0000    0.0000
       46 FE2    4f1+      -0.0000    0.0000    0.0000    0.0000   -0.0000    0.0000    0.0000    0.0001    0.0000    0.0000
       47 FE2    4f2+      -0.0000    0.0000   -0.0000   -0.0000   -0.0000    0.0001    0.0000   -0.0000    0.0000    0.0000
       48 FE2    4f3+       0.0000   -0.0000   -0.0000    0.0000   -0.0000    0.0000    0.0000    0.0000   -0.0000   -0.0000
 
          Orbital           21        22        23        24    
          Energy           -0.3912   -0.3912   -0.3898   -0.2250
          Occ. No.          0.0000    0.0000    0.0000    0.0000
 
        1 O1     1s         0.0000   -0.0000   -0.0022   -0.0058
        2 O1     2s         0.0000   -0.0000   -0.0276   -0.0637
        3 O1     3s         0.0000   -0.0000   -0.0058   -0.0108
        4 O1     2px       -0.0063   -0.0018   -0.0000   -0.0000
        5 O1     3px       -0.0012   -0.0003   -0.0000   -0.0000
        6 O1     2py        0.0018   -0.0063    0.0000    0.0000
        7 O1     3py        0.0003   -0.0012    0.0000    0.0000
        8 O1     2pz       -0.0000    0.0000    0.0454    0.0563
        9 O1     3pz       -0.0000    0.0000    0.0032    0.0108
       10 O1     3d2-       0.0000    0.0000    0.0000    0.0000
       11 O1     3d1-       0.0001   -0.0002    0.0000    0.0000
       12 O1     3d0       -0.0000    0.0000    0.0009    0.0009
       13 O1     3d1+      -0.0002   -0.0001    0.0000    0.0000
       14 O1     3d2+       0.0000   -0.0000    0.0000    0.0000
       15 FE2    1s         0.0000    0.0000    0.0000    0.0000
       16 FE2    2s        -0.0000    0.0000    0.0000    0.0002
       17 FE2    3s        -0.0000    0.0000    0.0001   -0.0023
       18 FE2    4s         0.0000   -0.0000    0.0014    0.2511
       19 FE2    5s        -0.0000    0.0000   -0.0054    0.9751
       20 FE2    2px       -0.0003   -0.0001    0.0000   -0.0000
       21 FE2    3px        0.0106    0.0031   -0.0000    0.0000
       22 FE2    4px        0.9578    0.2782   -0.0000   -0.0000
       23 FE2    5px        0.0693    0.0201   -0.0000   -0.0000
       24 FE2    2py        0.0001   -0.0003    0.0000    0.0000
       25 FE2    3py       -0.0031    0.0106   -0.0000   -0.0000
       26 FE2    4py       -0.2782    0.9578   -0.0000   -0.0000
       27 FE2    5py       -0.0201    0.0693   -0.0000    0.0000
       28 FE2    2pz        0.0000   -0.0000   -0.0003   -0.0000
       29 FE2    3pz       -0.0000    0.0000    0.0111    0.0003
       30 FE2    4pz       -0.0000    0.0000    0.9994    0.0128
       31 FE2    5pz       -0.0000    0.0000    0.0720    0.0001
       32 FE2    3d2-      -0.0000   -0.0000   -0.0000   -0.0000
       33 FE2    4d2-       0.0000    0.0000   -0.0000   -0.0000
       34 FE2    3d1-       0.0000   -0.0002   -0.0000   -0.0000
       35 FE2    4d1-       0.0000   -0.0000    0.0000    0.0000
       36 FE2    3d0       -0.0000    0.0000    0.0015    0.0015
       37 FE2    4d0        0.0000   -0.0000   -0.0007   -0.0018
       38 FE2    3d1+      -0.0002   -0.0000   -0.0000   -0.0000
       39 FE2    4d1+      -0.0000   -0.0000    0.0000    0.0000
       40 FE2    3d2+      -0.0000    0.0000   -0.0000    0.0000
       41 FE2    4d2+       0.0000   -0.0000   -0.0000    0.0000
       42 FE2    4f3-      -0.0000   -0.0000   -0.0000   -0.0000
       43 FE2    4f2-       0.0000    0.0000    0.0000    0.0000
       44 FE2    4f1-       0.0000   -0.0000    0.0000    0.0000
       45 FE2    4f0        0.0000   -0.0000   -0.0000   -0.0000
       46 FE2    4f1+      -0.0000   -0.0000    0.0000   -0.0000
       47 FE2    4f2+       0.0000   -0.0000    0.0000   -0.0000
       48 FE2    4f3+      -0.0000    0.0000    0.0000    0.0000
--
 
 
++    Molecular charges:
      ------------------
 
      Mulliken charges per centre and basis function type
      ---------------------------------------------------
 
                            O1                      FE2   
                     alpha        beta       alpha        beta
      1s           1.0000      1.0000      1.0000      1.0000
      2s           0.9986      0.9988      1.0000      1.0000
      2px          0.0000      0.9976      1.0000      1.0000
      2pz          0.9941      0.9991      1.0000      1.0000
      2py          0.0000      0.9976      1.0000      1.0000
      3s           0.0007      0.0010      1.0000      1.0000
      3px          0.0000      0.0024      0.9993      0.9998
      3pz          0.0032      0.0001      0.9993      0.9998
      3py          0.0000      0.0024      0.9993      0.9998
      4s           0.0000      0.0000      0.8615      0.0003
      3d2+        -0.0000      0.0000      0.9814      0.0000
      3d1+        -0.0000      0.0000      0.9814      0.0000
      3d0          0.0009      0.0005      0.9814      0.0001
      3d1-        -0.0000      0.0000      0.9814      0.0000
      3d2-        -0.0000      0.0000      0.9814      0.0000
      4px          0.0000      0.0000      0.0004      0.0001
      4pz          0.0000      0.0000      0.0026      0.0004
      4py          0.0000      0.0000      0.0004      0.0001
      5s           0.0000      0.0000      0.1383     -0.0002
      4d2+         0.0000      0.0000      0.0186      0.0000
      4d1+         0.0000      0.0000      0.0186     -0.0000
      4d0          0.0000      0.0000      0.0188      0.0001
      4d1-         0.0000      0.0000      0.0186     -0.0000
      4d2-         0.0000      0.0000      0.0186      0.0000
      5px          0.0000      0.0000      0.0003      0.0000
      5pz          0.0000      0.0000      0.0004      0.0000
      5py          0.0000      0.0000      0.0003      0.0000
      4f3+         0.0000      0.0000      0.0000      0.0000
      4f2+         0.0000      0.0000      0.0000      0.0000
      4f1+         0.0000      0.0000      0.0000      0.0000
      4f0          0.0000      0.0000      0.0000      0.0000
      4f1-         0.0000      0.0000      0.0000      0.0000
      4f2-         0.0000      0.0000      0.0000      0.0000
      4f3-         0.0000      0.0000      0.0000      0.0000
      Total        2.9977      4.9995     15.0023      9.0005
      Total              7.9972                 24.0028
 
      Charge            0.0028                  1.9972
 
      Total electronic charge=   32.000000
 
      Total            charge=    2.000000
--
 
 
  Input file to MOLDEN was generated!
 
 
++    Static properties:
      ------------------
 
 
      LoProp Charges per center
 

                   O1       FE2   
      Nuclear      8.0000  26.0000
      Electronic  -7.9987 -24.0013
 
      Total        0.0013   1.9987
--
 
 
++    Natural Bond Order analysis
      ---------------------------
      Based on LoProp computed density
      -------------------------------------------------------------------------------------
      Atom A       Atom B       Bond Order
      -------------------------------------------------------------------------------------
      NBO located     20.000 core electrons.
      NBO located      3.992 lone pair electrons.
      NBO located      1.000 non-bonded electrons on atom O1        
      NBO located      1.000 non-bonded electrons on atom O1        
      NBO located      1.000 non-bonded electrons on atom FE2       
      NBO located      1.000 non-bonded electrons on atom FE2       
      NBO located      1.000 non-bonded electrons on atom FE2       
      NBO located      1.000 non-bonded electrons on atom FE2       
      NBO located      1.000 non-bonded electrons on atom FE2       
      NBO located      1.000 non-bonded electrons on atom FE2       
      The remaining    0.008 electrons are to be considered as diffuse
--
 
 
++    Molecular orbitals:
      -------------------
 
      Title: Natural orbitals

      Molecular orbitals for symmetry species 1: a  
 
          Orbital            1         2         3         4         5         6         7         8         9        10    
          Energy         -264.6117  -33.0533  -27.5477  -27.7103  -27.7094  -20.9713   -5.6174   -4.4715   -4.4603   -4.4611
          Occ. No.          2.0000    2.0000    2.0000    2.0000    2.0000    2.0000    2.0000    1.9999    1.9999    1.9999
 
        1 O1     1s         0.0000    0.0070    0.1468    0.0000    0.0000    0.9866   -0.0623   -0.0028   -0.0000    0.0000
        2 O1     2s        -0.0000   -0.0002   -0.0047   -0.0000   -0.0000   -0.0332    0.0007   -0.0036    0.0000   -0.0000
        3 O1     3s        -0.0000    0.0000   -0.0001   -0.0000   -0.0000   -0.0005   -0.0003    0.0005    0.0000   -0.0000
        4 O1     2px       -0.0000   -0.0000    0.0000   -0.0000   -0.0000   -0.0000    0.0000   -0.0000   -0.0000    0.0000
        5 O1     3px       -0.0000    0.0000   -0.0000   -0.0000   -0.0000    0.0000   -0.0000   -0.0000    0.0000   -0.0000
        6 O1     2py       -0.0000    0.0000    0.0000    0.0000   -0.0000   -0.0000    0.0000   -0.0000   -0.0000   -0.0000
        7 O1     3py       -0.0000    0.0000   -0.0000    0.0000   -0.0000    0.0000    0.0000   -0.0000    0.0000    0.0000
        8 O1     2pz        0.0000   -0.0000    0.0019   -0.0000   -0.0000   -0.0015    0.0051   -0.0393   -0.0000    0.0000
        9 O1     3pz        0.0000   -0.0000    0.0001    0.0000    0.0000    0.0002    0.0004   -0.0010    0.0000   -0.0000
       10 O1     3d2-       0.0000   -0.0000    0.0000   -0.0000   -0.0000    0.0000   -0.0000    0.0000    0.0000    0.0000
       11 O1     3d1-      -0.0000    0.0000    0.0000   -0.0000    0.0000    0.0000    0.0000    0.0000    0.0000    0.0000
       12 O1     3d0        0.0000    0.0000    0.0000    0.0000    0.0000    0.0002   -0.0001    0.0003    0.0000   -0.0000
       13 O1     3d1+      -0.0000   -0.0000    0.0000    0.0000    0.0000    0.0000    0.0000    0.0000    0.0000   -0.0000
       14 O1     3d2+       0.0000    0.0000   -0.0000   -0.0000    0.0000   -0.0000   -0.0000    0.0000   -0.0000   -0.0000
       15 FE2    1s         1.0000   -0.0000    0.0000    0.0000    0.0000    0.0000    0.0000   -0.0000   -0.0000   -0.0000
       16 FE2    2s         0.0000    0.9939    0.0023   -0.0000   -0.0000   -0.0004    0.1106    0.0008    0.0000   -0.0000
       17 FE2    3s        -0.0000   -0.1104    0.0103    0.0000    0.0000    0.0619    0.9919    0.0053    0.0000   -0.0000
       18 FE2    4s         0.0000    0.0005   -0.0000   -0.0000   -0.0000   -0.0001   -0.0022    0.0002   -0.0000   -0.0000
       19 FE2    5s        -0.0000   -0.0006    0.0001    0.0000    0.0000    0.0003    0.0046   -0.0000   -0.0000   -0.0000
       20 FE2    2px       -0.0000    0.0000    0.0000    0.9835    0.0462   -0.0000    0.0000    0.0000    0.1706   -0.0392
       21 FE2    3px        0.0000   -0.0000   -0.0000   -0.1749   -0.0082    0.0000   -0.0000   -0.0000    0.9594   -0.2205
       22 FE2    4px       -0.0000    0.0000    0.0000    0.0026    0.0001   -0.0000    0.0000    0.0000   -0.0147    0.0034
       23 FE2    5px        0.0000   -0.0000   -0.0000   -0.0019   -0.0001    0.0000   -0.0000   -0.0000    0.0114   -0.0026
       24 FE2    2py       -0.0000    0.0000    0.0000   -0.0462    0.9835   -0.0000    0.0000   -0.0000    0.0392    0.1707
       25 FE2    3py        0.0000   -0.0000   -0.0000    0.0082   -0.1750    0.0000   -0.0000   -0.0000    0.2205    0.9593
       26 FE2    4py       -0.0000    0.0000    0.0000   -0.0001    0.0026   -0.0000    0.0000    0.0000   -0.0034   -0.0147
       27 FE2    5py        0.0000   -0.0000   -0.0000    0.0001   -0.0019    0.0000   -0.0000   -0.0000    0.0026    0.0114
       28 FE2    2pz       -0.0000   -0.0022    0.9736   -0.0000   -0.0000   -0.1445   -0.0023    0.1769    0.0000    0.0000
       29 FE2    3pz       -0.0000    0.0002   -0.1747    0.0000    0.0000    0.0282   -0.0051    0.9832    0.0000    0.0000
       30 FE2    4pz        0.0000   -0.0000    0.0026   -0.0000   -0.0000   -0.0004    0.0000   -0.0144   -0.0000   -0.0000
       31 FE2    5pz       -0.0000   -0.0000   -0.0019    0.0000    0.0000    0.0003   -0.0000    0.0117    0.0000    0.0000
       32 FE2    3d2-       0.0000    0.0000   -0.0000    0.0000   -0.0000   -0.0000    0.0000    0.0000   -0.0000    0.0000
       33 FE2    4d2-      -0.0000   -0.0000    0.0000   -0.0000    0.0000    0.0000   -0.0000   -0.0000    0.0000   -0.0000
       34 FE2    3d1-       0.0000   -0.0000   -0.0000    0.0000   -0.0000    0.0000    0.0000   -0.0000    0.0000    0.0001
       35 FE2    4d1-       0.0000   -0.0000    0.0000   -0.0000    0.0000   -0.0000    0.0000    0.0000   -0.0000   -0.0000
       36 FE2    3d0        0.0000    0.0000   -0.0000    0.0000    0.0000    0.0000   -0.0000    0.0003   -0.0000    0.0000
       37 FE2    4d0        0.0000   -0.0000    0.0000    0.0000    0.0000    0.0000    0.0000    0.0001    0.0000   -0.0000
       38 FE2    3d1+      -0.0000   -0.0000   -0.0000   -0.0000   -0.0000    0.0000   -0.0000   -0.0000    0.0001   -0.0000
       39 FE2    4d1+      -0.0000   -0.0000    0.0000    0.0000    0.0000   -0.0000    0.0000    0.0000   -0.0000    0.0000
       40 FE2    3d2+       0.0000   -0.0000   -0.0000    0.0000   -0.0000   -0.0000    0.0000    0.0000   -0.0000    0.0000
       41 FE2    4d2+      -0.0000    0.0000    0.0000   -0.0000    0.0000    0.0000   -0.0000   -0.0000    0.0000   -0.0000
       42 FE2    4f3-      -0.0000    0.0000   -0.0000    0.0000   -0.0000   -0.0000   -0.0000    0.0000    0.0000    0.0000
       43 FE2    4f2-       0.0000   -0.0000    0.0000   -0.0000   -0.0000    0.0000   -0.0000   -0.0000    0.0000   -0.0000
       44 FE2    4f1-       0.0000   -0.0000    0.0000   -0.0000    0.0000   -0.0000    0.0000    0.0000   -0.0000   -0.0000
       45 FE2    4f0        0.0000    0.0000    0.0000   -0.0000   -0.0000   -0.0000   -0.0000   -0.0000   -0.0000   -0.0000
       46 FE2    4f1+       0.0000    0.0000    0.0000    0.0000    0.0000   -0.0000    0.0000   -0.0000   -0.0000    0.0000
       47 FE2    4f2+      -0.0000   -0.0000   -0.0000   -0.0000    0.0000   -0.0000    0.0000   -0.0000    0.0000   -0.0000
       48 FE2    4f3+       0.0000   -0.0000    0.0000   -0.0000    0.0000   -0.0000    0.0000   -0.0000    0.0000    0.0000
 
          Orbital           11        12        13        14        15        16        17        18        19        20    
          Energy           -0.9509   -1.3500   -0.7901   -0.7901   -1.0827   -1.0827   -1.0826   -0.7582   -0.7898   -0.7898
          Occ. No.          1.9978    1.9973    1.0003    1.0003    1.0000    1.0000    1.0000    1.0000    0.9997    0.9997
 
        1 O1     1s        -0.0173    0.0288    0.0000    0.0000   -0.0000   -0.0000   -0.0001   -0.0008    0.0000   -0.0000
        2 O1     2s        -0.4768    0.8784    0.0000    0.0000   -0.0000   -0.0000   -0.0008   -0.0065    0.0000   -0.0000
        3 O1     3s         0.0126    0.0029    0.0000    0.0000   -0.0000   -0.0000   -0.0008   -0.0067    0.0000   -0.0000
        4 O1     2px       -0.0000   -0.0000    0.7053    0.0382   -0.0000   -0.0000    0.0000    0.0000   -0.6924   -0.1388
        5 O1     3px       -0.0000   -0.0000   -0.0340   -0.0018    0.0000    0.0000    0.0000    0.0000    0.0342    0.0069
        6 O1     2py       -0.0000   -0.0000   -0.0382    0.7053    0.0000    0.0000   -0.0000   -0.0000   -0.1388    0.6924
        7 O1     3py       -0.0000   -0.0000    0.0018   -0.0340   -0.0000   -0.0000    0.0000    0.0000    0.0069   -0.0342
        8 O1     2pz       -0.8770   -0.4754    0.0000   -0.0000   -0.0000   -0.0000   -0.0052   -0.0148    0.0000   -0.0000
        9 O1     3pz       -0.0164   -0.0148   -0.0000   -0.0000    0.0000    0.0000    0.0005    0.0034   -0.0000    0.0000
       10 O1     3d2-       0.0000    0.0000   -0.0000   -0.0000   -0.0000   -0.0000    0.0000    0.0000    0.0000   -0.0000
       11 O1     3d1-       0.0000    0.0000    0.0002   -0.0041   -0.0000   -0.0000   -0.0000   -0.0000    0.0008   -0.0039
       12 O1     3d0        0.0042    0.0073    0.0000    0.0000   -0.0000   -0.0000   -0.0001    0.0000   -0.0000    0.0000
       13 O1     3d1+       0.0000    0.0000   -0.0041   -0.0002    0.0000    0.0000   -0.0000   -0.0000    0.0039    0.0008
       14 O1     3d2+      -0.0000    0.0000   -0.0000    0.0000    0.0000   -0.0000   -0.0000   -0.0000    0.0000    0.0000
       15 FE2    1s        -0.0000   -0.0000   -0.0000   -0.0000    0.0000    0.0000    0.0000    0.0000   -0.0000    0.0000
       16 FE2    2s         0.0002    0.0002   -0.0000   -0.0000    0.0000    0.0000    0.0000    0.0003   -0.0000    0.0000
       17 FE2    3s         0.0026    0.0027    0.0000    0.0000   -0.0000   -0.0000   -0.0000   -0.0038    0.0000   -0.0000
       18 FE2    4s         0.0065    0.0025    0.0000    0.0000   -0.0000   -0.0000    0.0003   -0.9278    0.0000   -0.0000
       19 FE2    5s         0.0003   -0.0008   -0.0000   -0.0000    0.0000    0.0000    0.0003    0.3723   -0.0000    0.0000
       20 FE2    2px       -0.0000    0.0000   -0.0000   -0.0000    0.0000   -0.0000   -0.0000   -0.0000    0.0000    0.0000
       21 FE2    3px       -0.0000    0.0000   -0.0001   -0.0000    0.0000   -0.0000   -0.0000   -0.0000   -0.0000   -0.0000
       22 FE2    4px        0.0000   -0.0000   -0.0004   -0.0000   -0.0000   -0.0000   -0.0000   -0.0000    0.0001    0.0000
       23 FE2    5px        0.0000    0.0000   -0.0001   -0.0000   -0.0000    0.0000   -0.0000   -0.0000    0.0001    0.0000
       24 FE2    2py       -0.0000   -0.0000    0.0000   -0.0000    0.0000   -0.0000   -0.0000   -0.0000    0.0000   -0.0000
       25 FE2    3py        0.0000    0.0000    0.0000   -0.0001   -0.0000   -0.0000   -0.0000   -0.0000   -0.0000    0.0000
       26 FE2    4py       -0.0000   -0.0000    0.0000   -0.0004   -0.0000   -0.0000   -0.0000   -0.0000    0.0000   -0.0001
       27 FE2    5py        0.0000    0.0000    0.0000   -0.0001   -0.0000   -0.0000   -0.0000   -0.0000    0.0000   -0.0001
       28 FE2    2pz       -0.0045   -0.0020    0.0000    0.0000   -0.0000   -0.0000    0.0000   -0.0000    0.0000   -0.0000
       29 FE2    3pz       -0.0365   -0.0157   -0.0000   -0.0000    0.0000    0.0000    0.0001    0.0001   -0.0000    0.0000
       30 FE2    4pz        0.0161    0.0082   -0.0000   -0.0000    0.0000    0.0000    0.0007    0.0083   -0.0000    0.0000
       31 FE2    5pz        0.0006    0.0001   -0.0000   -0.0000    0.0000    0.0000    0.0001    0.0005   -0.0000    0.0000
       32 FE2    3d2-      -0.0000   -0.0000    0.0000    0.0000   -0.2195   -0.9660    0.0000    0.0000    0.0000   -0.0000
       33 FE2    4d2-       0.0000    0.0000   -0.0000   -0.0000    0.0302    0.1329   -0.0000   -0.0000   -0.0000    0.0000
       34 FE2    3d1-      -0.0000   -0.0000   -0.0379    0.6995    0.0000    0.0000    0.0000    0.0000    0.1377   -0.6868
       35 FE2    4d1-      -0.0000   -0.0000    0.0052   -0.0963   -0.0000   -0.0000   -0.0000   -0.0000   -0.0190    0.0945
       36 FE2    3d0        0.0048    0.0025    0.0000    0.0000   -0.0000   -0.0000   -0.9906    0.0001    0.0000   -0.0000
       37 FE2    4d0        0.0025    0.0013   -0.0000   -0.0000    0.0000    0.0000    0.1366    0.0012   -0.0000    0.0000
       38 FE2    3d1+      -0.0000   -0.0000    0.6995    0.0379    0.0000    0.0000    0.0000    0.0000    0.6868    0.1377
       39 FE2    4d1+       0.0000   -0.0000   -0.0963   -0.0052   -0.0000   -0.0000   -0.0000   -0.0000   -0.0945   -0.0190
       40 FE2    3d2+       0.0000    0.0000   -0.0000   -0.0000    0.9660   -0.2195   -0.0000   -0.0000   -0.0000    0.0000
       41 FE2    4d2+      -0.0000   -0.0000    0.0000    0.0000   -0.1329    0.0302    0.0000    0.0000    0.0000   -0.0000
       42 FE2    4f3-       0.0000    0.0000    0.0000   -0.0000    0.0000   -0.0000    0.0000    0.0000    0.0000    0.0000
       43 FE2    4f2-      -0.0000   -0.0000    0.0000    0.0000   -0.0000   -0.0000    0.0000    0.0000    0.0000   -0.0000
       44 FE2    4f1-      -0.0000   -0.0000   -0.0000    0.0000    0.0000   -0.0000    0.0000    0.0000    0.0000   -0.0000
       45 FE2    4f0        0.0001    0.0001   -0.0000   -0.0000    0.0000    0.0000   -0.0000    0.0000   -0.0000    0.0000
       46 FE2    4f1+      -0.0000   -0.0000    0.0000    0.0000   -0.0000    0.0000    0.0000    0.0000    0.0000    0.0000
       47 FE2    4f2+       0.0000   -0.0000    0.0000   -0.0000    0.0000   -0.0000   -0.0000   -0.0000    0.0000    0.0000
       48 FE2    4f3+      -0.0000    0.0000   -0.0000   -0.0000    0.0000   -0.0000    0.0000    0.0000    0.0000   -0.0000
 
          Orbital           21        22        23        24        25        26        27        28        29        30    
          Energy            0.9723    0.4942    0.9488    0.9488    1.0227   -0.2042    0.8547   -0.0374   -0.0374    0.5535
          Occ. No.          0.0027    0.0022    0.0001    0.0001    0.0001    0.0000    0.0000    0.0000    0.0000    0.0000
 
        1 O1     1s        -0.0003    0.0008   -0.0000   -0.0000   -0.0021    0.0059   -0.0031    0.0000    0.0000   -0.0024
        2 O1     2s        -0.0094    0.0140   -0.0000   -0.0000   -0.0249    0.0674   -0.0363    0.0000    0.0000   -0.0305
        3 O1     3s         0.6201    0.3405   -0.0000   -0.0000   -0.0385    0.1371   -0.6116    0.0000    0.0000    0.3644
        4 O1     2px       -0.0000   -0.0000    0.0007   -0.0047    0.0000    0.0000   -0.0000    0.0038   -0.0122   -0.0000
        5 O1     3px       -0.0000    0.0000    0.0025   -0.0156   -0.0000   -0.0000   -0.0000    0.0204   -0.0653    0.0000
        6 O1     2py        0.0000   -0.0000   -0.0047   -0.0007   -0.0000   -0.0000   -0.0000   -0.0122   -0.0038    0.0000
        7 O1     3py       -0.0000    0.0000   -0.0156   -0.0025   -0.0000   -0.0000   -0.0000   -0.0653   -0.0204    0.0000
        8 O1     2pz        0.0356   -0.0315    0.0000    0.0000    0.0133   -0.0590    0.0408   -0.0000   -0.0000    0.0477
        9 O1     3pz       -0.4207    0.7730    0.0000    0.0000   -0.1256   -0.2040    0.3019   -0.0000   -0.0000    0.4037
       10 O1     3d2-      -0.0000   -0.0000   -0.0000    0.0000    0.0000   -0.0000    0.0000    0.0000    0.0000    0.0000
       11 O1     3d1-       0.0000    0.0000    0.0014    0.0002   -0.0000    0.0000    0.0000    0.0097    0.0030   -0.0000
       12 O1     3d0        0.6024    0.3664   -0.0000    0.0000   -0.0156    0.0160    0.5306   -0.0000   -0.0000   -0.4549
       13 O1     3d1+       0.0000    0.0000   -0.0002    0.0014   -0.0000   -0.0000    0.0000   -0.0030    0.0097   -0.0000
       14 O1     3d2+       0.0000    0.0000    0.0000    0.0000    0.0000    0.0000   -0.0000   -0.0000    0.0000    0.0000
       15 FE2    1s        -0.0001    0.0002    0.0000    0.0000   -0.0000   -0.0001    0.0001   -0.0000   -0.0000    0.0001
       16 FE2    2s        -0.0008    0.0014    0.0000    0.0000   -0.0002   -0.0004    0.0006   -0.0000   -0.0000    0.0007
       17 FE2    3s        -0.0047    0.0075    0.0000    0.0000   -0.0013    0.0013    0.0033   -0.0000   -0.0000    0.0037
       18 FE2    4s        -0.0219    0.0349    0.0000    0.0000   -0.0041   -0.3954    0.0387   -0.0000   -0.0000    0.0499
       19 FE2    5s         0.0356   -0.0388    0.0000    0.0000    0.0219   -0.9505    0.0279   -0.0000   -0.0000    0.0393
       20 FE2    2px       -0.0000    0.0000    0.0000   -0.0002    0.0000    0.0000   -0.0000    0.0000   -0.0000    0.0000
       21 FE2    3px        0.0000   -0.0000    0.0028   -0.0178    0.0000   -0.0000    0.0000   -0.0021    0.0067    0.0000
       22 FE2    4px       -0.0000    0.0000    0.0812   -0.5091    0.0000   -0.0000    0.0000   -0.2558    0.8187    0.0000
       23 FE2    5px       -0.0000   -0.0000   -0.1350    0.8462   -0.0000   -0.0000    0.0000   -0.1543    0.4939    0.0000
       24 FE2    2py        0.0000   -0.0000   -0.0002   -0.0000    0.0000    0.0000   -0.0000   -0.0000   -0.0000   -0.0000
       25 FE2    3py        0.0000   -0.0000   -0.0178   -0.0028    0.0000    0.0000    0.0000    0.0067    0.0021    0.0000
       26 FE2    4py       -0.0000    0.0000   -0.5091   -0.0812    0.0000   -0.0000    0.0000    0.8187    0.2558    0.0000
       27 FE2    5py       -0.0000   -0.0000    0.8462    0.1350   -0.0000   -0.0000    0.0000    0.4939    0.1543    0.0000
       28 FE2    2pz       -0.0001    0.0002   -0.0000   -0.0000   -0.0002   -0.0001    0.0001   -0.0000   -0.0000    0.0001
       29 FE2    3pz       -0.0004   -0.0003   -0.0000   -0.0000   -0.0181   -0.0012    0.0064   -0.0000   -0.0000    0.0076
       30 FE2    4pz        0.1624   -0.3025   -0.0000   -0.0000   -0.4546    0.0129    0.5351   -0.0000   -0.0000    0.6500
       31 FE2    5pz        0.0069   -0.0017    0.0000    0.0000    0.8772    0.0089    0.3254   -0.0000   -0.0000    0.3889
       32 FE2    3d2-       0.0000   -0.0000    0.0000    0.0000   -0.0000    0.0000   -0.0000    0.0000   -0.0000   -0.0000
       33 FE2    4d2-       0.0000   -0.0000    0.0000    0.0000   -0.0000    0.0000   -0.0000    0.0000   -0.0000   -0.0000
       34 FE2    3d1-      -0.0000   -0.0000   -0.0001   -0.0000    0.0000    0.0000    0.0000    0.0017    0.0005    0.0000
       35 FE2    4d1-      -0.0000    0.0000   -0.0005   -0.0001   -0.0000   -0.0000    0.0000    0.0105    0.0033    0.0000
       36 FE2    3d0       -0.0005    0.0016   -0.0000    0.0000    0.0001   -0.0036    0.0206   -0.0000   -0.0000   -0.0065
       37 FE2    4d0        0.0168   -0.0165    0.0000    0.0000    0.0071   -0.0161    0.1339   -0.0000   -0.0000   -0.0648
       38 FE2    3d1+      -0.0000   -0.0000    0.0000   -0.0001    0.0000   -0.0000    0.0000   -0.0005    0.0017    0.0000
       39 FE2    4d1+      -0.0000    0.0000    0.0001   -0.0005   -0.0000   -0.0000    0.0000   -0.0033    0.0105    0.0000
       40 FE2    3d2+      -0.0000    0.0000   -0.0000   -0.0000   -0.0000    0.0000   -0.0000    0.0000    0.0000   -0.0000
       41 FE2    4d2+      -0.0000    0.0000    0.0000   -0.0000   -0.0000    0.0000   -0.0000    0.0000    0.0000   -0.0000
       42 FE2    4f3-       0.0000    0.0000    0.0000   -0.0000   -0.0000   -0.0000   -0.0000    0.0000   -0.0000   -0.0000
       43 FE2    4f2-       0.0000   -0.0000    0.0000   -0.0000    0.0000    0.0000    0.0000   -0.0000    0.0000    0.0000
       44 FE2    4f1-      -0.0000    0.0000   -0.0001   -0.0000   -0.0000    0.0000    0.0000    0.0007    0.0002    0.0000
       45 FE2    4f0        0.0007   -0.0007    0.0000   -0.0000    0.0003   -0.0010    0.0071   -0.0000   -0.0000   -0.0023
       46 FE2    4f1+      -0.0000    0.0000    0.0000   -0.0001   -0.0000   -0.0000    0.0000   -0.0002    0.0007   -0.0000
       47 FE2    4f2+      -0.0000    0.0000   -0.0000   -0.0000   -0.0000   -0.0000   -0.0000   -0.0000    0.0000   -0.0000
       48 FE2    4f3+      -0.0000    0.0000   -0.0000   -0.0000    0.0000   -0.0000   -0.0000   -0.0000    0.0000   -0.0000
 
          Orbital           31        32        33        34        35        36        37        38        39        40    
          Energy            0.3109    0.3322    0.2952    0.3556    0.2779    0.2700    0.2705    3.1050    1.9708    1.8837
          Occ. No.          0.0000    0.0000    0.0000    0.0000    0.0000    0.0000    0.0000    0.0000    0.0000    0.0000
 
        1 O1     1s         0.0014   -0.0000    0.0000   -0.0000    0.0000    0.0000    0.0000   -0.0000    0.0000   -0.0000
        2 O1     2s         0.0194   -0.0000    0.0000   -0.0000    0.0000    0.0000    0.0000    0.0000    0.0000   -0.0000
        3 O1     3s        -0.0528    0.0000   -0.0000    0.0000   -0.0000   -0.0000   -0.0000   -0.0011   -0.0000    0.0000
        4 O1     2px       -0.0000   -0.0433    0.0222   -0.0059    0.0065    0.0000    0.0001   -0.0000   -0.0007    0.0048
        5 O1     3px       -0.0000   -0.9346    0.3226   -0.1248    0.0692    0.0017    0.0015   -0.0000   -0.0042    0.0165
        6 O1     2py       -0.0000    0.0053   -0.0054   -0.0473    0.0114    0.0000   -0.0002   -0.0000    0.0065   -0.0018
        7 O1     3py       -0.0000    0.1218   -0.0471   -0.9844    0.0936   -0.0003   -0.0027   -0.0000    0.0447   -0.0161
        8 O1     2pz       -0.0327    0.0000   -0.0000    0.0000   -0.0000   -0.0000   -0.0000   -0.0008   -0.0000    0.0000
        9 O1     3pz       -0.1118    0.0000   -0.0000    0.0000   -0.0000   -0.0000   -0.0000   -0.0032   -0.0000    0.0000
       10 O1     3d2-      -0.0000    0.0001    0.0005   -0.0007   -0.0026   -0.0005    0.0029    0.0000   -0.1510    0.5310
       11 O1     3d1-       0.0000   -0.0090    0.0087    0.0571   -0.0155    0.0050   -0.0148   -0.0000    0.7448   -0.1772
       12 O1     3d0        0.1207   -0.0000    0.0000   -0.0000    0.0000    0.0000    0.0000    0.0026   -0.0000   -0.0000
       13 O1     3d1+      -0.0000    0.0210   -0.0131   -0.0051   -0.0042   -0.0069    0.0050    0.0000   -0.0836    0.6881
       14 O1     3d2+       0.0000   -0.0000   -0.0000    0.0001    0.0001    0.0000    0.0018   -0.0000    0.5834    0.4606
       15 FE2    1s        -0.0000    0.0000   -0.0000    0.0000   -0.0000   -0.0000   -0.0000   -0.0000   -0.0000    0.0000
       16 FE2    2s        -0.0002    0.0000   -0.0000    0.0000   -0.0000   -0.0000   -0.0000   -0.0000   -0.0000    0.0000
       17 FE2    3s        -0.0011    0.0000   -0.0000    0.0000   -0.0000   -0.0000   -0.0000   -0.0000   -0.0000    0.0000
       18 FE2    4s        -0.0116    0.0000   -0.0000    0.0000   -0.0000   -0.0000   -0.0000   -0.0003   -0.0000    0.0000
       19 FE2    5s        -0.0068    0.0000   -0.0000    0.0000   -0.0000   -0.0000   -0.0000   -0.0002    0.0000   -0.0000
       20 FE2    2px        0.0000    0.0000   -0.0000    0.0000   -0.0000   -0.0000   -0.0000    0.0000    0.0000   -0.0000
[...]
      E2 (Variational):          -0.3815475879
      Total energy:           -1345.8289329788
      Residual norm:              0.0000008122
      Reference weight:           0.93832
 
      Contributions to the CASPT2 correlation energy
      Active & Virtual Only:         -0.0942535252
      One Inactive Excited:          -0.1941691243
      Two Inactive Excited:          -0.0931249034
 
 
++ Denominators, etc.
----------------------------------------------------------------------------------------------------
 Report on small energy denominators, large coefficients, and large energy contributions.
CASE  SYMM ACTIVE-MIX  NON-ACTIVE INDICES          DENOMINATOR     RHS VALUE       COEFFICIENT     CONTRIBUTION
VJTU     1  Mu1.0001  In1.011                       0.27974756     -0.00000000      0.00000000     -0.00000000
VJTU     1  Mu1.0002  In1.011                       0.27975223     -0.00000000      0.00000000     -0.00000000
VJTU     1  Mu1.0003  In1.011                       0.28040363     -0.00000067     -0.00000052      0.00000000
VJTU     1  Mu1.0004  In1.011                       0.28041011     -0.00000162     -0.00000127      0.00000000
VJTU     1  Mu1.0005  In1.011                       0.29650470      0.00000000     -0.00000000     -0.00000000
VJTU     1  Mu1.0006  In1.011                       0.29650472      0.00000000     -0.00000000     -0.00000000
ATVX     1  Mu1.0001  Se1.026                      -0.23097922      0.00000000      0.00000000      0.00000000
ATVX     1  Mu1.0002  Se1.026                      -0.21450267     -0.00000000     -0.00000000      0.00000000
ATVX     1  Mu1.0003  Se1.026                      -0.21449806      0.00000000      0.00000000      0.00000000
ATVX     1  Mu1.0004  Se1.026                      -0.17603634      0.00000000      0.00000000      0.00000000
ATVX     1  Mu1.0005  Se1.026                      -0.10628100     -0.00000000     -0.00000000      0.00000000
ATVX     1  Mu1.0006  Se1.026                      -0.10628096      0.00000000      0.00000000      0.00000000
ATVX     1  Mu1.0007  Se1.026                       0.15286319     -0.00000000      0.00000000     -0.00000000
ATVX     1  Mu1.0008  Se1.026                       0.15286319      0.00000000     -0.00000000     -0.00000000
ATVX     1  Mu1.0009  Se1.026                       0.16797507     -0.00000110      0.00005202     -0.00000000
ATVX     1  Mu1.0010  Se1.026                       0.16798712     -0.00000547      0.00025990     -0.00000000
ATVX     1  Mu1.0011  Se1.026                       0.17002078     -0.00000000      0.00000000     -0.00000000
ATVX     1  Mu1.0012  Se1.026                       0.17002078     -0.00000000      0.00000000     -0.00000000
ATVX     1  Mu1.0013  Se1.026                       0.17064462     -0.00000000      0.00000006     -0.00000000
ATVX     1  Mu1.0014  Se1.026                       0.17065027     -0.00000000      0.00000003     -0.00000000
ATVX     1  Mu1.0015  Se1.026                       0.18039233      0.00000258     -0.00002687     -0.00000000
ATVX     1  Mu1.0016  Se1.026                       0.18052603      0.00000005     -0.00000053     -0.00000000
ATVX     1  Mu1.0017  Se1.026                       0.18951512     -0.00000152      0.00000121     -0.00000000
ATVX     1  Mu1.0018  Se1.026                       0.18952936      0.00000026     -0.00000021     -0.00000000
ATVX     1  Mu1.0019  Se1.026                       0.19146293      0.00000000     -0.00000000     -0.00000000
ATVX     1  Mu1.0020  Se1.026                       0.19146970      0.00000000     -0.00000000     -0.00000000
ATVX     1  Mu1.0021  Se1.026                       0.19176474     -0.00000000      0.00000000     -0.00000000
ATVX     1  Mu1.0022  Se1.026                       0.19176481     -0.00000000      0.00000000     -0.00000000
ATVX     1  Mu1.0023  Se1.026                       0.20043604     -0.00000000      0.00000000     -0.00000000
ATVX     1  Mu1.0024  Se1.026                       0.20044593     -0.00000000      0.00000000     -0.00000000
ATVX     1  Mu1.0025  Se1.026                       0.20428623     -0.00000000      0.00000000     -0.00000000
ATVX     1  Mu1.0026  Se1.026                       0.20442124     -0.00000000     -0.00000000      0.00000000
ATVX     1  Mu1.0027  Se1.026                       0.21048584      0.00000000     -0.00000000     -0.00000000
ATVX     1  Mu1.0028  Se1.026                       0.21048585      0.00000000     -0.00000000     -0.00000000
ATVX     1  Mu1.0029  Se1.026                       0.21447774     -0.00000000      0.00000000     -0.00000000
ATVX     1  Mu1.0030  Se1.026                       0.22680823      0.00000000     -0.00000000     -0.00000000
ATVX     1  Mu1.0031  Se1.026                       0.22681709      0.00000000     -0.00000000     -0.00000000
ATVX     1  Mu1.0032  Se1.026                       0.23832012     -0.00000000     -0.00000000      0.00000000
ATVX     1  Mu1.0033  Se1.026                       0.23833286     -0.00000000      0.00000000     -0.00000000
ATVX     1  Mu1.0034  Se1.026                       0.23983344      0.00000727     -0.00002303     -0.00000000
ATVX     1  Mu1.0035  Se1.026                       0.23983876      0.00000423     -0.00001342     -0.00000000
ATVX     1  Mu1.0036  Se1.026                       0.24052287     -0.00000000      0.00000000     -0.00000000
ATVX     1  Mu1.0037  Se1.026                       0.24059056     -0.00000000      0.00000000     -0.00000000
ATVX     1  Mu1.0038  Se1.026                       0.25133998     -0.00000000      0.00000000     -0.00000000
ATVX     1  Mu1.0039  Se1.026                       0.25134486     -0.00000000      0.00000000     -0.00000000
ATVX     1  Mu1.0040  Se1.026                       0.26299689     -0.00098748      0.00364080     -0.00000360
ATVX     1  Mu1.0041  Se1.026                       0.26489954      0.00000013     -0.00000084     -0.00000000
ATVX     1  Mu1.0042  Se1.026                       0.26504967      0.00000000     -0.00000001     -0.00000000
ATVX     1  Mu1.0043  Se1.026                       0.27754576      0.00000000     -0.00000000     -0.00000000
ATVX     1  Mu1.0044  Se1.026                       0.27754577     -0.00000000      0.00000000     -0.00000000
ATVX     1  Mu1.0001  Se1.027                      -0.06774407     -0.00000000      0.00000000     -0.00000000
ATVX     1  Mu1.0002  Se1.027                      -0.05126752     -0.00000000     -0.00000000      0.00000000
ATVX     1  Mu1.0003  Se1.027                      -0.05126290      0.00000084     -0.00001392     -0.00000000
ATVX     1  Mu1.0004  Se1.027                      -0.01280118      0.00000000     -0.00000000     -0.00000000
ATVX     1  Mu1.0005  Se1.027                       0.05695416     -0.00000353     -0.00008585      0.00000000
ATVX     1  Mu1.0006  Se1.027                       0.05695420      0.00003000      0.00072899      0.00000002
ATVX     1  Mu1.0001  Se1.028                      -0.06774306     -0.00000000     -0.00000000      0.00000000
ATVX     1  Mu1.0002  Se1.028                      -0.05126651      0.00000084     -0.00001392     -0.00000000
ATVX     1  Mu1.0003  Se1.028                      -0.05126190      0.00000000      0.00000000      0.00000000
ATVX     1  Mu1.0004  Se1.028                      -0.01280018      0.00000000      0.00000000      0.00000000
ATVX     1  Mu1.0005  Se1.028                       0.05695516      0.00003000      0.00072898      0.00000002
ATVX     1  Mu1.0006  Se1.028                       0.05695520      0.00000353      0.00008585      0.00000000
ATVX     1  Mu1.0001  Se1.029                      -0.05644207     -0.00000000     -0.00000000      0.00000000
ATVX     1  Mu1.0002  Se1.029                      -0.03996553      0.00000000      0.00000000      0.00000000
ATVX     1  Mu1.0003  Se1.029                      -0.03996091     -0.00000000     -0.00000000      0.00000000
ATVX     1  Mu1.0004  Se1.029                      -0.00149919     -0.00000000     -0.00000002      0.00000000
ATVX     1  Mu1.0005  Se1.029                       0.06825615      0.00000000     -0.00000000     -0.00000000
ATVX     1  Mu1.0006  Se1.029                       0.06825619     -0.00000000      0.00000000     -0.00000000
ATVX     1  Mu1.0001  Se1.030                       0.10853171      0.00000000     -0.00000000     -0.00000000
ATVX     1  Mu1.0002  Se1.030                       0.12500826     -0.00000000      0.00000000     -0.00000000
ATVX     1  Mu1.0003  Se1.030                       0.12501287      0.00000000     -0.00000000     -0.00000000
ATVX     1  Mu1.0004  Se1.030                       0.16347459      0.00000000     -0.00000000     -0.00000000
ATVX     1  Mu1.0005  Se1.030                       0.23322993     -0.00000000      0.00000000     -0.00000000
ATVX     1  Mu1.0006  Se1.030                       0.23322997      0.00000000     -0.00000000     -0.00000000
ATVX     1  Mu1.0216  Se1.031                       2.19639449     -0.06170551      0.02927999     -0.00180674
ATVX     1  Mu1.0274  Se1.031                       2.29621641     -0.06656345      0.02945498     -0.00196063
ATVX     1  Mu1.0217  Se1.032                       2.19639452      0.06170550     -0.02927998     -0.00180674
ATVX     1  Mu1.0275  Se1.032                       2.29621645      0.06656344     -0.02945498     -0.00196062
AIVX     1  Mu1.0148  In1.011 Se1.033               3.39188896     -0.08667523      0.02573192     -0.00223032
AIVX     1  Mu1.0169  In1.009 Se1.034               6.56390122     -0.17827466      0.02716005     -0.00484195
AIVX     1  Mu1.0169  In1.010 Se1.035               6.56390291     -0.17827575      0.02716021     -0.00484201
AIVX     1  Mu1.0027  In1.011 Se1.037               3.47196638      0.11520495     -0.03181380     -0.00366511
AIVX     1  Mu1.0028  In1.011 Se1.037               3.47196638      0.09230318     -0.02548949     -0.00235276
AIVX     1  Mu1.0057  In1.011 Se1.038               3.72192421      0.14753284     -0.03809081     -0.00561964
AIVX     1  Mu1.0035  In1.011 Se1.041               3.52049522     -0.09489938      0.02579110     -0.00244756
BVATM    1  Mu1.0001  Se1.032 Se1.031               1.96599301      0.07156244     -0.03670238     -0.00262651
BVATM    1  Mu1.0001  Se1.038 Se1.037               5.01091261     -0.12965822      0.02587518     -0.00335493
BJATP    1  Mu1.0002  In1.011 Se1.033 Se1.031       2.95927542      0.08224736     -0.02766000     -0.00227496
BJATP    1  Mu1.0001  In1.011 Se1.033 Se1.032       2.95927544     -0.08224736      0.02766000     -0.00227496
BJATM    1  Mu1.0002  In1.011 Se1.033 Se1.031       2.95927542     -0.07803996      0.02825966     -0.00220538
BJATM    1  Mu1.0001  In1.011 Se1.033 Se1.032       2.95927544      0.07803996     -0.02825966     -0.00220538
BJAIP    1  Se1.033 In1.011 Se1.033 In1.011         3.95251683      0.12097805     -0.03272553     -0.00395907
--
 
   (Skipping property calculation,
    use PROP keyword to activate)
--
 
  Total CASPT2 energies:
::    CASPT2 Root  1     Total energy:  -1345.82893298
 
  A NEW JOBIPH FILE NAMED 'JOBMIX' IS PREPARED.
********************************************************************************
--- Stop Module: caspt2 at Wed Dec 18 03:26:08 2024 /rc=_RC_ALL_IS_WELL_ ---
*** files: xmldump
    saved to directory /home/grierjones/DDCASPT2/iron_oxo_DDCASPT2/cluster/4.64
--- Module caspt2 spent 5 minutes 29 seconds ---

>>> EXPORT i = B

>>> EXPORT j = P

>>> IF (-FILE GMJ_e2_${i}_${j}.csv)

>>> COPY /tmp/4.64/GMJ_RHS_B_P.csv /home/grierjones/DDCASPT2/iron_oxo_DDCASPT2/cluster/4.64/GMJ_RHS_B_P.csv

>>> COPY /tmp/4.64/GMJ_IVECW_B_P.csv /home/grierjones/DDCASPT2/iron_oxo_DDCASPT2/cluster/4.64/GMJ_IVECW_B_P.csv

>>> COPY /tmp/4.64/GMJ_IVECX_B_P.csv /home/grierjones/DDCASPT2/iron_oxo_DDCASPT2/cluster/4.64/GMJ_IVECX_B_P.csv

>>> COPY /tmp/4.64/GMJ_IVECC2_B_P.csv /home/grierjones/DDCASPT2/iron_oxo_DDCASPT2/cluster/4.64/GMJ_IVECC2_B_P.csv

>>> COPY /tmp/4.64/GMJ_e2_B_P.csv /home/grierjones/DDCASPT2/iron_oxo_DDCASPT2/cluster/4.64/GMJ_e2_B_P.csv

>>> END FOREACH

>>> EXPORT j = M

>>> IF (-FILE GMJ_e2_${i}_${j}.csv)

>>> COPY /tmp/4.64/GMJ_RHS_B_M.csv /home/grierjones/DDCASPT2/iron_oxo_DDCASPT2/cluster/4.64/GMJ_RHS_B_M.csv

>>> COPY /tmp/4.64/GMJ_IVECW_B_M.csv /home/grierjones/DDCASPT2/iron_oxo_DDCASPT2/cluster/4.64/GMJ_IVECW_B_M.csv

>>> COPY /tmp/4.64/GMJ_IVECX_B_M.csv /home/grierjones/DDCASPT2/iron_oxo_DDCASPT2/cluster/4.64/GMJ_IVECX_B_M.csv

>>> COPY /tmp/4.64/GMJ_IVECC2_B_M.csv /home/grierjones/DDCASPT2/iron_oxo_DDCASPT2/cluster/4.64/GMJ_IVECC2_B_M.csv

>>> COPY /tmp/4.64/GMJ_e2_B_M.csv /home/grierjones/DDCASPT2/iron_oxo_DDCASPT2/cluster/4.64/GMJ_e2_B_M.csv

>>> END FOREACH

>>> END FOREACH

>>> EXPORT i = E

>>> EXPORT j = P

>>> IF (-FILE GMJ_e2_${i}_${j}.csv)

>>> COPY /tmp/4.64/GMJ_RHS_E_P.csv /home/grierjones/DDCASPT2/iron_oxo_DDCASPT2/cluster/4.64/GMJ_RHS_E_P.csv

>>> COPY /tmp/4.64/GMJ_IVECW_E_P.csv /home/grierjones/DDCASPT2/iron_oxo_DDCASPT2/cluster/4.64/GMJ_IVECW_E_P.csv

>>> COPY /tmp/4.64/GMJ_IVECX_E_P.csv /home/grierjones/DDCASPT2/iron_oxo_DDCASPT2/cluster/4.64/GMJ_IVECX_E_P.csv

>>> COPY /tmp/4.64/GMJ_IVECC2_E_P.csv /home/grierjones/DDCASPT2/iron_oxo_DDCASPT2/cluster/4.64/GMJ_IVECC2_E_P.csv

>>> COPY /tmp/4.64/GMJ_e2_E_P.csv /home/grierjones/DDCASPT2/iron_oxo_DDCASPT2/cluster/4.64/GMJ_e2_E_P.csv

>>> END FOREACH

>>> EXPORT j = M

>>> IF (-FILE GMJ_e2_${i}_${j}.csv)

>>> COPY /tmp/4.64/GMJ_RHS_E_M.csv /home/grierjones/DDCASPT2/iron_oxo_DDCASPT2/cluster/4.64/GMJ_RHS_E_M.csv

>>> COPY /tmp/4.64/GMJ_IVECW_E_M.csv /home/grierjones/DDCASPT2/iron_oxo_DDCASPT2/cluster/4.64/GMJ_IVECW_E_M.csv

>>> COPY /tmp/4.64/GMJ_IVECX_E_M.csv /home/grierjones/DDCASPT2/iron_oxo_DDCASPT2/cluster/4.64/GMJ_IVECX_E_M.csv

>>> COPY /tmp/4.64/GMJ_IVECC2_E_M.csv /home/grierjones/DDCASPT2/iron_oxo_DDCASPT2/cluster/4.64/GMJ_IVECC2_E_M.csv

>>> COPY /tmp/4.64/GMJ_e2_E_M.csv /home/grierjones/DDCASPT2/iron_oxo_DDCASPT2/cluster/4.64/GMJ_e2_E_M.csv

>>> END FOREACH

>>> END FOREACH

>>> EXPORT i = F

>>> EXPORT j = P

>>> IF (-FILE GMJ_e2_${i}_${j}.csv)

>>> COPY /tmp/4.64/GMJ_RHS_F_P.csv /home/grierjones/DDCASPT2/iron_oxo_DDCASPT2/cluster/4.64/GMJ_RHS_F_P.csv

>>> COPY /tmp/4.64/GMJ_IVECW_F_P.csv /home/grierjones/DDCASPT2/iron_oxo_DDCASPT2/cluster/4.64/GMJ_IVECW_F_P.csv

>>> COPY /tmp/4.64/GMJ_IVECX_F_P.csv /home/grierjones/DDCASPT2/iron_oxo_DDCASPT2/cluster/4.64/GMJ_IVECX_F_P.csv

>>> COPY /tmp/4.64/GMJ_IVECC2_F_P.csv /home/grierjones/DDCASPT2/iron_oxo_DDCASPT2/cluster/4.64/GMJ_IVECC2_F_P.csv

>>> COPY /tmp/4.64/GMJ_e2_F_P.csv /home/grierjones/DDCASPT2/iron_oxo_DDCASPT2/cluster/4.64/GMJ_e2_F_P.csv

>>> END FOREACH

>>> EXPORT j = M

>>> IF (-FILE GMJ_e2_${i}_${j}.csv)

>>> COPY /tmp/4.64/GMJ_RHS_F_M.csv /home/grierjones/DDCASPT2/iron_oxo_DDCASPT2/cluster/4.64/GMJ_RHS_F_M.csv

>>> COPY /tmp/4.64/GMJ_IVECW_F_M.csv /home/grierjones/DDCASPT2/iron_oxo_DDCASPT2/cluster/4.64/GMJ_IVECW_F_M.csv

>>> COPY /tmp/4.64/GMJ_IVECX_F_M.csv /home/grierjones/DDCASPT2/iron_oxo_DDCASPT2/cluster/4.64/GMJ_IVECX_F_M.csv

>>> COPY /tmp/4.64/GMJ_IVECC2_F_M.csv /home/grierjones/DDCASPT2/iron_oxo_DDCASPT2/cluster/4.64/GMJ_IVECC2_F_M.csv

>>> COPY /tmp/4.64/GMJ_e2_F_M.csv /home/grierjones/DDCASPT2/iron_oxo_DDCASPT2/cluster/4.64/GMJ_e2_F_M.csv

>>> END FOREACH

>>> END FOREACH

>>> EXPORT i = G

>>> EXPORT j = P

>>> IF (-FILE GMJ_e2_${i}_${j}.csv)

>>> COPY /tmp/4.64/GMJ_RHS_G_P.csv /home/grierjones/DDCASPT2/iron_oxo_DDCASPT2/cluster/4.64/GMJ_RHS_G_P.csv

>>> COPY /tmp/4.64/GMJ_IVECW_G_P.csv /home/grierjones/DDCASPT2/iron_oxo_DDCASPT2/cluster/4.64/GMJ_IVECW_G_P.csv

>>> COPY /tmp/4.64/GMJ_IVECX_G_P.csv /home/grierjones/DDCASPT2/iron_oxo_DDCASPT2/cluster/4.64/GMJ_IVECX_G_P.csv

>>> COPY /tmp/4.64/GMJ_IVECC2_G_P.csv /home/grierjones/DDCASPT2/iron_oxo_DDCASPT2/cluster/4.64/GMJ_IVECC2_G_P.csv

>>> COPY /tmp/4.64/GMJ_e2_G_P.csv /home/grierjones/DDCASPT2/iron_oxo_DDCASPT2/cluster/4.64/GMJ_e2_G_P.csv

>>> END FOREACH

>>> EXPORT j = M

>>> IF (-FILE GMJ_e2_${i}_${j}.csv)

>>> COPY /tmp/4.64/GMJ_RHS_G_M.csv /home/grierjones/DDCASPT2/iron_oxo_DDCASPT2/cluster/4.64/GMJ_RHS_G_M.csv

>>> COPY /tmp/4.64/GMJ_IVECW_G_M.csv /home/grierjones/DDCASPT2/iron_oxo_DDCASPT2/cluster/4.64/GMJ_IVECW_G_M.csv

>>> COPY /tmp/4.64/GMJ_IVECX_G_M.csv /home/grierjones/DDCASPT2/iron_oxo_DDCASPT2/cluster/4.64/GMJ_IVECX_G_M.csv

>>> COPY /tmp/4.64/GMJ_IVECC2_G_M.csv /home/grierjones/DDCASPT2/iron_oxo_DDCASPT2/cluster/4.64/GMJ_IVECC2_G_M.csv

>>> COPY /tmp/4.64/GMJ_e2_G_M.csv /home/grierjones/DDCASPT2/iron_oxo_DDCASPT2/cluster/4.64/GMJ_e2_G_M.csv

>>> END FOREACH

>>> END FOREACH

>>> EXPORT i = H

>>> EXPORT j = P

>>> IF (-FILE GMJ_e2_${i}_${j}.csv)

>>> COPY /tmp/4.64/GMJ_RHS_H_P.csv /home/grierjones/DDCASPT2/iron_oxo_DDCASPT2/cluster/4.64/GMJ_RHS_H_P.csv

>>> COPY /tmp/4.64/GMJ_IVECW_H_P.csv /home/grierjones/DDCASPT2/iron_oxo_DDCASPT2/cluster/4.64/GMJ_IVECW_H_P.csv

>>> COPY /tmp/4.64/GMJ_IVECX_H_P.csv /home/grierjones/DDCASPT2/iron_oxo_DDCASPT2/cluster/4.64/GMJ_IVECX_H_P.csv

>>> COPY /tmp/4.64/GMJ_IVECC2_H_P.csv /home/grierjones/DDCASPT2/iron_oxo_DDCASPT2/cluster/4.64/GMJ_IVECC2_H_P.csv

>>> COPY /tmp/4.64/GMJ_e2_H_P.csv /home/grierjones/DDCASPT2/iron_oxo_DDCASPT2/cluster/4.64/GMJ_e2_H_P.csv

>>> END FOREACH

>>> EXPORT j = M

>>> IF (-FILE GMJ_e2_${i}_${j}.csv)

>>> COPY /tmp/4.64/GMJ_RHS_H_M.csv /home/grierjones/DDCASPT2/iron_oxo_DDCASPT2/cluster/4.64/GMJ_RHS_H_M.csv

>>> COPY /tmp/4.64/GMJ_IVECW_H_M.csv /home/grierjones/DDCASPT2/iron_oxo_DDCASPT2/cluster/4.64/GMJ_IVECW_H_M.csv

>>> COPY /tmp/4.64/GMJ_IVECX_H_M.csv /home/grierjones/DDCASPT2/iron_oxo_DDCASPT2/cluster/4.64/GMJ_IVECX_H_M.csv

>>> COPY /tmp/4.64/GMJ_IVECC2_H_M.csv /home/grierjones/DDCASPT2/iron_oxo_DDCASPT2/cluster/4.64/GMJ_IVECC2_H_M.csv

>>> COPY /tmp/4.64/GMJ_e2_H_M.csv /home/grierjones/DDCASPT2/iron_oxo_DDCASPT2/cluster/4.64/GMJ_e2_H_M.csv

>>> END FOREACH

>>> END FOREACH

>>> EXPORT i = A

>>> IF (-FILE GMJ_e2_$i.csv)

>>> COPY /tmp/4.64/GMJ_RHS_A.csv /home/grierjones/DDCASPT2/iron_oxo_DDCASPT2/cluster/4.64/GMJ_RHS_A.csv

>>> COPY /tmp/4.64/GMJ_IVECW_A.csv /home/grierjones/DDCASPT2/iron_oxo_DDCASPT2/cluster/4.64/GMJ_IVECW_A.csv

>>> COPY /tmp/4.64/GMJ_IVECX_A.csv /home/grierjones/DDCASPT2/iron_oxo_DDCASPT2/cluster/4.64/GMJ_IVECX_A.csv

>>> COPY /tmp/4.64/GMJ_IVECC2_A.csv /home/grierjones/DDCASPT2/iron_oxo_DDCASPT2/cluster/4.64/GMJ_IVECC2_A.csv

>>> COPY /tmp/4.64/GMJ_e2_A.csv /home/grierjones/DDCASPT2/iron_oxo_DDCASPT2/cluster/4.64/GMJ_e2_A.csv

>>> END FOREACH

>>> EXPORT i = C

>>> IF (-FILE GMJ_e2_$i.csv)

>>> COPY /tmp/4.64/GMJ_RHS_C.csv /home/grierjones/DDCASPT2/iron_oxo_DDCASPT2/cluster/4.64/GMJ_RHS_C.csv

>>> COPY /tmp/4.64/GMJ_IVECW_C.csv /home/grierjones/DDCASPT2/iron_oxo_DDCASPT2/cluster/4.64/GMJ_IVECW_C.csv

>>> COPY /tmp/4.64/GMJ_IVECX_C.csv /home/grierjones/DDCASPT2/iron_oxo_DDCASPT2/cluster/4.64/GMJ_IVECX_C.csv

>>> COPY /tmp/4.64/GMJ_IVECC2_C.csv /home/grierjones/DDCASPT2/iron_oxo_DDCASPT2/cluster/4.64/GMJ_IVECC2_C.csv

>>> COPY /tmp/4.64/GMJ_e2_C.csv /home/grierjones/DDCASPT2/iron_oxo_DDCASPT2/cluster/4.64/GMJ_e2_C.csv

>>> END FOREACH

>>> EXPORT i = D

>>> IF (-FILE GMJ_e2_$i.csv)

>>> COPY /tmp/4.64/GMJ_RHS_D.csv /home/grierjones/DDCASPT2/iron_oxo_DDCASPT2/cluster/4.64/GMJ_RHS_D.csv

>>> COPY /tmp/4.64/GMJ_IVECW_D.csv /home/grierjones/DDCASPT2/iron_oxo_DDCASPT2/cluster/4.64/GMJ_IVECW_D.csv

>>> COPY /tmp/4.64/GMJ_IVECX_D.csv /home/grierjones/DDCASPT2/iron_oxo_DDCASPT2/cluster/4.64/GMJ_IVECX_D.csv

>>> COPY /tmp/4.64/GMJ_IVECC2_D.csv /home/grierjones/DDCASPT2/iron_oxo_DDCASPT2/cluster/4.64/GMJ_IVECC2_D.csv

>>> COPY /tmp/4.64/GMJ_e2_D.csv /home/grierjones/DDCASPT2/iron_oxo_DDCASPT2/cluster/4.64/GMJ_e2_D.csv

>>> END FOREACH

.########################.
.# Non-zero return code #.
.########################.

    Timing: Wall=414.34 User=410.87 System=3.34
************************************
*** WorkDir at /tmp/4.64 cleaned ***
************************************
