[Molden Format]
[N_Atoms]
                     2
[Atoms] (AU)
B1          1      5           0.00000000      0.00000000      0.00000000
F2          2      9           0.00000000      0.00000000      2.83458919
[Charge] (Mulliken)
  0.000000000000000E+000
  0.000000000000000E+000
[GTO] (AU)
   1
   s  14
  3.336021700E+04  1.039699991E-04
  4.972095200E+03  5.254399956E-04
  1.125641700E+03  2.509059979E-03
  3.164913600E+02  1.031887991E-02
  1.020072600E+02  3.636632969E-02
  3.629587300E+01  1.064607991E-01
  1.397141000E+01  2.403999880E-01
  5.741156000E+00  3.748581168E-01
  2.494268000E+00  3.100066974E-01
  1.114202000E+00  7.922455933E-02
  4.215490000E-01 -4.947589958E-03
  1.696330000E-01 -7.737119935E-03
  6.853500000E-02 -1.501079987E-03
  2.398700000E-02 -1.333299989E-04
   s  14
  3.336021700E+04 -2.030000008E-05
  4.972095200E+03 -1.025700004E-04
  1.125641700E+03 -4.911300020E-04
  3.164913600E+02 -2.026570008E-03
  1.020072600E+02 -7.261010030E-03
  3.629587300E+01 -2.197722009E-02
  1.397141000E+01 -5.408428022E-02
  5.741156000E+00 -1.022402604E-01
  2.494268000E+00 -1.423595206E-01
  1.114202000E+00 -4.658690019E-02
  4.215490000E-01  3.799402916E-01
  1.696330000E-01  5.890463624E-01
  6.853500000E-02  1.749075107E-01
  2.398700000E-02 -1.142030005E-03
   p   9
  5.500000000E+01  1.229800005E-03
  1.336610100E+01  8.827380035E-03
  4.135394000E+00  3.843340015E-02
  1.481256000E+00  1.150031805E-01
  6.021360000E-01  2.733674011E-01
  2.556360000E-01  4.061972116E-01
  1.111510000E-01  3.014967912E-01
  4.764800000E-02  7.684809030E-02
  1.667700000E-02 -8.170000032E-06
 
   2
   s  14
  1.031094600E+05  1.713099991E-04
  1.528100700E+04  7.123999962E-04
  3.441539200E+03  2.990479984E-03
  9.670948300E+02  1.164036994E-02
  3.140353400E+02  3.968642979E-02
  1.134423000E+02  1.128546094E-01
  4.464472700E+01  2.473650687E-01
  1.894287400E+01  3.672702681E-01
  8.532743000E+00  2.896286985E-01
  3.919401000E+00  7.786681959E-02
  1.568157000E+00  4.562139976E-03
  6.232900000E-01  2.468879987E-03
  2.408610000E-01  1.106309994E-03
  8.430100000E-02  1.739699991E-04
   s  14
  1.031094600E+05 -4.044999995E-05
  1.528100700E+04 -1.682299998E-04
  3.441539200E+03 -7.084299991E-04
  9.670948300E+02 -2.767999996E-03
  3.140353400E+02 -9.611379987E-03
  1.134423000E+02 -2.833957996E-02
  4.464472700E+01 -6.839343991E-02
  1.894287400E+01 -1.237379298E-01
  8.532743000E+00 -1.512859698E-01
  3.919401000E+00 -9.099909988E-03
  1.568157000E+00  3.716257695E-01
  6.232900000E-01  5.500214393E-01
  2.408610000E-01  2.092318697E-01
  8.430100000E-02  8.074639989E-03
   p   9
  2.453302900E+02  1.024860004E-03
  5.691900500E+01  8.344290032E-03
  1.760456800E+01  4.078927016E-02
  6.274995000E+00  1.351370605E-01
  2.447030000E+00  2.798830811E-01
  9.950600000E-01  3.597966414E-01
  4.039730000E-01  3.055347412E-01
  1.548100000E-01  1.354703905E-01
  5.418400000E-02  2.804449011E-02
 
[MO]
Sym=     1a  
Ene=   -26.4090
Spin= Alpha
Occup=    2.00000
   1        -0.00008730
   2         0.00050441
   3         0.00000000
   4         0.00000000
   5         0.00057178
   6         0.99995891
   7         0.00002251
   8        -0.00000000
   9        -0.00000000
  10        -0.00000723
Sym=     2a  
Ene=    -7.6985
Spin= Alpha
Occup=    2.00000
   1         0.99969198
   2         0.00015913
   3         0.00000000
   4        -0.00000000
   5         0.00010464
   6         0.00028744
   7         0.00362413
   8        -0.00000000
   9         0.00000000
  10        -0.00499685
Sym=     3a  
Ene=    -1.6791
Spin= Alpha
Occup=    2.00000
   1        -0.01879279
   2         0.10679536
   3         0.00000000
   4        -0.00000000
   5         0.08368535
   6        -0.00730688
   7         0.92962747
   8        -0.00000000
   9         0.00000000
  10        -0.03532178
Sym=     4a  
Ene=    -0.8061
Spin= Alpha
Occup=    2.00000
   1         0.04298542
   2        -0.28562615
   3        -0.00000000
   4        -0.00000000
   5        -0.06577816
   6         0.01105139
   7         0.20605025
   8        -0.00000000
   9         0.00000000
  10         0.86969030
Sym=     5a  
Ene=    -0.7523
Spin= Alpha
Occup=    2.00000
   1        -0.00000000
   2        -0.00000000
   3        -0.09242663
   4         0.10137942
   5         0.00000000
   6         0.00000000
   7         0.00000000
   8        -0.64892719
   9         0.71178471
  10        -0.00000000
Sym=     6a  
Ene=    -0.7523
Spin= Alpha
Occup=    2.00000
   1         0.00000000
   2        -0.00000000
   3         0.10137942
   4         0.09242663
   5         0.00000000
   6         0.00000000
   7         0.00000000
   8         0.71178471
   9         0.64892719
  10         0.00000000
Sym=     7a  
Ene=    -0.4191
Spin= Alpha
Occup=    2.00000
   1         0.02153705
   2         0.91550316
   3        -0.00000000
   4         0.00000000
   5        -0.38319293
   6        -0.00589364
   7        -0.12830254
   8        -0.00000000
   9         0.00000000
  10         0.39043102
Sym=     8a  
Ene=    -0.2898
Spin= Alpha
Occup=    0.00000
   1         0.00000000
   2         0.00000000
   3         0.81090990
   4         0.60516961
   5        -0.00000000
   6         0.00000000
   7         0.00000000
   8        -0.27163718
   9        -0.20271866
  10         0.00000000
Sym=     9a  
Ene=    -0.2898
Spin= Alpha
Occup=    0.00000
   1        -0.00000000
   2        -0.00000000
   3        -0.60516961
   4         0.81090990
   5        -0.00000000
   6         0.00000000
   7         0.00000000
   8         0.20271866
   9        -0.27163718
  10        -0.00000000
Sym=    10a  
Ene=    -0.2054
Spin= Alpha
Occup=    0.00000
   1         0.03454222
   2         0.53290317
   3        -0.00000000
   4         0.00000000
   5         1.06760133
   6        -0.06582125
   7        -0.63984326
   8        -0.00000000
   9         0.00000000
  10         0.51887628
