[Molden Format]
[N_Atoms]
                     2
[Atoms] (AU)
B1          1      5           0.00000000      0.00000000      0.00000000
F2          2      9           0.00000000      0.00000000      2.83458919
[Charge] (Mulliken)
   2.00808422729779     
 -8.084227297802116E-003
[GTO] (AU)
   1
   s  14
  3.336021700E+04  1.039699991E-04
  4.972095200E+03  5.254399956E-04
  1.125641700E+03  2.509059979E-03
  3.164913600E+02  1.031887991E-02
  1.020072600E+02  3.636632969E-02
  3.629587300E+01  1.064607991E-01
  1.397141000E+01  2.403999880E-01
  5.741156000E+00  3.748581168E-01
  2.494268000E+00  3.100066974E-01
  1.114202000E+00  7.922455933E-02
  4.215490000E-01 -4.947589958E-03
  1.696330000E-01 -7.737119935E-03
  6.853500000E-02 -1.501079987E-03
  2.398700000E-02 -1.333299989E-04
   s  14
  3.336021700E+04 -2.030000008E-05
  4.972095200E+03 -1.025700004E-04
  1.125641700E+03 -4.911300020E-04
  3.164913600E+02 -2.026570008E-03
  1.020072600E+02 -7.261010030E-03
  3.629587300E+01 -2.197722009E-02
  1.397141000E+01 -5.408428022E-02
  5.741156000E+00 -1.022402604E-01
  2.494268000E+00 -1.423595206E-01
  1.114202000E+00 -4.658690019E-02
  4.215490000E-01  3.799402916E-01
  1.696330000E-01  5.890463624E-01
  6.853500000E-02  1.749075107E-01
  2.398700000E-02 -1.142030005E-03
   p   9
  5.500000000E+01  1.229800005E-03
  1.336610100E+01  8.827380035E-03
  4.135394000E+00  3.843340015E-02
  1.481256000E+00  1.150031805E-01
  6.021360000E-01  2.733674011E-01
  2.556360000E-01  4.061972116E-01
  1.111510000E-01  3.014967912E-01
  4.764800000E-02  7.684809030E-02
  1.667700000E-02 -8.170000032E-06
 
   2
   s  14
  1.031094600E+05  1.713099991E-04
  1.528100700E+04  7.123999962E-04
  3.441539200E+03  2.990479984E-03
  9.670948300E+02  1.164036994E-02
  3.140353400E+02  3.968642979E-02
  1.134423000E+02  1.128546094E-01
  4.464472700E+01  2.473650687E-01
  1.894287400E+01  3.672702681E-01
  8.532743000E+00  2.896286985E-01
  3.919401000E+00  7.786681959E-02
  1.568157000E+00  4.562139976E-03
  6.232900000E-01  2.468879987E-03
  2.408610000E-01  1.106309994E-03
  8.430100000E-02  1.739699991E-04
   s  14
  1.031094600E+05 -4.044999995E-05
  1.528100700E+04 -1.682299998E-04
  3.441539200E+03 -7.084299991E-04
  9.670948300E+02 -2.767999996E-03
  3.140353400E+02 -9.611379987E-03
  1.134423000E+02 -2.833957996E-02
  4.464472700E+01 -6.839343991E-02
  1.894287400E+01 -1.237379298E-01
  8.532743000E+00 -1.512859698E-01
  3.919401000E+00 -9.099909988E-03
  1.568157000E+00  3.716257695E-01
  6.232900000E-01  5.500214393E-01
  2.408610000E-01  2.092318697E-01
  8.430100000E-02  8.074639989E-03
   p   9
  2.453302900E+02  1.024860004E-03
  5.691900500E+01  8.344290032E-03
  1.760456800E+01  4.078927016E-02
  6.274995000E+00  1.351370605E-01
  2.447030000E+00  2.798830811E-01
  9.950600000E-01  3.597966414E-01
  4.039730000E-01  3.055347412E-01
  1.548100000E-01  1.354703905E-01
  5.418400000E-02  2.804449011E-02
 
[MO]
Sym=     1a  
Ene=   -27.2200
Spin= Alpha
Occup=    2.00000
   1        -0.00007364
   2        -0.00033815
   3        -0.00000002
   4         0.00000000
   5        -0.00025001
   6         1.00001402
   7        -0.00342719
   8        -0.00000005
   9         0.00000000
  10        -0.00092624
Sym=     2a  
Ene=    -8.9064
Spin= Alpha
Occup=    2.00000
   1         0.99981007
   2         0.01262237
   3        -0.00000065
   4         0.00000002
   5        -0.00060602
   6        -0.00000245
   7         0.00039159
   8         0.00000217
   9        -0.00000008
  10        -0.00199297
Sym=     3a  
Ene=    -2.3516
Spin= Alpha
Occup=    2.00000
   1        -0.02241915
   2         0.01433275
   3        -0.00001629
   4         0.00000058
   5         0.04361554
   6         0.00103458
   7         0.97237887
   8        -0.00008807
   9         0.00000315
  10        -0.09871949
Sym=     4a  
Ene=    -1.4093
Spin= Alpha
Occup=    2.00000
   1         0.00005214
   2        -0.00031406
   3         0.08932610
   4        -0.00319724
   5        -0.00029589
   6         0.00002430
   7         0.00044153
   8         0.97746159
   9        -0.03498614
  10         0.00109186
Sym=     5a  
Ene=    -1.4093
Spin= Alpha
Occup=    2.00000
   1        -0.00000000
   2         0.00000000
   3         0.00319724
   4         0.08932608
   5         0.00000000
   6        -0.00000000
   7        -0.00000000
   8         0.03498617
   9         0.97746246
  10        -0.00000000
Sym=     6a  
Ene=    -1.3873
Spin= Alpha
Occup=    1.87243
   1        -0.03699961
   2         0.57176824
   3         0.00024018
   4        -0.00000860
   5         0.15388248
   6        -0.02337470
   7        -0.31454196
   8         0.00116536
   9        -0.00004171
  10        -0.66106622
Sym=     7a  
Ene=    -0.0026
Spin= Alpha
Occup=    0.12757
   1        -0.03230287
   2        -0.93723793
   3        -0.00068889
   4         0.00002466
   5        -0.05107383
   6         0.02639198
   7         0.21820798
   8         0.00062639
   9        -0.00002242
  10        -0.77442160
Sym=     8a  
Ene=    -0.6922
Spin= Alpha
Occup=    0.00000
   1         0.00000537
   2        -0.00065909
   3         1.01651912
   4        -0.03638418
   5         0.00092323
   6        -0.00002718
   7        -0.00022205
   8        -0.29301623
   9         0.01048790
  10        -0.00015325
Sym=     9a  
Ene=    -0.6922
Spin= Alpha
Occup=    0.00000
   1        -0.00000000
   2         0.00000000
   3        -0.03638420
   4        -1.01651975
   5        -0.00000000
   6         0.00000000
   7         0.00000000
   8         0.01048791
   9         0.29301656
  10         0.00000000
Sym=    10a  
Ene=    -0.5380
Spin= Alpha
Occup=    0.00000
   1        -0.02658458
   2        -0.09705874
   3         0.00087279
   4        -0.00003124
   5        -1.12683083
   6         0.05646745
   7         0.49036092
   8        -0.00036940
   9         0.00001322
  10        -0.36443634
