[Molden Format]
[N_Atoms]
                     2
[Atoms] (AU)
N1          1      7           0.00000000      0.00000000      0.00000000
O2          2      8           0.00000000      0.00000000      2.45664396
[Charge] (Mulliken)
  0.175354121807022     
 -0.175354121807054     
[GTO] (AU)
   1
   s  14
  7.476171500E+04  1.182599996E-04
  1.112365400E+04  5.172899983E-04
  2.512685700E+03  2.266659992E-03
  7.037772900E+02  9.145289970E-03
  2.254787900E+02  3.239342989E-02
  7.961581000E+01  9.770792967E-02
  3.023728300E+01  2.317036792E-01
  1.226362200E+01  3.768898887E-01
  5.265086000E+00  3.177420689E-01
  2.333471000E+00  8.211308973E-02
  9.018560000E-01  3.312089989E-03
  3.583360000E-01  3.720819988E-03
  1.410930000E-01  3.165419989E-03
  4.938300000E-02  4.595799985E-04
   s  14
  7.476171500E+04 -2.707000010E-05
  1.112365400E+04 -1.183700004E-04
  2.512685700E+03 -5.203800020E-04
  7.037772900E+02 -2.102930008E-03
  2.254787900E+02 -7.568200028E-03
  7.961581000E+01 -2.346767009E-02
  3.023728300E+01 -6.042901023E-02
  1.226362200E+01 -1.170549104E-01
  5.265086000E+00 -1.555321506E-01
  2.333471000E+00 -2.468935009E-02
  9.018560000E-01  3.625054514E-01
  3.583360000E-01  5.550845021E-01
  1.410930000E-01  2.148376908E-01
  4.938300000E-02  8.983850034E-03
   p   9
  1.266665700E+02  1.233630000E-03
  2.983738900E+01  9.493409996E-03
  9.394038000E+00  4.293961998E-02
  3.405104000E+00  1.362925399E-01
  1.350000000E+00  2.921362499E-01
  5.576960000E-01  3.887887598E-01
  2.324490000E-01  2.946801399E-01
  9.426400000E-02  8.012875997E-02
  3.299200000E-02  5.405199998E-04
 
   2
   s  14
  1.053749500E+05  1.238600013E-04
  1.567924000E+04  5.120100053E-04
  3.534544700E+03  2.152910022E-03
  9.873651600E+02  8.528440089E-03
  3.159787500E+02  3.018049031E-02
  1.116542800E+02  9.099702095E-02
  4.269945100E+01  2.177936423E-01
  1.739559600E+01  3.686245738E-01
  7.438309000E+00  3.366707335E-01
  3.222862000E+00  9.657630101E-02
  1.253877000E+00  2.144520022E-03
  4.951550000E-01  1.194350012E-03
  1.916650000E-01  5.390200056E-04
  6.708300000E-02  2.103400022E-04
   s  14
  1.053749500E+05 -2.815000008E-05
  1.567924000E+04 -1.163000003E-04
  3.534544700E+03 -4.909200013E-04
  9.873651600E+02 -1.946160005E-03
  3.159787500E+02 -7.005300019E-03
  1.116542800E+02 -2.167814006E-02
  4.269945100E+01 -5.641213015E-02
  1.739559600E+01 -1.127053003E-01
  7.438309000E+00 -1.589119704E-01
  3.222862000E+00 -3.355083009E-02
  1.253877000E+00  3.531902810E-01
  4.951550000E-01  5.534199315E-01
  1.916650000E-01  2.301839106E-01
  6.708300000E-02  1.127267003E-02
   p   9
  2.000000000E+02  9.173000030E-04
  4.653336700E+01  7.377140024E-03
  1.462180900E+01  3.483515011E-02
  5.313064000E+00  1.144397004E-01
  2.102525000E+00  2.554966408E-01
  8.502230000E-01  3.722557412E-01
  3.375970000E-01  3.323314911E-01
  1.288920000E-01  1.400847905E-01
  4.511200000E-02  2.395784008E-02
 
[MO]
Sym=     1a  
Ene=   -20.7450
Spin= Alpha
Occup=    1.00000
   1        -0.00009437
   2        -0.00073734
   3        -0.00000000
   4        -0.00000000
   5        -0.00031494
   6         1.00003540
   7        -0.00035605
   8        -0.00000000
   9        -0.00000000
  10        -0.00164627
Sym=     1a  
Ene=   -20.7710
Spin= Beta
Occup=    1.00000
   1        -0.00013712
   2        -0.00106460
   3         0.00000000
   4        -0.00000000
   5        -0.00061319
   6         1.00005948
   7         0.00126381
   8         0.00000000
   9         0.00000000
  10        -0.00191207
Sym=     2a  
Ene=   -15.7910
Spin= Alpha
Occup=    1.00000
   1         1.00010218
   2        -0.00291389
   3        -0.00000000
   4        -0.00000000
   5         0.00293956
   6        -0.00042355
   7        -0.00209604
   8        -0.00000000
   9         0.00000000
  10         0.00093129
Sym=     2a  
Ene=   -15.7320
Spin= Beta
Occup=    1.00000
   1         0.99999906
   2        -0.00752491
   3         0.00000000
   4        -0.00000000
   5         0.00220639
   6        -0.00027499
   7        -0.00091752
   8        -0.00000000
   9         0.00000000
  10         0.00010425
Sym=     3a  
Ene=    -1.5147
Spin= Alpha
Occup=    1.00000
   1        -0.02452972
   2         0.47540346
   3        -0.00000000
   4        -0.00000000
   5         0.18751986
   6        -0.02250292
   7         0.60744762
   8        -0.00000000
   9        -0.00000000
  10        -0.17773783
Sym=     3a  
Ene=    -1.5357
Spin= Beta
Occup=    1.00000
   1        -0.02923721
   2         0.22809199
   3         0.00000000
   4        -0.00000000
   5         0.15203809
   6        -0.01500614
   7         0.80392686
   8         0.00000000
   9        -0.00000000
  10        -0.18101434
Sym=     4a  
Ene=    -1.0159
Spin= Alpha
Occup=    1.00000
   1        -0.01075316
   2        -0.78104822
   3        -0.00000000
   4         0.00000000
   5         0.10999829
   6         0.01658423
   7         0.72314522
   8        -0.00000000
   9         0.00000000
  10         0.19864827
Sym=     4a  
Ene=    -0.9059
Spin= Beta
Occup=    1.00000
   1         0.00661016
   2        -0.68535360
   3        -0.00000000
   4        -0.00000000
   5        -0.02855111
   6         0.02073785
   7         0.56418747
   8         0.00000000
   9        -0.00000000
  10         0.46908823
Sym=     5a  
Ene=    -0.7511
Spin= Alpha
Occup=    1.00000
   1         0.00000000
   2         0.00000000
   3         0.60753308
   4         0.23765345
   5        -0.00000000
   6         0.00000000
   7         0.00000000
   8         0.58512407
   9         0.22888754
  10         0.00000000
Sym=     5a  
Ene=    -0.7182
Spin= Beta
Occup=    1.00000
   1        -0.00000000
   2        -0.00000000
   3        -0.06319444
   4         0.16154915
   5         0.00000000
   6         0.00000000
   7         0.00000000
   8        -0.34519113
   9         0.88244051
  10         0.00000000
Sym=     6a  
Ene=    -0.6452
Spin= Alpha
Occup=    1.00000
   1         0.03220815
   2         0.40070000
   3         0.00000000
   4        -0.00000000
   5        -0.61200118
   6         0.02148852
   7         0.30220223
   8         0.00000000
   9        -0.00000000
  10         0.65256526
Sym=     6a  
Ene=    -0.6449
Spin= Beta
Occup=    1.00000
   1         0.00000000
   2         0.00000000
   3         0.20459188
   4         0.08003180
   5        -0.00000000
   6         0.00000000
   7         0.00000000
   8         0.86479742
   9         0.33828955
  10         0.00000000
Sym=     7a  
Ene=    -0.6430
Spin= Alpha
Occup=    1.00000
   1         0.00000000
   2         0.00000000
   3        -0.32422507
   4         0.82884322
   5        -0.00000000
   6         0.00000000
   7         0.00000000
   8        -0.10960560
   9         0.28019381
  10         0.00000000
Sym=     7a  
Ene=    -0.6091
Spin= Beta
Occup=    1.00000
   1         0.03678881
   2         0.64630925
   3        -0.00000000
   4        -0.00000000
   5        -0.56532444
   6         0.01205326
   7         0.12197205
   8        -0.00000000
   9        -0.00000000
  10         0.60121278
Sym=     8a  
Ene=    -0.5010
Spin= Alpha
Occup=    1.00000
   1        -0.00000000
   2        -0.00000000
   3        -0.73617474
   4        -0.28797521
   5         0.00000000
   6        -0.00000000
   7        -0.00000000
   8         0.75410842
   9         0.29499047
  10        -0.00000000
Sym=     8a  
Ene=     0.1438
Spin= Beta
Occup=    0.00000
   1         0.00000000
   2         0.00000000
   3         0.36798824
   4        -0.94071864
   5         0.00000000
   6        -0.00000000
   7        -0.00000000
   8        -0.14230941
   9         0.36379726
  10         0.00000000
Sym=     9a  
Ene=     0.0872
Spin= Alpha
Occup=    0.00000
   1         0.00000000
   2        -0.00000000
   3         0.18516747
   4        -0.47335885
   5         0.00000000
   6        -0.00000000
   7        -0.00000000
   8        -0.35692506
   9         0.91243691
  10        -0.00000000
Sym=     9a  
Ene=     0.1626
Spin= Beta
Occup=    0.00000
   1         0.00000000
   2         0.00000000
   3        -0.93230459
   4        -0.36469686
   5        -0.00000000
   6         0.00000000
   7        -0.00000000
   8         0.40394939
   9         0.15801603
  10         0.00000000
Sym=    10a  
Ene=     0.4448
Spin= Alpha
Occup=    0.00000
   1         0.07024160
   2         0.62754192
   3        -0.00000000
   4         0.00000000
   5         0.96671609
   6        -0.06623208
   7        -0.64873396
   8        -0.00000000
   9         0.00000000
  10         0.92030313
Sym=    10a  
Ene=     0.4877
Spin= Beta
Occup=    0.00000
   1         0.06813884
   2         0.67150149
   3         0.00000000
   4         0.00000000
   5         1.00639446
   6        -0.06914673
   7        -0.65163837
   8         0.00000000
   9        -0.00000000
  10         0.85415706
