[Molden Format]
[N_Atoms]
                     2
[Atoms] (AU)
B1          1      5           0.00000000      0.00000000      0.00000000
O2          2      8           0.00000000      0.00000000      1.32280829
[Charge] (Mulliken)
   1.01706934844201     
  -1.01706934844204     
[GTO] (AU)
   1
   s  14
  3.336021700E+04  1.039699991E-04
  4.972095200E+03  5.254399956E-04
  1.125641700E+03  2.509059979E-03
  3.164913600E+02  1.031887991E-02
  1.020072600E+02  3.636632969E-02
  3.629587300E+01  1.064607991E-01
  1.397141000E+01  2.403999880E-01
  5.741156000E+00  3.748581168E-01
  2.494268000E+00  3.100066974E-01
  1.114202000E+00  7.922455933E-02
  4.215490000E-01 -4.947589958E-03
  1.696330000E-01 -7.737119935E-03
  6.853500000E-02 -1.501079987E-03
  2.398700000E-02 -1.333299989E-04
   s  14
  3.336021700E+04 -2.030000008E-05
  4.972095200E+03 -1.025700004E-04
  1.125641700E+03 -4.911300020E-04
  3.164913600E+02 -2.026570008E-03
  1.020072600E+02 -7.261010030E-03
  3.629587300E+01 -2.197722009E-02
  1.397141000E+01 -5.408428022E-02
  5.741156000E+00 -1.022402604E-01
  2.494268000E+00 -1.423595206E-01
  1.114202000E+00 -4.658690019E-02
  4.215490000E-01  3.799402916E-01
  1.696330000E-01  5.890463624E-01
  6.853500000E-02  1.749075107E-01
  2.398700000E-02 -1.142030005E-03
   p   9
  5.500000000E+01  1.229800005E-03
  1.336610100E+01  8.827380035E-03
  4.135394000E+00  3.843340015E-02
  1.481256000E+00  1.150031805E-01
  6.021360000E-01  2.733674011E-01
  2.556360000E-01  4.061972116E-01
  1.111510000E-01  3.014967912E-01
  4.764800000E-02  7.684809030E-02
  1.667700000E-02 -8.170000032E-06
 
   2
   s  14
  1.053749500E+05  1.238600013E-04
  1.567924000E+04  5.120100053E-04
  3.534544700E+03  2.152910022E-03
  9.873651600E+02  8.528440089E-03
  3.159787500E+02  3.018049031E-02
  1.116542800E+02  9.099702095E-02
  4.269945100E+01  2.177936423E-01
  1.739559600E+01  3.686245738E-01
  7.438309000E+00  3.366707335E-01
  3.222862000E+00  9.657630101E-02
  1.253877000E+00  2.144520022E-03
  4.951550000E-01  1.194350012E-03
  1.916650000E-01  5.390200056E-04
  6.708300000E-02  2.103400022E-04
   s  14
  1.053749500E+05 -2.815000008E-05
  1.567924000E+04 -1.163000003E-04
  3.534544700E+03 -4.909200013E-04
  9.873651600E+02 -1.946160005E-03
  3.159787500E+02 -7.005300019E-03
  1.116542800E+02 -2.167814006E-02
  4.269945100E+01 -5.641213015E-02
  1.739559600E+01 -1.127053003E-01
  7.438309000E+00 -1.589119704E-01
  3.222862000E+00 -3.355083009E-02
  1.253877000E+00  3.531902810E-01
  4.951550000E-01  5.534199315E-01
  1.916650000E-01  2.301839106E-01
  6.708300000E-02  1.127267003E-02
   p   9
  2.000000000E+02  9.173000030E-04
  4.653336700E+01  7.377140024E-03
  1.462180900E+01  3.483515011E-02
  5.313064000E+00  1.144397004E-01
  2.102525000E+00  2.554966408E-01
  8.502230000E-01  3.722557412E-01
  3.375970000E-01  3.323314911E-01
  1.288920000E-01  1.400847905E-01
  4.511200000E-02  2.395784008E-02
 
[MO]
Sym=     1a  
Ene=   -20.8700
Spin= Alpha
Occup=    1.00000
   1        -0.00146037
   2        -0.00491822
   3        -0.00000000
   4         0.00000000
   5        -0.00057793
   6         1.00061238
   7         0.00580450
   8         0.00000000
   9        -0.00000000
  10        -0.00618174
Sym=     1a  
Ene=   -20.8720
Spin= Beta
Occup=    1.00000
   1        -0.00161715
   2        -0.00517134
   3        -0.00000000
   4         0.00000000
   5        -0.00076826
   6         1.00067068
   7         0.00637967
   8         0.00000000
   9        -0.00000000
  10        -0.00623404
Sym=     2a  
Ene=    -8.1481
Spin= Alpha
Occup=    1.00000
   1         0.98289748
   2        -0.00649178
   3         0.00000000
   4         0.00000000
   5         0.00426847
   6        -0.01635977
   7         0.03053571
   8         0.00000000
   9        -0.00000000
  10        -0.03139741
Sym=     2a  
Ene=    -8.1248
Spin= Beta
Occup=    1.00000
   1         0.98320214
   2        -0.00689693
   3         0.00000000
   4         0.00000000
   5         0.00576648
   6        -0.01654954
   7         0.02948000
   8         0.00000000
   9        -0.00000000
  10        -0.03120776
Sym=     3a  
Ene=    -1.5918
Spin= Alpha
Occup=    1.00000
   1        -0.35736842
   2        -0.07675015
   3         0.00000000
   4         0.00000000
   5         0.15826910
   6        -0.01495664
   7         0.94432976
   8         0.00000000
   9         0.00000000
  10        -0.38474350
Sym=     3a  
Ene=    -1.5942
Spin= Beta
Occup=    1.00000
   1        -0.35768240
   2        -0.09229048
   3        -0.00000000
   4         0.00000000
   5         0.15769712
   6        -0.01348141
   7         0.95695706
   8         0.00000000
   9         0.00000000
  10        -0.37875550
Sym=     4a  
Ene=    -0.8470
Spin= Alpha
Occup=    1.00000
   1         0.00000000
   2        -0.00000000
   3         0.16793518
   4         0.27682619
   5         0.00000000
   6        -0.00000000
   7        -0.00000000
   8         0.39998325
   9         0.65933677
  10         0.00000000
Sym=     4a  
Ene=    -0.8479
Spin= Beta
Occup=    1.00000
   1         0.00000000
   2         0.00000000
   3         0.12983569
   4         0.22350501
   5         0.00000000
   6        -0.00000000
   7        -0.00000000
   8         0.41336734
   9         0.71158918
  10         0.00000000
Sym=     5a  
Ene=    -0.8470
Spin= Alpha
Occup=    1.00000
   1        -0.00000000
   2        -0.00000000
   3         0.27682619
   4        -0.16793518
   5         0.00000000
   6         0.00000000
   7         0.00000000
   8         0.65933677
   9        -0.39998325
  10        -0.00000000
Sym=     5a  
Ene=    -0.8479
Spin= Beta
Occup=    1.00000
   1        -0.00000000
   2        -0.00000000
   3         0.22350501
   4        -0.12983569
   5         0.00000000
   6         0.00000000
   7         0.00000000
   8         0.71158918
   9        -0.41336734
  10        -0.00000000
Sym=     6a  
Ene=    -0.6868
Spin= Alpha
Occup=    1.00000
   1         0.29353812
   2         0.27703148
   3        -0.00000000
   4        -0.00000000
   5        -0.29184173
   6         0.01686214
   7         0.26767602
   8         0.00000000
   9        -0.00000000
  10         1.05404457
Sym=     6a  
Ene=    -0.6860
Spin= Beta
Occup=    1.00000
   1         0.29282228
   2         0.17650361
   3        -0.00000000
   4        -0.00000000
   5        -0.21235776
   6         0.01465137
   7         0.27613015
   8        -0.00000000
   9        -0.00000000
  10         1.05494698
Sym=     7a  
Ene=    -0.5832
Spin= Alpha
Occup=    1.00000
   1        -0.03362020
   2        -0.85048077
   3        -0.00000000
   4         0.00000000
   5         0.55839433
   6         0.00062062
   7         0.23011065
   8        -0.00000000
   9        -0.00000000
  10         0.03337190
Sym=     7a  
Ene=    -0.0242
Spin= Beta
Occup=    0.00000
   1        -0.10102573
   2        -0.97559743
   3         0.00000000
   4         0.00000000
   5         0.50210112
   6         0.02309178
   7         0.30330978
   8        -0.00000000
   9        -0.00000000
  10        -0.11845753
Sym=     8a  
Ene=     0.3770
Spin= Alpha
Occup=    0.00000
   1         0.00000000
   2         0.00000000
   3        -0.47000593
   4         1.11427236
   5         0.00000000
   6        -0.00000000
   7        -0.00000000
   8         0.38329079
   9        -0.90869138
  10         0.00000000
Sym=     8a  
Ene=     0.4355
Spin= Beta
Occup=    0.00000
   1        -0.00000000
   2        -0.00000000
   3         0.17606405
   4        -1.21224300
   5        -0.00000000
   6         0.00000000
   7         0.00000000
   8        -0.13560333
   9         0.93366132
  10        -0.00000000
Sym=     9a  
Ene=     0.3770
Spin= Alpha
Occup=    0.00000
   1        -0.00000000
   2        -0.00000000
   3        -1.11427236
   4        -0.47000593
   5        -0.00000000
   6         0.00000000
   7         0.00000000
   8         0.90869138
   9         0.38329079
  10        -0.00000000
Sym=     9a  
Ene=     0.4355
Spin= Beta
Occup=    0.00000
   1         0.00000000
   2         0.00000000
   3         1.21224300
   4         0.17606405
   5        -0.00000000
   6        -0.00000000
   7        -0.00000000
   8        -0.93366132
   9        -0.13560333
  10         0.00000000
Sym=    10a  
Ene=     0.8045
Spin= Alpha
Occup=    0.00000
   1        -0.60360725
   2        -1.78639114
   3        -0.00000000
   4         0.00000000
   5        -1.54589005
   6         0.43947393
   7         2.17019116
   8         0.00000000
   9        -0.00000000
  10        -0.41364542
Sym=    10a  
Ene=     0.8389
Spin= Beta
Occup=    0.00000
   1        -0.59570259
   2        -1.73368927
   3        -0.00000000
   4         0.00000000
   5        -1.57788337
   6         0.43885441
   7         2.15456134
   8         0.00000000
   9        -0.00000000
  10        -0.40107846
