[Molden Format]
[N_Atoms]
                     2
[Atoms] (AU)
B1          1      5           0.00000000      0.00000000      0.00000000
O2          2      8           0.00000000      0.00000000      4.34637009
[Charge] (Mulliken)
  0.345368326445097     
 -0.345368326445170     
[GTO] (AU)
   1
   s  14
  3.336021700E+04  1.039699991E-04
  4.972095200E+03  5.254399956E-04
  1.125641700E+03  2.509059979E-03
  3.164913600E+02  1.031887991E-02
  1.020072600E+02  3.636632969E-02
  3.629587300E+01  1.064607991E-01
  1.397141000E+01  2.403999880E-01
  5.741156000E+00  3.748581168E-01
  2.494268000E+00  3.100066974E-01
  1.114202000E+00  7.922455933E-02
  4.215490000E-01 -4.947589958E-03
  1.696330000E-01 -7.737119935E-03
  6.853500000E-02 -1.501079987E-03
  2.398700000E-02 -1.333299989E-04
   s  14
  3.336021700E+04 -2.030000008E-05
  4.972095200E+03 -1.025700004E-04
  1.125641700E+03 -4.911300020E-04
  3.164913600E+02 -2.026570008E-03
  1.020072600E+02 -7.261010030E-03
  3.629587300E+01 -2.197722009E-02
  1.397141000E+01 -5.408428022E-02
  5.741156000E+00 -1.022402604E-01
  2.494268000E+00 -1.423595206E-01
  1.114202000E+00 -4.658690019E-02
  4.215490000E-01  3.799402916E-01
  1.696330000E-01  5.890463624E-01
  6.853500000E-02  1.749075107E-01
  2.398700000E-02 -1.142030005E-03
   p   9
  5.500000000E+01  1.229800005E-03
  1.336610100E+01  8.827380035E-03
  4.135394000E+00  3.843340015E-02
  1.481256000E+00  1.150031805E-01
  6.021360000E-01  2.733674011E-01
  2.556360000E-01  4.061972116E-01
  1.111510000E-01  3.014967912E-01
  4.764800000E-02  7.684809030E-02
  1.667700000E-02 -8.170000032E-06
 
   2
   s  14
  1.053749500E+05  1.238600013E-04
  1.567924000E+04  5.120100053E-04
  3.534544700E+03  2.152910022E-03
  9.873651600E+02  8.528440089E-03
  3.159787500E+02  3.018049031E-02
  1.116542800E+02  9.099702095E-02
  4.269945100E+01  2.177936423E-01
  1.739559600E+01  3.686245738E-01
  7.438309000E+00  3.366707335E-01
  3.222862000E+00  9.657630101E-02
  1.253877000E+00  2.144520022E-03
  4.951550000E-01  1.194350012E-03
  1.916650000E-01  5.390200056E-04
  6.708300000E-02  2.103400022E-04
   s  14
  1.053749500E+05 -2.815000008E-05
  1.567924000E+04 -1.163000003E-04
  3.534544700E+03 -4.909200013E-04
  9.873651600E+02 -1.946160005E-03
  3.159787500E+02 -7.005300019E-03
  1.116542800E+02 -2.167814006E-02
  4.269945100E+01 -5.641213015E-02
  1.739559600E+01 -1.127053003E-01
  7.438309000E+00 -1.589119704E-01
  3.222862000E+00 -3.355083009E-02
  1.253877000E+00  3.531902810E-01
  4.951550000E-01  5.534199315E-01
  1.916650000E-01  2.301839106E-01
  6.708300000E-02  1.127267003E-02
   p   9
  2.000000000E+02  9.173000030E-04
  4.653336700E+01  7.377140024E-03
  1.462180900E+01  3.483515011E-02
  5.313064000E+00  1.144397004E-01
  2.102525000E+00  2.554966408E-01
  8.502230000E-01  3.722557412E-01
  3.375970000E-01  3.323314911E-01
  1.288920000E-01  1.400847905E-01
  4.511200000E-02  2.395784008E-02
 
[MO]
Sym=     1a  
Ene=   -20.4780
Spin= Alpha
Occup=    1.00000
   1        -0.00001045
   2        -0.00017591
   3         0.00000000
   4        -0.00000000
   5        -0.00020479
   6         1.00000439
   7         0.00051609
   8        -0.00000000
   9         0.00000000
  10        -0.00022145
Sym=     1a  
Ene=   -20.4680
Spin= Beta
Occup=    1.00000
   1        -0.00001441
   2        -0.00020188
   3         0.00000000
   4        -0.00000000
   5        -0.00025312
   6         1.00000542
   7        -0.00007192
   8        -0.00000000
   9         0.00000000
  10        -0.00034317
Sym=     2a  
Ene=    -7.7881
Spin= Alpha
Occup=    1.00000
   1         0.99989457
   2         0.01434638
   3        -0.00000000
   4         0.00000000
   5         0.00014210
   6        -0.00002737
   7        -0.00006123
   8        -0.00000000
   9         0.00000000
  10        -0.00020723
Sym=     2a  
Ene=    -7.7796
Spin= Beta
Occup=    1.00000
   1         0.99992215
   2         0.01254526
   3        -0.00000000
   4         0.00000000
   5         0.00043648
   6        -0.00001568
   7        -0.00009197
   8        -0.00000000
   9         0.00000000
  10         0.00005432
Sym=     3a  
Ene=    -1.1560
Spin= Alpha
Occup=    1.00000
   1         0.00322658
   2        -0.04850220
   3         0.00000000
   4        -0.00000000
   5        -0.04447443
   6         0.00149934
   7        -0.98490135
   8        -0.00000000
   9         0.00000000
  10        -0.02785977
Sym=     3a  
Ene=    -1.1004
Spin= Beta
Occup=    1.00000
   1         0.00376225
   2        -0.03655612
   3         0.00000000
   4        -0.00000000
   5        -0.01781922
   6         0.00040460
   7        -0.99092427
   8         0.00000000
   9        -0.00000000
  10         0.04362883
Sym=     4a  
Ene=    -0.5886
Spin= Alpha
Occup=    1.00000
   1        -0.01565347
   2         0.96152256
   3        -0.00000000
   4         0.00000000
   5        -0.09593569
   6        -0.00483305
   7        -0.11422034
   8         0.00000000
   9        -0.00000000
  10        -0.16727617
Sym=     4a  
Ene=    -0.5170
Spin= Beta
Occup=    1.00000
   1         0.01276600
   2        -0.99290567
   3        -0.00000000
   4         0.00000000
   5        -0.03874772
   6         0.00723208
   7         0.15271901
   8         0.00000000
   9        -0.00000000
  10         0.05835995
Sym=     5a  
Ene=    -0.4456
Spin= Alpha
Occup=    1.00000
   1         0.00000000
   2         0.00000000
   3         0.00050682
   4         0.06563587
   5        -0.00000000
   6         0.00000000
   7         0.00000000
   8         0.00766529
   9         0.99269802
  10         0.00000000
Sym=     5a  
Ene=    -0.4319
Spin= Beta
Occup=    1.00000
   1        -0.00000000
   2        -0.00000000
   3         0.00069862
   4         0.06332616
   5         0.00000000
   6         0.00000000
   7        -0.00000000
   8         0.01095474
   9         0.99299575
  10        -0.00000000
Sym=     6a  
Ene=    -0.4456
Spin= Alpha
Occup=    1.00000
   1        -0.00000000
   2        -0.00000000
   3         0.06563587
   4        -0.00050682
   5         0.00000000
   6        -0.00000000
   7        -0.00000000
   8         0.99269802
   9        -0.00766529
  10        -0.00000000
Sym=     6a  
Ene=    -0.4319
Spin= Beta
Occup=    1.00000
   1        -0.00000000
   2        -0.00000000
   3        -0.06332616
   4         0.00069862
   5         0.00000000
   6         0.00000000
   7        -0.00000000
   8        -0.99299575
   9         0.01095474
  10        -0.00000000
Sym=     7a  
Ene=    -0.3639
Spin= Alpha
Occup=    1.00000
   1         0.00511048
   2         0.09211475
   3         0.00000000
   4        -0.00000000
   5        -0.78346070
   6         0.01218067
   7         0.15382676
   8         0.00000000
   9        -0.00000000
  10         0.51726054
Sym=     7a  
Ene=     0.0540
Spin= Beta
Occup=    0.00000
   1        -0.00000000
   2        -0.00000000
   3         1.00097223
   4        -0.01369658
   5         0.00000000
   6        -0.00000000
   7        -0.00000000
   8        -0.14134852
   9         0.00193411
  10        -0.00000000
Sym=     8a  
Ene=     0.0407
Spin= Alpha
Occup=    0.00000
   1        -0.00000000
   2         0.00000000
   3         1.00081543
   4        -0.01427749
   5         0.00000000
   6        -0.00000000
   7        -0.00000000
   8        -0.14363627
   9         0.00204909
  10        -0.00000000
Sym=     8a  
Ene=     0.0540
Spin= Beta
Occup=    0.00000
   1         0.00000000
   2         0.00000000
   3         0.01369658
   4         1.00097223
   5        -0.00000000
   6         0.00000000
   7         0.00000000
   8        -0.00193411
   9        -0.14134852
  10         0.00000000
Sym=     9a  
Ene=     0.0407
Spin= Alpha
Occup=    0.00000
   1         0.00000000
   2        -0.00000000
   3         0.01427749
   4         1.00081543
   5        -0.00000000
   6         0.00000000
   7         0.00000000
   8        -0.00204909
   9        -0.14363627
  10         0.00000000
Sym=     9a  
Ene=     0.0626
Spin= Beta
Occup=    0.00000
   1         0.00374636
   2         0.12005521
   3         0.00000000
   4        -0.00000000
   5        -0.84151486
   6         0.01296449
   7         0.18095965
   8        -0.00000000
   9         0.00000000
  10         0.43000187
Sym=    10a  
Ene=     0.1063
Spin= Alpha
Occup=    0.00000
   1         0.00733422
   2         0.31752066
   3        -0.00000000
   4         0.00000000
   5         0.66875017
   6        -0.01280035
   7        -0.20474064
   8         0.00000000
   9        -0.00000000
  10         0.87373384
Sym=    10a  
Ene=     0.2694
Spin= Beta
Occup=    0.00000
   1         0.00943564
   2         0.18606383
   3         0.00000000
   4        -0.00000000
   5         0.60187435
   6        -0.01073438
   7        -0.10323862
   8        -0.00000000
   9         0.00000000
  10         0.93247829
