[Molden Format]
[N_Atoms]
                     2
[Atoms] (AU)
B1          1      5           0.00000000      0.00000000      0.00000000
O2          2      8           0.00000000      0.00000000      4.34637009
[Charge] (Mulliken)
  0.424050330987949     
 -0.424050330987971     
[GTO] (AU)
   1
   s  14
  3.336021700E+04  1.039699991E-04
  4.972095200E+03  5.254399956E-04
  1.125641700E+03  2.509059979E-03
  3.164913600E+02  1.031887991E-02
  1.020072600E+02  3.636632969E-02
  3.629587300E+01  1.064607991E-01
  1.397141000E+01  2.403999880E-01
  5.741156000E+00  3.748581168E-01
  2.494268000E+00  3.100066974E-01
  1.114202000E+00  7.922455933E-02
  4.215490000E-01 -4.947589958E-03
  1.696330000E-01 -7.737119935E-03
  6.853500000E-02 -1.501079987E-03
  2.398700000E-02 -1.333299989E-04
   s  14
  3.336021700E+04 -2.030000008E-05
  4.972095200E+03 -1.025700004E-04
  1.125641700E+03 -4.911300020E-04
  3.164913600E+02 -2.026570008E-03
  1.020072600E+02 -7.261010030E-03
  3.629587300E+01 -2.197722009E-02
  1.397141000E+01 -5.408428022E-02
  5.741156000E+00 -1.022402604E-01
  2.494268000E+00 -1.423595206E-01
  1.114202000E+00 -4.658690019E-02
  4.215490000E-01  3.799402916E-01
  1.696330000E-01  5.890463624E-01
  6.853500000E-02  1.749075107E-01
  2.398700000E-02 -1.142030005E-03
   p   9
  5.500000000E+01  1.229800005E-03
  1.336610100E+01  8.827380035E-03
  4.135394000E+00  3.843340015E-02
  1.481256000E+00  1.150031805E-01
  6.021360000E-01  2.733674011E-01
  2.556360000E-01  4.061972116E-01
  1.111510000E-01  3.014967912E-01
  4.764800000E-02  7.684809030E-02
  1.667700000E-02 -8.170000032E-06
 
   2
   s  14
  1.053749500E+05  1.238600013E-04
  1.567924000E+04  5.120100053E-04
  3.534544700E+03  2.152910022E-03
  9.873651600E+02  8.528440089E-03
  3.159787500E+02  3.018049031E-02
  1.116542800E+02  9.099702095E-02
  4.269945100E+01  2.177936423E-01
  1.739559600E+01  3.686245738E-01
  7.438309000E+00  3.366707335E-01
  3.222862000E+00  9.657630101E-02
  1.253877000E+00  2.144520022E-03
  4.951550000E-01  1.194350012E-03
  1.916650000E-01  5.390200056E-04
  6.708300000E-02  2.103400022E-04
   s  14
  1.053749500E+05 -2.815000008E-05
  1.567924000E+04 -1.163000003E-04
  3.534544700E+03 -4.909200013E-04
  9.873651600E+02 -1.946160005E-03
  3.159787500E+02 -7.005300019E-03
  1.116542800E+02 -2.167814006E-02
  4.269945100E+01 -5.641213015E-02
  1.739559600E+01 -1.127053003E-01
  7.438309000E+00 -1.589119704E-01
  3.222862000E+00 -3.355083009E-02
  1.253877000E+00  3.531902810E-01
  4.951550000E-01  5.534199315E-01
  1.916650000E-01  2.301839106E-01
  6.708300000E-02  1.127267003E-02
   p   9
  2.000000000E+02  9.173000030E-04
  4.653336700E+01  7.377140024E-03
  1.462180900E+01  3.483515011E-02
  5.313064000E+00  1.144397004E-01
  2.102525000E+00  2.554966408E-01
  8.502230000E-01  3.722557412E-01
  3.375970000E-01  3.323314911E-01
  1.288920000E-01  1.400847905E-01
  4.511200000E-02  2.395784008E-02
 
[MO]
Sym=     1a  
Ene=   -20.2200
Spin= Alpha
Occup=    2.00000
   1        -0.00087790
   2        -0.04255067
   3        -0.00000154
   4         0.00000459
   5         0.04781134
   6         0.99408748
   7         0.03006074
   8        -0.00001828
   9         0.00005673
  10        -0.07241940
Sym=     2a  
Ene=    -7.8106
Spin= Alpha
Occup=    2.00000
   1         0.99989842
   2         0.01228925
   3        -0.00000001
   4         0.00000010
   5         0.00197217
   6         0.00009004
   7         0.00054295
   8        -0.00000008
   9         0.00000129
  10        -0.00162824
Sym=     3a  
Ene=    -1.0232
Spin= Alpha
Occup=    2.00000
   1        -0.00275342
   2         0.22412257
   3         0.00000451
   4        -0.00001809
   5        -0.12440198
   6        -0.00092184
   7         0.94380960
   8         0.00005440
   9        -0.00022508
  10         0.22323670
Sym=     4a  
Ene=    -0.5639
Spin= Alpha
Occup=    2.00000
   1        -0.01574768
   2         0.87283045
   3        -0.00000315
   4         0.00001170
   5         0.05966239
   6        -0.00669724
   7        -0.18249298
   8        -0.00003507
   9         0.00014671
  10        -0.36483823
Sym=     5a  
Ene=    -0.4192
Spin= Alpha
Occup=    2.00000
   1         0.00000458
   2         0.00015763
   3        -0.02034311
   4         0.07724018
   5        -0.00030863
   6         0.00000392
   7         0.00008862
   8        -0.25229087
   9         0.95791623
  10         0.00051322
Sym=     6a  
Ene=    -0.1245
Spin= Alpha
Occup=    1.00000
   1         0.00000029
   2         0.00000635
   3        -0.03917776
   4        -0.01031843
   5        -0.00000653
   6        -0.00000197
   7        -0.00000794
   8        -0.96317240
   9        -0.25367522
  10         0.00000475
Sym=     7a  
Ene=     0.0173
Spin= Alpha
Occup=    2.00000
   1        -0.00700623
   2        -0.40772363
   3        -0.00001219
   4         0.00004458
   5         0.46299467
   6        -0.10876206
   7         0.27334378
   8        -0.00015696
   9         0.00055058
  10        -0.69429904
Sym=     8a  
Ene=     0.0376
Spin= Alpha
Occup=    0.00000
   1        -0.00000000
   2        -0.00000007
   3         0.25465927
   4        -0.96690872
   5        -0.00000003
   6         0.00000002
   7         0.00000006
   8        -0.04018051
   9         0.15256028
  10        -0.00000006
Sym=     9a  
Ene=     0.0389
Spin= Alpha
Occup=    0.00000
   1         0.00000002
   2         0.00000001
   3        -0.96919741
   4        -0.25526205
   5         0.00000081
   6        -0.00000020
   7        -0.00000020
   8         0.11479307
   9         0.03023359
  10         0.00000061
Sym=    10a  
Ene=     0.0960
Spin= Alpha
Occup=    0.00000
   1        -0.00471461
   2        -0.23690580
   3        -0.00000079
   4        -0.00000016
   5        -0.91461999
   6         0.01618028
   7         0.22126370
   8         0.00000201
   9         0.00000045
  10        -0.62408866
