[Molden Format]
[N_Atoms]
                     2
[Atoms] (AU)
C1          1      6           0.00000000      0.00000000      0.00000000
F2          2      9           0.00000000      0.00000000      3.77945225
[Charge] (Mulliken)
  0.164187196138197     
 -0.164187196138231     
[GTO] (AU)
   1
   s  14
  5.055750100E+04  1.128874000E-04
  7.524785600E+03  5.295373000E-04
  1.694327600E+03  2.450038300E-03
  4.728227900E+02  1.005398470E-02
  1.517107500E+02  3.545398060E-02
  5.391874600E+01  1.044071086E-01
  2.065931100E+01  2.412894918E-01
  8.383976000E+00  3.834225483E-01
  3.577015000E+00  3.078514393E-01
  1.547118000E+00  6.872442990E-02
  6.130130000E-01  2.224445000E-04
  2.460680000E-01  1.976748900E-03
  9.908700000E-02  2.057859400E-03
  3.468000000E-02  4.182020000E-04
   s  14
  5.055750100E+04 -2.507420000E-05
  7.524785600E+03 -1.175945000E-04
  1.694327600E+03 -5.456275000E-04
  4.728227900E+02 -2.245077100E-03
  1.517107500E+02 -8.043471800E-03
  5.391874600E+01 -2.442588710E-02
  2.065931100E+01 -6.136791180E-02
  8.383976000E+00 -1.177767835E-01
  3.577015000E+00 -1.550487783E-01
  1.547118000E+00 -1.933316860E-02
  6.130130000E-01  3.996930678E-01
  2.460680000E-01  5.589420949E-01
  9.908700000E-02  1.711195023E-01
  3.468000000E-02  7.456244600E-03
   p   9
  8.333315500E+01  1.344656000E-03
  1.955761100E+01  1.023555500E-02
  6.080365000E+00  4.520067100E-02
  2.179317000E+00  1.410756198E-01
  8.651500000E-01  3.047388085E-01
  3.619440000E-01  3.995281011E-01
  1.547400000E-01  2.719163432E-01
  6.542900000E-02  5.857669330E-02
  2.290000000E-02 -1.263813000E-04
 
   2
   s  14
  1.031094600E+05  1.713099991E-04
  1.528100700E+04  7.123999962E-04
  3.441539200E+03  2.990479984E-03
  9.670948300E+02  1.164036994E-02
  3.140353400E+02  3.968642979E-02
  1.134423000E+02  1.128546094E-01
  4.464472700E+01  2.473650687E-01
  1.894287400E+01  3.672702681E-01
  8.532743000E+00  2.896286985E-01
  3.919401000E+00  7.786681959E-02
  1.568157000E+00  4.562139976E-03
  6.232900000E-01  2.468879987E-03
  2.408610000E-01  1.106309994E-03
  8.430100000E-02  1.739699991E-04
   s  14
  1.031094600E+05 -4.044999995E-05
  1.528100700E+04 -1.682299998E-04
  3.441539200E+03 -7.084299991E-04
  9.670948300E+02 -2.767999996E-03
  3.140353400E+02 -9.611379987E-03
  1.134423000E+02 -2.833957996E-02
  4.464472700E+01 -6.839343991E-02
  1.894287400E+01 -1.237379298E-01
  8.532743000E+00 -1.512859698E-01
  3.919401000E+00 -9.099909988E-03
  1.568157000E+00  3.716257695E-01
  6.232900000E-01  5.500214393E-01
  2.408610000E-01  2.092318697E-01
  8.430100000E-02  8.074639989E-03
   p   9
  2.453302900E+02  1.024860004E-03
  5.691900500E+01  8.344290032E-03
  1.760456800E+01  4.078927016E-02
  6.274995000E+00  1.351370605E-01
  2.447030000E+00  2.798830811E-01
  9.950600000E-01  3.597966414E-01
  4.039730000E-01  3.055347412E-01
  1.548100000E-01  1.354703905E-01
  5.418400000E-02  2.804449011E-02
 
[MO]
Sym=     1a  
Ene=   -26.2910
Spin= Alpha
Occup=    1.00000
   1        -0.00000798
   2        -0.00007903
   3         0.00000000
   4        -0.00000000
   5        -0.00005098
   6         0.99999373
   7        -0.00385425
   8        -0.00000000
   9        -0.00000000
  10        -0.00019613
Sym=     1a  
Ene=   -26.3260
Spin= Beta
Occup=    1.00000
   1        -0.00001522
   2        -0.00018097
   3         0.00000000
   4        -0.00000000
   5        -0.00019152
   6         1.00000093
   7        -0.00236785
   8        -0.00000000
   9        -0.00000000
  10        -0.00026216
Sym=     2a  
Ene=   -11.3550
Spin= Alpha
Occup=    1.00000
   1         1.00000396
   2        -0.00042148
   3         0.00000000
   4        -0.00000000
   5         0.00047885
   6        -0.00006402
   7        -0.00051324
   8         0.00000000
   9        -0.00000000
  10         0.00019768
Sym=     2a  
Ene=   -11.3140
Spin= Beta
Occup=    1.00000
   1         0.99998855
   2        -0.00502697
   3         0.00000000
   4        -0.00000000
   5         0.00043334
   6        -0.00003309
   7        -0.00023887
   8         0.00000000
   9        -0.00000000
  10         0.00005106
Sym=     3a  
Ene=    -1.4664
Spin= Alpha
Occup=    1.00000
   1        -0.00255185
   2         0.05097623
   3        -0.00000000
   4         0.00000000
   5         0.04037774
   6         0.00296307
   7         0.98691690
   8        -0.00000000
   9         0.00000000
  10         0.00243904
Sym=     3a  
Ene=    -1.6037
Spin= Beta
Occup=    1.00000
   1        -0.00278319
   2         0.01505241
   3        -0.00000000
   4         0.00000000
   5         0.01068346
   6         0.00216222
   7         0.99620434
   8        -0.00000000
   9         0.00000000
  10        -0.02980960
Sym=     4a  
Ene=    -0.8350
Spin= Alpha
Occup=    1.00000
   1         0.00047985
   2        -0.98287072
   3        -0.00000000
   4         0.00000000
   5         0.00660670
   6         0.00622614
   7         0.13759772
   8         0.00000000
   9         0.00000000
  10         0.09921528
Sym=     4a  
Ene=    -0.7747
Spin= Beta
Occup=    1.00000
   1         0.00997987
   2        -0.29566841
   3        -0.00000000
   4         0.00000000
   5        -0.04717602
   6         0.00275816
   7         0.07125841
   8         0.00000000
   9         0.00000000
  10         0.90284428
Sym=     5a  
Ene=    -0.6394
Spin= Alpha
Occup=    1.00000
   1        -0.00000000
   2        -0.00000000
   3         0.11756251
   4         0.01745974
   5        -0.00000000
   6         0.00000000
   7         0.00000000
   8         0.97363090
   9         0.14459829
  10        -0.00000000
Sym=     5a  
Ene=    -0.6708
Spin= Beta
Occup=    1.00000
   1        -0.00000000
   2         0.00000000
   3        -0.00323561
   4         0.02178652
   5         0.00000000
   6        -0.00000000
   7        -0.00000000
   8        -0.14663257
   9         0.98732844
  10        -0.00000000
Sym=     6a  
Ene=    -0.6344
Spin= Alpha
Occup=    1.00000
   1        -0.00000000
   2        -0.00000000
   3        -0.00528637
   4         0.03559497
   5         0.00000000
   6        -0.00000000
   7        -0.00000000
   8        -0.14642430
   9         0.98592607
  10        -0.00000000
Sym=     6a  
Ene=    -0.6690
Spin= Beta
Occup=    1.00000
   1        -0.00000000
   2         0.00000000
   3         0.01728600
   4         0.00256722
   5        -0.00000000
   6        -0.00000000
   7        -0.00000000
   8         0.98774403
   9         0.14669429
  10        -0.00000000
Sym=     7a  
Ene=    -0.4530
Spin= Alpha
Occup=    1.00000
   1        -0.00000000
   2        -0.00000000
   3         0.98478235
   4         0.14625444
   5         0.00000000
   6        -0.00000000
   7        -0.00000000
   8        -0.18883883
   9        -0.02804530
  10        -0.00000000
Sym=     7a  
Ene=    -0.5855
Spin= Beta
Occup=    1.00000
   1        -0.01063204
   2        -0.97010385
   3        -0.00000000
   4        -0.00000000
   5         0.04611319
   6         0.00520912
   7         0.08392373
   8         0.00000000
   9         0.00000000
  10        -0.42688370
Sym=     8a  
Ene=    -0.4468
Spin= Alpha
Occup=    1.00000
   1         0.00453983
   2         0.08375511
   3         0.00000000
   4         0.00000000
   5        -0.89344453
   6         0.01255611
   7         0.16927946
   8        -0.00000000
   9        -0.00000000
  10         0.34357450
Sym=     8a  
Ene=     0.1144
Spin= Beta
Occup=    0.00000
   1         0.00000000
   2         0.00000000
   3        -0.14725737
   4         0.99153546
   5         0.00000000
   6        -0.00000000
   7        -0.00000000
   8         0.01393172
   9        -0.09380714
  10         0.00000000
Sym=     9a  
Ene=     0.0608
Spin= Alpha
Occup=    0.00000
   1        -0.00000000
   2        -0.00000000
   3        -0.14719802
   4         0.99113582
   5         0.00000000
   6        -0.00000000
   7        -0.00000000
   8         0.01597273
   9        -0.10755000
  10        -0.00000000
Sym=     9a  
Ene=     0.1767
Spin= Beta
Occup=    0.00000
   1         0.00000000
   2        -0.00000000
   3         0.99162413
   4         0.14727054
   5         0.00000000
   6        -0.00000000
   7        -0.00000000
   8        -0.08932497
   9        -0.01326605
  10         0.00000000
Sym=    10a  
Ene=     0.1380
Spin= Alpha
Occup=    0.00000
   1         0.01321014
   2         0.24155700
   3        -0.00000000
   4         0.00000000
   5         0.50859129
   6        -0.00874518
   7        -0.12295287
   8         0.00000000
   9         0.00000000
  10         0.96327677
Sym=    10a  
Ene=     0.2013
Spin= Beta
Occup=    0.00000
   1        -0.00350535
   2        -0.07228515
   3         0.00000000
   4         0.00000000
   5        -1.02670157
   6         0.01509474
   7         0.17937797
   8        -0.00000000
   9        -0.00000000
  10        -0.23989391
