[Molden Format]
[N_Atoms]
                     2
[Atoms] (AU)
BE1         1      4           0.00000000      0.00000000      0.00000000
BE2         2      4           0.00000000      0.00000000      1.51178090
[Charge] (Mulliken)
  1.190159082398168E-012
 -1.209699007631571E-012
[GTO] (AU)
   1
   s  14
  2.262859900E+04  8.443999941E-05
  3.372318100E+03  4.601499968E-04
  7.603504000E+02  2.285389984E-03
  2.117404800E+02  9.648129932E-03
  6.722346800E+01  3.494469975E-02
  2.337217700E+01  1.061099893E-01
  8.721373000E+00  2.458240383E-01
  3.468091000E+00  3.862428773E-01
  1.452144000E+00  3.105526078E-01
  6.086150000E-01  6.415933955E-02
  2.576860000E-01 -2.265049984E-03
  1.041760000E-01 -5.217499963E-04
  4.242700000E-02 -8.757499938E-04
  1.484900000E-02  1.242199991E-04
   s  14
  2.262859900E+04 -1.586999994E-05
  3.372318100E+03 -8.656999968E-05
  7.603504000E+02 -4.302199984E-04
  2.117404800E+02 -1.825079993E-03
  6.722346800E+01 -6.682749976E-03
  2.337217700E+01 -2.095119992E-02
  8.721373000E+00 -5.200308981E-02
  3.468091000E+00 -9.849176964E-02
  1.452144000E+00 -1.355800695E-01
  6.086150000E-01 -6.429875976E-02
  2.576860000E-01  3.125414989E-01
  1.041760000E-01  6.270468577E-01
  4.242700000E-02  2.110231492E-01
  1.484900000E-02 -4.104669985E-03
   p   9
  3.371018400E+01  1.069960000E-03
  8.057649500E+00  6.828550001E-03
  2.836471400E+00  2.119065000E-02
  1.099965700E+00  5.843696001E-02
  4.433964000E-01  2.020920800E-01
  1.822264000E-01  4.582953101E-01
  7.572410000E-02  3.691239601E-01
  3.168540000E-02  6.611471001E-02
  1.108990000E-02  1.405160000E-03
 
   2
   s  14
  2.262859900E+04  8.443999941E-05
  3.372318100E+03  4.601499968E-04
  7.603504000E+02  2.285389984E-03
  2.117404800E+02  9.648129932E-03
  6.722346800E+01  3.494469975E-02
  2.337217700E+01  1.061099893E-01
  8.721373000E+00  2.458240383E-01
  3.468091000E+00  3.862428773E-01
  1.452144000E+00  3.105526078E-01
  6.086150000E-01  6.415933955E-02
  2.576860000E-01 -2.265049984E-03
  1.041760000E-01 -5.217499963E-04
  4.242700000E-02 -8.757499938E-04
  1.484900000E-02  1.242199991E-04
   s  14
  2.262859900E+04 -1.586999994E-05
  3.372318100E+03 -8.656999968E-05
  7.603504000E+02 -4.302199984E-04
  2.117404800E+02 -1.825079993E-03
  6.722346800E+01 -6.682749976E-03
  2.337217700E+01 -2.095119992E-02
  8.721373000E+00 -5.200308981E-02
  3.468091000E+00 -9.849176964E-02
  1.452144000E+00 -1.355800695E-01
  6.086150000E-01 -6.429875976E-02
  2.576860000E-01  3.125414989E-01
  1.041760000E-01  6.270468577E-01
  4.242700000E-02  2.110231492E-01
  1.484900000E-02 -4.104669985E-03
   p   9
  3.371018400E+01  1.069960000E-03
  8.057649500E+00  6.828550001E-03
  2.836471400E+00  2.119065000E-02
  1.099965700E+00  5.843696001E-02
  4.433964000E-01  2.020920800E-01
  1.822264000E-01  4.582953101E-01
  7.572410000E-02  3.691239601E-01
  3.168540000E-02  6.611471001E-02
  1.108990000E-02  1.405160000E-03
 
[MO]
Sym=     1a  
Ene=    -5.3957
Spin= Alpha
Occup=    2.00000
   1         0.67799698
   2        -0.00400475
   3         0.00000000
   4         0.00000000
   5         0.01775596
   6         0.67799698
   7        -0.00400475
   8        -0.00000000
   9        -0.00000000
  10        -0.01775596
Sym=     2a  
Ene=    -5.0252
Spin= Alpha
Occup=    2.00000
   1        -0.74294722
   2        -0.02459411
   3         0.00000000
   4        -0.00000000
   5        -0.00861793
   6         0.74294722
   7         0.02459411
   8         0.00000000
   9        -0.00000000
  10        -0.00861793
Sym=     3a  
Ene=    -0.4683
Spin= Alpha
Occup=    2.00000
   1        -0.11786455
   2         0.50974369
   3         0.00000000
   4        -0.00000000
   5         0.09386344
   6        -0.11786455
   7         0.50974369
   8        -0.00000000
   9         0.00000000
  10        -0.09386344
Sym=     4a  
Ene=    -0.0139
Spin= Alpha
Occup=    0.01311
   1        -0.03964162
   2        -0.73794575
   3        -0.00000000
   4         0.00000000
   5         0.37834322
   6         0.03964162
   7         0.73794575
   8        -0.00000000
   9         0.00000000
  10         0.37834322
Sym=     5a  
Ene=     0.0000
Spin= Alpha
Occup=    1.98689
   1        -0.00000000
   2        -0.00000000
   3         0.50221673
   4         0.14654916
   5        -0.00000000
   6         0.00000000
   7         0.00000000
   8         0.50221673
   9         0.14654916
  10        -0.00000000
Sym=     6a  
Ene=    -0.1068
Spin= Alpha
Occup=    0.00000
   1        -0.00000000
   2         0.00000000
   3        -0.14654916
   4         0.50221673
   5        -0.00000000
   6         0.00000000
   7        -0.00000000
   8        -0.14654916
   9         0.50221673
  10        -0.00000000
Sym=     7a  
Ene=     0.2068
Spin= Alpha
Occup=    0.00000
   1         0.29168955
   2         0.23764397
   3         0.00000000
   4         0.00000000
   5        -1.20173902
   6         0.29168955
   7         0.23764397
   8        -0.00000000
   9        -0.00000000
  10         1.20173902
Sym=     8a  
Ene=     0.3160
Spin= Alpha
Occup=    0.00000
   1         0.00000000
   2        -0.00000000
   3        -1.63118274
   4        -0.47598666
   5        -0.00000000
   6         0.00000000
   7        -0.00000000
   8         1.63118274
   9         0.47598666
  10         0.00000000
Sym=     9a  
Ene=     0.3180
Spin= Alpha
Occup=    0.00000
   1         0.00000000
   2        -0.00000000
   3         0.47598666
   4        -1.63118274
   5        -0.00000000
   6         0.00000000
   7        -0.00000000
   8        -0.47598666
   9         1.63118274
  10         0.00000000
Sym=    10a  
Ene=     3.7944
Spin= Alpha
Occup=    0.00000
   1        -3.63270473
   2       -12.01443090
   3         0.00000000
   4        -0.00000000
   5        -3.45896044
   6         3.63270473
   7        12.01443090
   8         0.00000000
   9        -0.00000000
  10        -3.45896044
