[Molden Format]
[N_Atoms]
                     2
[Atoms] (AU)
BE1         1      4           0.00000000      0.00000000      0.00000000
BE2         2      4           0.00000000      0.00000000      1.51178090
[Charge] (Mulliken)
 -1.310951347477385E-012
  1.303845920119784E-012
[GTO] (AU)
   1
   s  14
  2.262859900E+04  8.443999941E-05
  3.372318100E+03  4.601499968E-04
  7.603504000E+02  2.285389984E-03
  2.117404800E+02  9.648129932E-03
  6.722346800E+01  3.494469975E-02
  2.337217700E+01  1.061099893E-01
  8.721373000E+00  2.458240383E-01
  3.468091000E+00  3.862428773E-01
  1.452144000E+00  3.105526078E-01
  6.086150000E-01  6.415933955E-02
  2.576860000E-01 -2.265049984E-03
  1.041760000E-01 -5.217499963E-04
  4.242700000E-02 -8.757499938E-04
  1.484900000E-02  1.242199991E-04
   s  14
  2.262859900E+04 -1.586999994E-05
  3.372318100E+03 -8.656999968E-05
  7.603504000E+02 -4.302199984E-04
  2.117404800E+02 -1.825079993E-03
  6.722346800E+01 -6.682749976E-03
  2.337217700E+01 -2.095119992E-02
  8.721373000E+00 -5.200308981E-02
  3.468091000E+00 -9.849176964E-02
  1.452144000E+00 -1.355800695E-01
  6.086150000E-01 -6.429875976E-02
  2.576860000E-01  3.125414989E-01
  1.041760000E-01  6.270468577E-01
  4.242700000E-02  2.110231492E-01
  1.484900000E-02 -4.104669985E-03
   p   9
  3.371018400E+01  1.069960000E-03
  8.057649500E+00  6.828550001E-03
  2.836471400E+00  2.119065000E-02
  1.099965700E+00  5.843696001E-02
  4.433964000E-01  2.020920800E-01
  1.822264000E-01  4.582953101E-01
  7.572410000E-02  3.691239601E-01
  3.168540000E-02  6.611471001E-02
  1.108990000E-02  1.405160000E-03
 
   2
   s  14
  2.262859900E+04  8.443999941E-05
  3.372318100E+03  4.601499968E-04
  7.603504000E+02  2.285389984E-03
  2.117404800E+02  9.648129932E-03
  6.722346800E+01  3.494469975E-02
  2.337217700E+01  1.061099893E-01
  8.721373000E+00  2.458240383E-01
  3.468091000E+00  3.862428773E-01
  1.452144000E+00  3.105526078E-01
  6.086150000E-01  6.415933955E-02
  2.576860000E-01 -2.265049984E-03
  1.041760000E-01 -5.217499963E-04
  4.242700000E-02 -8.757499938E-04
  1.484900000E-02  1.242199991E-04
   s  14
  2.262859900E+04 -1.586999994E-05
  3.372318100E+03 -8.656999968E-05
  7.603504000E+02 -4.302199984E-04
  2.117404800E+02 -1.825079993E-03
  6.722346800E+01 -6.682749976E-03
  2.337217700E+01 -2.095119992E-02
  8.721373000E+00 -5.200308981E-02
  3.468091000E+00 -9.849176964E-02
  1.452144000E+00 -1.355800695E-01
  6.086150000E-01 -6.429875976E-02
  2.576860000E-01  3.125414989E-01
  1.041760000E-01  6.270468577E-01
  4.242700000E-02  2.110231492E-01
  1.484900000E-02 -4.104669985E-03
   p   9
  3.371018400E+01  1.069960000E-03
  8.057649500E+00  6.828550001E-03
  2.836471400E+00  2.119065000E-02
  1.099965700E+00  5.843696001E-02
  4.433964000E-01  2.020920800E-01
  1.822264000E-01  4.582953101E-01
  7.572410000E-02  3.691239601E-01
  3.168540000E-02  6.611471001E-02
  1.108990000E-02  1.405160000E-03
 
[MO]
Sym=     1a  
Ene=    -5.4552
Spin= Alpha
Occup=    1.00000
   1         0.67739651
   2        -0.00510041
   3         0.00000000
   4        -0.00000000
   5         0.02061339
   6         0.67739651
   7        -0.00510041
   8        -0.00000000
   9         0.00000000
  10        -0.02061339
Sym=     1a  
Ene=    -5.4552
Spin= Beta
Occup=    1.00000
   1         0.67739651
   2        -0.00510041
   3         0.00000000
   4        -0.00000000
   5         0.02061339
   6         0.67739651
   7        -0.00510041
   8        -0.00000000
   9         0.00000000
  10        -0.02061339
Sym=     2a  
Ene=    -5.0814
Spin= Alpha
Occup=    1.00000
   1        -0.75117395
   2        -0.05050142
   3         0.00000000
   4         0.00000000
   5        -0.01735494
   6         0.75117395
   7         0.05050142
   8        -0.00000000
   9         0.00000000
  10        -0.01735494
Sym=     2a  
Ene=    -5.0814
Spin= Beta
Occup=    1.00000
   1        -0.75117395
   2        -0.05050142
   3         0.00000000
   4         0.00000000
   5        -0.01735494
   6         0.75117395
   7         0.05050142
   8        -0.00000000
   9         0.00000000
  10        -0.01735494
Sym=     3a  
Ene=    -0.5064
Spin= Alpha
Occup=    1.00000
   1        -0.12100665
   2         0.50659087
   3        -0.00000000
   4        -0.00000000
   5         0.10957513
   6        -0.12100665
   7         0.50659087
   8         0.00000000
   9         0.00000000
  10        -0.10957513
Sym=     3a  
Ene=    -0.5064
Spin= Beta
Occup=    1.00000
   1        -0.12100665
   2         0.50659087
   3        -0.00000000
   4        -0.00000000
   5         0.10957513
   6        -0.12100665
   7         0.50659087
   8         0.00000000
   9         0.00000000
  10        -0.10957513
Sym=     4a  
Ene=    -0.2580
Spin= Alpha
Occup=    1.00000
   1         0.01880954
   2        -0.53919135
   3         0.00000000
   4         0.00000000
   5         0.43547909
   6        -0.01880954
   7         0.53919135
   8         0.00000000
   9         0.00000000
  10         0.43547909
Sym=     4a  
Ene=    -0.2580
Spin= Beta
Occup=    1.00000
   1         0.01880954
   2        -0.53919135
   3         0.00000000
   4         0.00000000
   5         0.43547909
   6        -0.01880954
   7         0.53919135
   8         0.00000000
   9         0.00000000
  10         0.43547909
Sym=     5a  
Ene=    -0.1398
Spin= Alpha
Occup=    0.00000
   1         0.00000000
   2        -0.00000000
   3         0.43794034
   4        -0.28619321
   5         0.00000000
   6         0.00000000
   7         0.00000000
   8         0.43794034
   9        -0.28619321
  10         0.00000000
Sym=     5a  
Ene=    -0.1398
Spin= Beta
Occup=    0.00000
   1         0.00000000
   2        -0.00000000
   3         0.43794034
   4        -0.28619321
   5         0.00000000
   6         0.00000000
   7         0.00000000
   8         0.43794034
   9        -0.28619321
  10         0.00000000
Sym=     6a  
Ene=    -0.1398
Spin= Alpha
Occup=    0.00000
   1        -0.00000000
   2         0.00000000
   3         0.28619321
   4         0.43794034
   5        -0.00000000
   6         0.00000000
   7        -0.00000000
   8         0.28619321
   9         0.43794034
  10        -0.00000000
Sym=     6a  
Ene=    -0.1398
Spin= Beta
Occup=    0.00000
   1        -0.00000000
   2         0.00000000
   3         0.28619321
   4         0.43794034
   5        -0.00000000
   6         0.00000000
   7        -0.00000000
   8         0.28619321
   9         0.43794034
  10        -0.00000000
Sym=     7a  
Ene=     0.1643
Spin= Alpha
Occup=    0.00000
   1         0.29179806
   2         0.24427239
   3         0.00000000
   4        -0.00000000
   5        -1.20036272
   6         0.29179806
   7         0.24427239
   8        -0.00000000
   9         0.00000000
  10         1.20036272
Sym=     7a  
Ene=     0.1643
Spin= Beta
Occup=    0.00000
   1         0.29179806
   2         0.24427239
   3         0.00000000
   4        -0.00000000
   5        -1.20036272
   6         0.29179806
   7         0.24427239
   8        -0.00000000
   9         0.00000000
  10         1.20036272
Sym=     8a  
Ene=     0.2966
Spin= Alpha
Occup=    0.00000
   1        -0.00000000
   2        -0.00000000
   3        -0.59502149
   4        -1.59162491
   5         0.00000000
   6        -0.00000000
   7        -0.00000000
   8         0.59502149
   9         1.59162491
  10        -0.00000000
Sym=     8a  
Ene=     0.2966
Spin= Beta
Occup=    0.00000
   1        -0.00000000
   2        -0.00000000
   3        -0.59502149
   4        -1.59162491
   5         0.00000000
   6        -0.00000000
   7        -0.00000000
   8         0.59502149
   9         1.59162491
  10        -0.00000000
Sym=     9a  
Ene=     0.2966
Spin= Alpha
Occup=    0.00000
   1         0.00000000
   2         0.00000000
   3        -1.59162491
   4         0.59502149
   5        -0.00000000
   6         0.00000000
   7         0.00000000
   8         1.59162491
   9        -0.59502149
  10         0.00000000
Sym=     9a  
Ene=     0.2966
Spin= Beta
Occup=    0.00000
   1         0.00000000
   2         0.00000000
   3        -1.59162491
   4         0.59502149
   5        -0.00000000
   6         0.00000000
   7         0.00000000
   8         1.59162491
   9        -0.59502149
  10         0.00000000
Sym=    10a  
Ene=     3.7696
Spin= Alpha
Occup=    0.00000
   1        -3.63118019
   2       -12.02490919
   3        -0.00000000
   4         0.00000000
   5        -3.45219959
   6         3.63118019
   7        12.02490919
   8         0.00000000
   9         0.00000000
  10        -3.45219959
Sym=    10a  
Ene=     3.7696
Spin= Beta
Occup=    0.00000
   1        -3.63118019
   2       -12.02490919
   3        -0.00000000
   4         0.00000000
   5        -3.45219959
   6         3.63118019
   7        12.02490919
   8         0.00000000
   9         0.00000000
  10        -3.45219959
