[Molden Format]
[N_Atoms]
                     2
[Atoms] (AU)
BE1         1      4           0.00000000      0.00000000      0.00000000
BE2         2      4           0.00000000      0.00000000      1.51178090
[Charge] (Mulliken)
  0.999999999998657     
   1.00000000000134     
[GTO] (AU)
   1
   s  14
  2.262859900E+04  8.443999941E-05
  3.372318100E+03  4.601499968E-04
  7.603504000E+02  2.285389984E-03
  2.117404800E+02  9.648129932E-03
  6.722346800E+01  3.494469975E-02
  2.337217700E+01  1.061099893E-01
  8.721373000E+00  2.458240383E-01
  3.468091000E+00  3.862428773E-01
  1.452144000E+00  3.105526078E-01
  6.086150000E-01  6.415933955E-02
  2.576860000E-01 -2.265049984E-03
  1.041760000E-01 -5.217499963E-04
  4.242700000E-02 -8.757499938E-04
  1.484900000E-02  1.242199991E-04
   s  14
  2.262859900E+04 -1.586999994E-05
  3.372318100E+03 -8.656999968E-05
  7.603504000E+02 -4.302199984E-04
  2.117404800E+02 -1.825079993E-03
  6.722346800E+01 -6.682749976E-03
  2.337217700E+01 -2.095119992E-02
  8.721373000E+00 -5.200308981E-02
  3.468091000E+00 -9.849176964E-02
  1.452144000E+00 -1.355800695E-01
  6.086150000E-01 -6.429875976E-02
  2.576860000E-01  3.125414989E-01
  1.041760000E-01  6.270468577E-01
  4.242700000E-02  2.110231492E-01
  1.484900000E-02 -4.104669985E-03
   p   9
  3.371018400E+01  1.069960000E-03
  8.057649500E+00  6.828550001E-03
  2.836471400E+00  2.119065000E-02
  1.099965700E+00  5.843696001E-02
  4.433964000E-01  2.020920800E-01
  1.822264000E-01  4.582953101E-01
  7.572410000E-02  3.691239601E-01
  3.168540000E-02  6.611471001E-02
  1.108990000E-02  1.405160000E-03
 
   2
   s  14
  2.262859900E+04  8.443999941E-05
  3.372318100E+03  4.601499968E-04
  7.603504000E+02  2.285389984E-03
  2.117404800E+02  9.648129932E-03
  6.722346800E+01  3.494469975E-02
  2.337217700E+01  1.061099893E-01
  8.721373000E+00  2.458240383E-01
  3.468091000E+00  3.862428773E-01
  1.452144000E+00  3.105526078E-01
  6.086150000E-01  6.415933955E-02
  2.576860000E-01 -2.265049984E-03
  1.041760000E-01 -5.217499963E-04
  4.242700000E-02 -8.757499938E-04
  1.484900000E-02  1.242199991E-04
   s  14
  2.262859900E+04 -1.586999994E-05
  3.372318100E+03 -8.656999968E-05
  7.603504000E+02 -4.302199984E-04
  2.117404800E+02 -1.825079993E-03
  6.722346800E+01 -6.682749976E-03
  2.337217700E+01 -2.095119992E-02
  8.721373000E+00 -5.200308981E-02
  3.468091000E+00 -9.849176964E-02
  1.452144000E+00 -1.355800695E-01
  6.086150000E-01 -6.429875976E-02
  2.576860000E-01  3.125414989E-01
  1.041760000E-01  6.270468577E-01
  4.242700000E-02  2.110231492E-01
  1.484900000E-02 -4.104669985E-03
   p   9
  3.371018400E+01  1.069960000E-03
  8.057649500E+00  6.828550001E-03
  2.836471400E+00  2.119065000E-02
  1.099965700E+00  5.843696001E-02
  4.433964000E-01  2.020920800E-01
  1.822264000E-01  4.582953101E-01
  7.572410000E-02  3.691239601E-01
  3.168540000E-02  6.611471001E-02
  1.108990000E-02  1.405160000E-03
 
[MO]
Sym=     1a  
Ene=    -6.1702
Spin= Alpha
Occup=    2.00000
   1         0.67841581
   2        -0.00516777
   3        -0.00000000
   4         0.00000000
   5         0.01699535
   6         0.67841581
   7        -0.00516777
   8         0.00000000
   9        -0.00000000
  10        -0.01699535
Sym=     2a  
Ene=    -5.8018
Spin= Alpha
Occup=    2.00000
   1        -0.74555733
   2        -0.03234428
   3        -0.00000000
   4         0.00000000
   5        -0.01171130
   6         0.74555733
   7         0.03234428
   8        -0.00000000
   9         0.00000000
  10        -0.01171130
Sym=     3a  
Ene=    -1.0654
Spin= Alpha
Occup=    1.98747
   1        -0.15854868
   2         0.46834604
   3         0.00000000
   4        -0.00000000
   5         0.27300152
   6        -0.15854868
   7         0.46834604
   8        -0.00000000
   9         0.00000000
  10        -0.27300152
Sym=     4a  
Ene=     0.0007
Spin= Alpha
Occup=    0.01253
   1         0.08459370
   2        -0.32309174
   3        -0.00000000
   4         0.00000002
   5         0.49742533
   6        -0.08459370
   7         0.32309174
   8        -0.00000000
   9         0.00000002
  10         0.49742533
Sym=     5a  
Ene=    -0.6902
Spin= Alpha
Occup=    0.00000
   1         0.00000000
   2        -0.00000001
   3         0.44229003
   4        -0.27942410
   5         0.00000001
   6        -0.00000000
   7         0.00000001
   8         0.44229003
   9        -0.27942410
  10         0.00000001
Sym=     6a  
Ene=    -0.6902
Spin= Alpha
Occup=    0.00000
   1        -0.00000000
   2         0.00000001
   3         0.27942410
   4         0.44229003
   5        -0.00000001
   6         0.00000000
   7        -0.00000001
   8         0.27942410
   9         0.44229003
  10        -0.00000001
Sym=     7a  
Ene=    -0.4104
Spin= Alpha
Occup=    0.00000
   1         0.27068258
   2         0.31137535
   3        -0.00000000
   4         0.00000000
   5        -1.17408842
   6         0.27068258
   7         0.31137535
   8         0.00000000
   9        -0.00000000
  10         1.17408842
Sym=     8a  
Ene=    -0.2717
Spin= Alpha
Occup=    0.00000
   1         0.00000000
   2        -0.00000000
   3        -0.73363133
   4        -1.53267919
   5        -0.00000000
   6         0.00000000
   7        -0.00000000
   8         0.73363133
   9         1.53267919
  10         0.00000000
Sym=     9a  
Ene=    -0.2717
Spin= Alpha
Occup=    0.00000
   1        -0.00000000
   2         0.00000000
   3        -1.53267919
   4         0.73363133
   5         0.00000000
   6        -0.00000000
   7         0.00000000
   8         1.53267919
   9        -0.73363133
  10        -0.00000000
Sym=    10a  
Ene=     3.0954
Spin= Alpha
Occup=    0.00000
   1        -3.63140109
   2       -12.03271724
   3        -0.00000000
   4         0.00000000
   5        -3.44384322
   6         3.63140109
   7        12.03271724
   8        -0.00000000
   9         0.00000000
  10        -3.44384322
