[Molden Format]
[N_Atoms]
                     2
[Atoms] (AU)
F1          1      9           0.00000000      0.00000000      0.00000000
O2          2      8           0.00000000      0.00000000      1.32280829
[Charge] (Mulliken)
  5.182230180153624E-003
 -5.182230180174940E-003
[GTO] (AU)
   1
   s  14
  1.031094600E+05  1.713099991E-04
  1.528100700E+04  7.123999962E-04
  3.441539200E+03  2.990479984E-03
  9.670948300E+02  1.164036994E-02
  3.140353400E+02  3.968642979E-02
  1.134423000E+02  1.128546094E-01
  4.464472700E+01  2.473650687E-01
  1.894287400E+01  3.672702681E-01
  8.532743000E+00  2.896286985E-01
  3.919401000E+00  7.786681959E-02
  1.568157000E+00  4.562139976E-03
  6.232900000E-01  2.468879987E-03
  2.408610000E-01  1.106309994E-03
  8.430100000E-02  1.739699991E-04
   s  14
  1.031094600E+05 -4.044999995E-05
  1.528100700E+04 -1.682299998E-04
  3.441539200E+03 -7.084299991E-04
  9.670948300E+02 -2.767999996E-03
  3.140353400E+02 -9.611379987E-03
  1.134423000E+02 -2.833957996E-02
  4.464472700E+01 -6.839343991E-02
  1.894287400E+01 -1.237379298E-01
  8.532743000E+00 -1.512859698E-01
  3.919401000E+00 -9.099909988E-03
  1.568157000E+00  3.716257695E-01
  6.232900000E-01  5.500214393E-01
  2.408610000E-01  2.092318697E-01
  8.430100000E-02  8.074639989E-03
   p   9
  2.453302900E+02  1.024860004E-03
  5.691900500E+01  8.344290032E-03
  1.760456800E+01  4.078927016E-02
  6.274995000E+00  1.351370605E-01
  2.447030000E+00  2.798830811E-01
  9.950600000E-01  3.597966414E-01
  4.039730000E-01  3.055347412E-01
  1.548100000E-01  1.354703905E-01
  5.418400000E-02  2.804449011E-02
 
   2
   s  14
  1.053749500E+05  1.238600013E-04
  1.567924000E+04  5.120100053E-04
  3.534544700E+03  2.152910022E-03
  9.873651600E+02  8.528440089E-03
  3.159787500E+02  3.018049031E-02
  1.116542800E+02  9.099702095E-02
  4.269945100E+01  2.177936423E-01
  1.739559600E+01  3.686245738E-01
  7.438309000E+00  3.366707335E-01
  3.222862000E+00  9.657630101E-02
  1.253877000E+00  2.144520022E-03
  4.951550000E-01  1.194350012E-03
  1.916650000E-01  5.390200056E-04
  6.708300000E-02  2.103400022E-04
   s  14
  1.053749500E+05 -2.815000008E-05
  1.567924000E+04 -1.163000003E-04
  3.534544700E+03 -4.909200013E-04
  9.873651600E+02 -1.946160005E-03
  3.159787500E+02 -7.005300019E-03
  1.116542800E+02 -2.167814006E-02
  4.269945100E+01 -5.641213015E-02
  1.739559600E+01 -1.127053003E-01
  7.438309000E+00 -1.589119704E-01
  3.222862000E+00 -3.355083009E-02
  1.253877000E+00  3.531902810E-01
  4.951550000E-01  5.534199315E-01
  1.916650000E-01  2.301839106E-01
  6.708300000E-02  1.127267003E-02
   p   9
  2.000000000E+02  9.173000030E-04
  4.653336700E+01  7.377140024E-03
  1.462180900E+01  3.483515011E-02
  5.313064000E+00  1.144397004E-01
  2.102525000E+00  2.554966408E-01
  8.502230000E-01  3.722557412E-01
  3.375970000E-01  3.323314911E-01
  1.288920000E-01  1.400847905E-01
  4.511200000E-02  2.395784008E-02
 
[MO]
Sym=     1a  
Ene=   -26.9290
Spin= Alpha
Occup=    1.00000
   1         1.00113171
   2         0.00491878
   3        -0.00000000
   4        -0.00000000
   5         0.00833778
   6        -0.00086225
   7        -0.00767961
   8         0.00000000
   9         0.00000000
  10         0.00263640
Sym=     1a  
Ene=   -26.9010
Spin= Beta
Occup=    1.00000
   1         1.00090591
   2         0.00298569
   3        -0.00000000
   4         0.00000000
   5         0.00788005
   6        -0.00042870
   7        -0.00644808
   8         0.00000000
   9         0.00000000
  10         0.00194605
Sym=     2a  
Ene=   -21.1210
Spin= Alpha
Occup=    1.00000
   1        -0.00579875
   2        -0.00775382
   3         0.00000000
   4        -0.00000000
   5        -0.00002488
   6         1.00079912
   7         0.00761149
   8        -0.00000000
   9         0.00000000
  10        -0.01066055
Sym=     2a  
Ene=   -21.0870
Spin= Beta
Occup=    1.00000
   1        -0.00558007
   2        -0.00603658
   3         0.00000000
   4        -0.00000000
   5         0.00065058
   6         1.00050659
   7         0.00488543
   8        -0.00000000
   9         0.00000000
  10        -0.00995621
Sym=     3a  
Ene=    -2.7809
Spin= Alpha
Occup=    1.00000
   1        -0.06402603
   2         0.56468313
   3        -0.00000000
   4         0.00000000
   5         0.42211224
   6        -0.13593668
   7         0.19900645
   8         0.00000000
   9        -0.00000000
  10        -0.29108853
Sym=     3a  
Ene=    -2.7386
Spin= Beta
Occup=    1.00000
   1        -0.06401736
   2         0.55950897
   3        -0.00000000
   4         0.00000000
   5         0.43361224
   6        -0.13674843
   7         0.18856607
   8         0.00000000
   9        -0.00000000
  10        -0.30077403
Sym=     4a  
Ene=    -1.4206
Spin= Alpha
Occup=    1.00000
   1         0.00000000
   2         0.00000000
   3        -0.41943449
   4         0.57939395
   5        -0.00000000
   6         0.00000000
   7        -0.00000000
   8        -0.25257561
   9         0.34890021
  10         0.00000000
Sym=     4a  
Ene=    -1.3524
Spin= Beta
Occup=    1.00000
   1        -0.00000000
   2        -0.00000000
   3         0.58553193
   4         0.42387790
   5         0.00000000
   6        -0.00000000
   7         0.00000000
   8         0.34158983
   9         0.24728349
  10        -0.00000000
Sym=     5a  
Ene=    -1.3716
Spin= Alpha
Occup=    1.00000
   1        -0.00000000
   2        -0.00000000
   3         0.58347080
   4         0.42238580
   5         0.00000000
   6        -0.00000000
   7         0.00000000
   8         0.34405297
   9         0.24906660
  10        -0.00000000
Sym=     5a  
Ene=    -1.2421
Spin= Beta
Occup=    1.00000
   1         0.00000000
   2         0.00000000
   3        -0.42238631
   4         0.58347151
   5        -0.00000000
   6         0.00000000
   7        -0.00000000
   8        -0.24906599
   9         0.34405213
  10         0.00000000
Sym=     6a  
Ene=    -1.2989
Spin= Alpha
Occup=    1.00000
   1        -0.05076197
   2        -0.77717591
   3        -0.00000000
   4        -0.00000000
   5         0.67147316
   6        -0.03259539
   7         0.32859412
   8        -0.00000000
   9        -0.00000000
  10        -0.10039005
Sym=     6a  
Ene=    -1.2314
Spin= Beta
Occup=    1.00000
   1        -0.04582654
   2        -0.74593498
   3        -0.00000000
   4         0.00000000
   5         0.72279012
   6        -0.04417697
   7         0.21669004
   8        -0.00000000
   9         0.00000000
  10        -0.13418382
Sym=     7a  
Ene=    -0.9975
Spin= Alpha
Occup=    1.00000
   1         0.01155399
   2        -0.03889562
   3        -0.00000000
   4         0.00000000
   5        -0.43821450
   6         0.08092417
   7         0.87547043
   8         0.00000000
   9         0.00000000
  10         0.62835485
Sym=     7a  
Ene=    -0.9200
Spin= Beta
Occup=    1.00000
   1         0.01143132
   2        -0.07490993
   3        -0.00000000
   4         0.00000000
   5        -0.35164385
   6         0.07108635
   7         0.87822708
   8         0.00000000
   9         0.00000000
  10         0.63265569
Sym=     8a  
Ene=    -0.4369
Spin= Alpha
Occup=    1.00000
   1        -0.00000000
   2        -0.00000000
   3         0.52674116
   4        -0.72762410
   5        -0.00000000
   6         0.00000000
   7         0.00000000
   8        -0.62416913
   9         0.86220811
  10         0.00000000
Sym=     8a  
Ene=    -0.3426
Spin= Beta
Occup=    1.00000
   1         0.00000000
   2         0.00000000
   3        -0.72269394
   4        -0.52317213
   5         0.00000000
   6        -0.00000000
   7        -0.00000000
   8         0.86513037
   9         0.62628462
  10         0.00000000
Sym=     9a  
Ene=    -0.3754
Spin= Alpha
Occup=    1.00000
   1         0.00000000
   2         0.00000000
   3        -0.72435903
   4        -0.52437752
   5         0.00000000
   6        -0.00000000
   7        -0.00000000
   8         0.86415377
   9         0.62557763
  10         0.00000000
Sym=     9a  
Ene=     0.3486
Spin= Beta
Occup=    0.00000
   1        -0.00000000
   2        -0.00000000
   3         0.52437711
   4        -0.72435846
   5        -0.00000000
   6         0.00000000
   7         0.00000000
   8        -0.62557787
   9         0.86415410
  10         0.00000000
Sym=    10a  
Ene=     2.0859
Spin= Alpha
Occup=    0.00000
   1         0.42006330
   2         2.08644827
   3         0.00000000
   4         0.00000000
   5         1.24879187
   6        -0.42680368
   7        -1.97655731
   8        -0.00000000
   9        -0.00000000
  10         1.52426956
Sym=    10a  
Ene=     2.1484
Spin= Beta
Occup=    0.00000
   1         0.42117496
   2         2.09823899
   3         0.00000000
   4         0.00000000
   5         1.24357408
   6        -0.42793964
   7        -1.99174845
   8        -0.00000000
   9        -0.00000000
  10         1.51800275
