[Molden Format]
[N_Atoms]
                     2
[Atoms] (AU)
F1          1      9           0.00000000      0.00000000      0.00000000
O2          2      8           0.00000000      0.00000000      1.32280829
[Charge] (Mulliken)
  5.289348947121297E-003
 -5.289348947140837E-003
[GTO] (AU)
   1
   s  14
  1.031094600E+05  1.713099991E-04
  1.528100700E+04  7.123999962E-04
  3.441539200E+03  2.990479984E-03
  9.670948300E+02  1.164036994E-02
  3.140353400E+02  3.968642979E-02
  1.134423000E+02  1.128546094E-01
  4.464472700E+01  2.473650687E-01
  1.894287400E+01  3.672702681E-01
  8.532743000E+00  2.896286985E-01
  3.919401000E+00  7.786681959E-02
  1.568157000E+00  4.562139976E-03
  6.232900000E-01  2.468879987E-03
  2.408610000E-01  1.106309994E-03
  8.430100000E-02  1.739699991E-04
   s  14
  1.031094600E+05 -4.044999995E-05
  1.528100700E+04 -1.682299998E-04
  3.441539200E+03 -7.084299991E-04
  9.670948300E+02 -2.767999996E-03
  3.140353400E+02 -9.611379987E-03
  1.134423000E+02 -2.833957996E-02
  4.464472700E+01 -6.839343991E-02
  1.894287400E+01 -1.237379298E-01
  8.532743000E+00 -1.512859698E-01
  3.919401000E+00 -9.099909988E-03
  1.568157000E+00  3.716257695E-01
  6.232900000E-01  5.500214393E-01
  2.408610000E-01  2.092318697E-01
  8.430100000E-02  8.074639989E-03
   p   9
  2.453302900E+02  1.024860004E-03
  5.691900500E+01  8.344290032E-03
  1.760456800E+01  4.078927016E-02
  6.274995000E+00  1.351370605E-01
  2.447030000E+00  2.798830811E-01
  9.950600000E-01  3.597966414E-01
  4.039730000E-01  3.055347412E-01
  1.548100000E-01  1.354703905E-01
  5.418400000E-02  2.804449011E-02
 
   2
   s  14
  1.053749500E+05  1.238600013E-04
  1.567924000E+04  5.120100053E-04
  3.534544700E+03  2.152910022E-03
  9.873651600E+02  8.528440089E-03
  3.159787500E+02  3.018049031E-02
  1.116542800E+02  9.099702095E-02
  4.269945100E+01  2.177936423E-01
  1.739559600E+01  3.686245738E-01
  7.438309000E+00  3.366707335E-01
  3.222862000E+00  9.657630101E-02
  1.253877000E+00  2.144520022E-03
  4.951550000E-01  1.194350012E-03
  1.916650000E-01  5.390200056E-04
  6.708300000E-02  2.103400022E-04
   s  14
  1.053749500E+05 -2.815000008E-05
  1.567924000E+04 -1.163000003E-04
  3.534544700E+03 -4.909200013E-04
  9.873651600E+02 -1.946160005E-03
  3.159787500E+02 -7.005300019E-03
  1.116542800E+02 -2.167814006E-02
  4.269945100E+01 -5.641213015E-02
  1.739559600E+01 -1.127053003E-01
  7.438309000E+00 -1.589119704E-01
  3.222862000E+00 -3.355083009E-02
  1.253877000E+00  3.531902810E-01
  4.951550000E-01  5.534199315E-01
  1.916650000E-01  2.301839106E-01
  6.708300000E-02  1.127267003E-02
   p   9
  2.000000000E+02  9.173000030E-04
  4.653336700E+01  7.377140024E-03
  1.462180900E+01  3.483515011E-02
  5.313064000E+00  1.144397004E-01
  2.102525000E+00  2.554966408E-01
  8.502230000E-01  3.722557412E-01
  3.375970000E-01  3.323314911E-01
  1.288920000E-01  1.400847905E-01
  4.511200000E-02  2.395784008E-02
 
[MO]
Sym=     1a  
Ene=   -26.9150
Spin= Alpha
Occup=    2.00000
   1         1.00101872
   2         0.00395055
   3        -0.00000000
   4        -0.00000000
   5         0.00810873
   6        -0.00064468
   7        -0.00706254
   8         0.00000000
   9        -0.00000000
  10         0.00229064
Sym=     2a  
Ene=   -21.1040
Spin= Alpha
Occup=    2.00000
   1        -0.00568976
   2        -0.00689294
   3        -0.00000000
   4        -0.00000000
   5         0.00031369
   6         1.00065279
   7         0.00624522
   8        -0.00000000
   9        -0.00000000
  10        -0.01030800
Sym=     3a  
Ene=    -2.7597
Spin= Alpha
Occup=    2.00000
   1        -0.06401724
   2         0.56216465
   3        -0.00000000
   4         0.00000000
   5         0.42787575
   6        -0.13634933
   7         0.19373471
   8         0.00000000
   9        -0.00000000
  10        -0.29594356
Sym=     4a  
Ene=    -1.3620
Spin= Alpha
Occup=    2.00000
   1        -0.00000000
   2        -0.00000000
   3         0.71534932
   4         0.09481601
   5         0.00000000
   6        -0.00000000
   7         0.00000000
   8         0.41952801
   9         0.05560636
  10        -0.00000000
Sym=     5a  
Ene=    -1.3313
Spin= Alpha
Occup=    2.00000
   1         0.00000000
   2         0.00000000
   3        -0.09463973
   4         0.71401935
   5        -0.00000000
   6         0.00000000
   7        -0.00000000
   8        -0.05581684
   9         0.42111599
  10         0.00000000
Sym=     6a  
Ene=    -1.2644
Spin= Alpha
Occup=    2.00000
   1        -0.04828269
   2        -0.76158289
   3        -0.00000000
   4         0.00000000
   5         0.69890634
   6        -0.03865895
   7         0.27133773
   8        -0.00000000
   9         0.00000000
  10        -0.11797634
Sym=     7a  
Ene=    -0.9594
Spin= Alpha
Occup=    2.00000
   1         0.01126780
   2        -0.05871426
   3        -0.00000000
   4         0.00000000
   5        -0.39483636
   6         0.07616845
   7         0.87904319
   8         0.00000000
   9        -0.00000000
  10         0.63037109
Sym=     8a  
Ene=    -0.3590
Spin= Alpha
Occup=    2.00000
   1        -0.00000000
   2        -0.00000000
   3        -0.88545302
   4        -0.11736241
   5         0.00000000
   6        -0.00000000
   7        -0.00000000
   8         1.05818144
   9         0.14025671
  10        -0.00000000
Sym=     9a  
Ene=    -0.0442
Spin= Alpha
Occup=    1.00000
   1         0.00000000
   2         0.00000000
   3         0.11750461
   4        -0.88652585
   5        -0.00000000
   6        -0.00000000
   7         0.00000000
   8        -0.14017308
   9         1.05755049
  10         0.00000000
Sym=    10a  
Ene=     0.0000
Spin= Alpha
Occup=    0.00000
   1         0.42063507
   2         2.09241127
   3        -0.00000000
   4         0.00000000
   5         1.24624565
   6        -0.42738419
   7        -1.98417710
   8        -0.00000000
   9        -0.00000000
  10         1.52124245
