[Molden Format]
[N_Atoms]
                     2
[Atoms] (AU)
F1          1      9           0.00000000      0.00000000      0.00000000
O2          2      8           0.00000000      0.00000000      1.32280829
[Charge] (Mulliken)
  5.288871331943668E-003
 -5.288871331966760E-003
[GTO] (AU)
   1
   s  14
  1.031094600E+05  1.713099991E-04
  1.528100700E+04  7.123999962E-04
  3.441539200E+03  2.990479984E-03
  9.670948300E+02  1.164036994E-02
  3.140353400E+02  3.968642979E-02
  1.134423000E+02  1.128546094E-01
  4.464472700E+01  2.473650687E-01
  1.894287400E+01  3.672702681E-01
  8.532743000E+00  2.896286985E-01
  3.919401000E+00  7.786681959E-02
  1.568157000E+00  4.562139976E-03
  6.232900000E-01  2.468879987E-03
  2.408610000E-01  1.106309994E-03
  8.430100000E-02  1.739699991E-04
   s  14
  1.031094600E+05 -4.044999995E-05
  1.528100700E+04 -1.682299998E-04
  3.441539200E+03 -7.084299991E-04
  9.670948300E+02 -2.767999996E-03
  3.140353400E+02 -9.611379987E-03
  1.134423000E+02 -2.833957996E-02
  4.464472700E+01 -6.839343991E-02
  1.894287400E+01 -1.237379298E-01
  8.532743000E+00 -1.512859698E-01
  3.919401000E+00 -9.099909988E-03
  1.568157000E+00  3.716257695E-01
  6.232900000E-01  5.500214393E-01
  2.408610000E-01  2.092318697E-01
  8.430100000E-02  8.074639989E-03
   p   9
  2.453302900E+02  1.024860004E-03
  5.691900500E+01  8.344290032E-03
  1.760456800E+01  4.078927016E-02
  6.274995000E+00  1.351370605E-01
  2.447030000E+00  2.798830811E-01
  9.950600000E-01  3.597966414E-01
  4.039730000E-01  3.055347412E-01
  1.548100000E-01  1.354703905E-01
  5.418400000E-02  2.804449011E-02
 
   2
   s  14
  1.053749500E+05  1.238600013E-04
  1.567924000E+04  5.120100053E-04
  3.534544700E+03  2.152910022E-03
  9.873651600E+02  8.528440089E-03
  3.159787500E+02  3.018049031E-02
  1.116542800E+02  9.099702095E-02
  4.269945100E+01  2.177936423E-01
  1.739559600E+01  3.686245738E-01
  7.438309000E+00  3.366707335E-01
  3.222862000E+00  9.657630101E-02
  1.253877000E+00  2.144520022E-03
  4.951550000E-01  1.194350012E-03
  1.916650000E-01  5.390200056E-04
  6.708300000E-02  2.103400022E-04
   s  14
  1.053749500E+05 -2.815000008E-05
  1.567924000E+04 -1.163000003E-04
  3.534544700E+03 -4.909200013E-04
  9.873651600E+02 -1.946160005E-03
  3.159787500E+02 -7.005300019E-03
  1.116542800E+02 -2.167814006E-02
  4.269945100E+01 -5.641213015E-02
  1.739559600E+01 -1.127053003E-01
  7.438309000E+00 -1.589119704E-01
  3.222862000E+00 -3.355083009E-02
  1.253877000E+00  3.531902810E-01
  4.951550000E-01  5.534199315E-01
  1.916650000E-01  2.301839106E-01
  6.708300000E-02  1.127267003E-02
   p   9
  2.000000000E+02  9.173000030E-04
  4.653336700E+01  7.377140024E-03
  1.462180900E+01  3.483515011E-02
  5.313064000E+00  1.144397004E-01
  2.102525000E+00  2.554966408E-01
  8.502230000E-01  3.722557412E-01
  3.375970000E-01  3.323314911E-01
  1.288920000E-01  1.400847905E-01
  4.511200000E-02  2.395784008E-02
 
[MO]
Sym=     1a  
Ene=   -26.9150
Spin= Alpha
Occup=    1.00000
   1         1.00101872
   2         0.00395055
   3        -0.00000000
   4        -0.00000000
   5         0.00810873
   6        -0.00064468
   7        -0.00706254
   8         0.00000000
   9        -0.00000000
  10         0.00229065
Sym=     1a  
Ene=   -26.9150
Spin= Beta
Occup=    1.00000
   1         1.00101872
   2         0.00395055
   3        -0.00000000
   4        -0.00000000
   5         0.00810873
   6        -0.00064468
   7        -0.00706254
   8         0.00000000
   9        -0.00000000
  10         0.00229065
Sym=     2a  
Ene=   -21.1040
Spin= Alpha
Occup=    1.00000
   1        -0.00568976
   2        -0.00689293
   3        -0.00000000
   4        -0.00000000
   5         0.00031369
   6         1.00065279
   7         0.00624522
   8         0.00000000
   9        -0.00000000
  10        -0.01030799
Sym=     2a  
Ene=   -21.1040
Spin= Beta
Occup=    1.00000
   1        -0.00568976
   2        -0.00689293
   3        -0.00000000
   4        -0.00000000
   5         0.00031369
   6         1.00065279
   7         0.00624522
   8         0.00000000
   9        -0.00000000
  10        -0.01030799
Sym=     3a  
Ene=    -2.7597
Spin= Alpha
Occup=    1.00000
   1        -0.06401720
   2         0.56216482
   3        -0.00000000
   4         0.00000000
   5         0.42787585
   6        -0.13634937
   7         0.19373456
   8        -0.00000000
   9        -0.00000000
  10        -0.29594343
Sym=     3a  
Ene=    -2.7597
Spin= Beta
Occup=    1.00000
   1        -0.06401720
   2         0.56216482
   3        -0.00000000
   4         0.00000000
   5         0.42787585
   6        -0.13634937
   7         0.19373456
   8        -0.00000000
   9        -0.00000000
  10        -0.29594343
Sym=     4a  
Ene=    -1.3617
Spin= Alpha
Occup=    1.00000
   1        -0.00000000
   2        -0.00000000
   3         0.70019607
   4         0.09280752
   5         0.00000000
   6        -0.00000000
   7         0.00000000
   8         0.43745316
   9         0.05798225
  10        -0.00000000
Sym=     4a  
Ene=    -1.3617
Spin= Beta
Occup=    1.00000
   1        -0.00000000
   2        -0.00000000
   3         0.70019607
   4         0.09280752
   5         0.00000000
   6        -0.00000000
   7         0.00000000
   8         0.43745316
   9         0.05798225
  10        -0.00000000
Sym=     5a  
Ene=    -1.3313
Spin= Alpha
Occup=    1.00000
   1         0.00000000
   2         0.00000000
   3        -0.09463974
   4         0.71401943
   5        -0.00000000
   6         0.00000000
   7        -0.00000000
   8        -0.05581683
   9         0.42111589
  10         0.00000000
Sym=     5a  
Ene=    -1.3313
Spin= Beta
Occup=    1.00000
   1         0.00000000
   2         0.00000000
   3        -0.09463974
   4         0.71401943
   5        -0.00000000
   6         0.00000000
   7        -0.00000000
   8        -0.05581683
   9         0.42111589
  10         0.00000000
Sym=     6a  
Ene=    -1.2644
Spin= Alpha
Occup=    1.00000
   1        -0.04828269
   2        -0.76158291
   3        -0.00000000
   4         0.00000000
   5         0.69890628
   6        -0.03865894
   7         0.27133784
   8        -0.00000000
   9         0.00000000
  10        -0.11797627
Sym=     6a  
Ene=    -1.2644
Spin= Beta
Occup=    1.00000
   1        -0.04828269
   2        -0.76158291
   3        -0.00000000
   4         0.00000000
   5         0.69890628
   6        -0.03865894
   7         0.27133784
   8        -0.00000000
   9         0.00000000
  10        -0.11797627
Sym=     7a  
Ene=    -0.9594
Spin= Alpha
Occup=    1.00000
   1         0.01126779
   2        -0.05871430
   3         0.00000000
   4         0.00000000
   5        -0.39483653
   6         0.07616848
   7         0.87904328
   8         0.00000000
   9        -0.00000000
  10         0.63037102
Sym=     7a  
Ene=    -0.9594
Spin= Beta
Occup=    1.00000
   1         0.01126779
   2        -0.05871430
   3         0.00000000
   4         0.00000000
   5        -0.39483653
   6         0.07616848
   7         0.87904328
   8         0.00000000
   9        -0.00000000
  10         0.63037102
Sym=     8a  
Ene=    -0.3593
Spin= Alpha
Occup=    1.00000
   1        -0.00000000
   2        -0.00000000
   3        -0.89748380
   4        -0.11895703
   5         0.00000000
   6        -0.00000000
   7        -0.00000000
   8         1.05089792
   9         0.13929132
  10        -0.00000000
Sym=     8a  
Ene=    -0.3593
Spin= Beta
Occup=    1.00000
   1        -0.00000000
   2        -0.00000000
   3        -0.89748380
   4        -0.11895703
   5         0.00000000
   6        -0.00000000
   7        -0.00000000
   8         1.05089792
   9         0.13929132
  10        -0.00000000
Sym=     9a  
Ene=    -0.0000
Spin= Alpha
Occup=    1.00000
   1        -0.00000000
   2        -0.00000000
   3         0.11750460
   4        -0.88652578
   5        -0.00000000
   6         0.00000000
   7         0.00000000
   8        -0.14017309
   9         1.05755053
  10         0.00000000
Sym=     9a  
Ene=    -0.0000
Spin= Beta
Occup=    0.00000
   1        -0.00000000
   2        -0.00000000
   3         0.11750460
   4        -0.88652578
   5        -0.00000000
   6         0.00000000
   7         0.00000000
   8        -0.14017309
   9         1.05755053
  10         0.00000000
Sym=    10a  
Ene=     2.1169
Spin= Alpha
Occup=    0.00000
   1         0.42063508
   2         2.09241122
   3        -0.00000000
   4        -0.00000000
   5         1.24624560
   6        -0.42738418
   7        -1.98417706
   8        -0.00000000
   9         0.00000000
  10         1.52124251
Sym=    10a  
Ene=     2.1169
Spin= Beta
Occup=    0.00000
   1         0.42063508
   2         2.09241122
   3        -0.00000000
   4        -0.00000000
   5         1.24624560
   6        -0.42738418
   7        -1.98417706
   8        -0.00000000
   9         0.00000000
  10         1.52124251
