[Molden Format]
[N_Atoms]
                     2
[Atoms] (AU)
C1          1      6           0.00000000      0.00000000      0.00000000
C2          2      6           0.00000000      0.00000000      3.59047964
[Charge] (Mulliken)
  9.237055564881302E-014
 -1.003641614261142E-013
[GTO] (AU)
   1
   s  14
  5.055750100E+04  1.128874000E-04
  7.524785600E+03  5.295373000E-04
  1.694327600E+03  2.450038300E-03
  4.728227900E+02  1.005398470E-02
  1.517107500E+02  3.545398060E-02
  5.391874600E+01  1.044071086E-01
  2.065931100E+01  2.412894918E-01
  8.383976000E+00  3.834225483E-01
  3.577015000E+00  3.078514393E-01
  1.547118000E+00  6.872442990E-02
  6.130130000E-01  2.224445000E-04
  2.460680000E-01  1.976748900E-03
  9.908700000E-02  2.057859400E-03
  3.468000000E-02  4.182020000E-04
   s  14
  5.055750100E+04 -2.507420000E-05
  7.524785600E+03 -1.175945000E-04
  1.694327600E+03 -5.456275000E-04
  4.728227900E+02 -2.245077100E-03
  1.517107500E+02 -8.043471800E-03
  5.391874600E+01 -2.442588710E-02
  2.065931100E+01 -6.136791180E-02
  8.383976000E+00 -1.177767835E-01
  3.577015000E+00 -1.550487783E-01
  1.547118000E+00 -1.933316860E-02
  6.130130000E-01  3.996930678E-01
  2.460680000E-01  5.589420949E-01
  9.908700000E-02  1.711195023E-01
  3.468000000E-02  7.456244600E-03
   p   9
  8.333315500E+01  1.344656000E-03
  1.955761100E+01  1.023555500E-02
  6.080365000E+00  4.520067100E-02
  2.179317000E+00  1.410756198E-01
  8.651500000E-01  3.047388085E-01
  3.619440000E-01  3.995281011E-01
  1.547400000E-01  2.719163432E-01
  6.542900000E-02  5.857669330E-02
  2.290000000E-02 -1.263813000E-04
 
   2
   s  14
  5.055750100E+04  1.128874000E-04
  7.524785600E+03  5.295373000E-04
  1.694327600E+03  2.450038300E-03
  4.728227900E+02  1.005398470E-02
  1.517107500E+02  3.545398060E-02
  5.391874600E+01  1.044071086E-01
  2.065931100E+01  2.412894918E-01
  8.383976000E+00  3.834225483E-01
  3.577015000E+00  3.078514393E-01
  1.547118000E+00  6.872442990E-02
  6.130130000E-01  2.224445000E-04
  2.460680000E-01  1.976748900E-03
  9.908700000E-02  2.057859400E-03
  3.468000000E-02  4.182020000E-04
   s  14
  5.055750100E+04 -2.507420000E-05
  7.524785600E+03 -1.175945000E-04
  1.694327600E+03 -5.456275000E-04
  4.728227900E+02 -2.245077100E-03
  1.517107500E+02 -8.043471800E-03
  5.391874600E+01 -2.442588710E-02
  2.065931100E+01 -6.136791180E-02
  8.383976000E+00 -1.177767835E-01
  3.577015000E+00 -1.550487783E-01
  1.547118000E+00 -1.933316860E-02
  6.130130000E-01  3.996930678E-01
  2.460680000E-01  5.589420949E-01
  9.908700000E-02  1.711195023E-01
  3.468000000E-02  7.456244600E-03
   p   9
  8.333315500E+01  1.344656000E-03
  1.955761100E+01  1.023555500E-02
  6.080365000E+00  4.520067100E-02
  2.179317000E+00  1.410756198E-01
  8.651500000E-01  3.047388085E-01
  3.619440000E-01  3.995281011E-01
  1.547400000E-01  2.719163432E-01
  6.542900000E-02  5.857669330E-02
  2.290000000E-02 -1.263813000E-04
 
[MO]
Sym=     1a  
Ene=   -11.3310
Spin= Alpha
Occup=    2.00000
   1         0.70704484
   2        -0.00211981
   3         0.00000000
   4         0.00000000
   5         0.00008403
   6         0.70704482
   7        -0.00211981
   8        -0.00000000
   9        -0.00000000
  10        -0.00008403
Sym=     2a  
Ene=   -11.3310
Spin= Alpha
Occup=    2.00000
   1        -0.70713576
   2         0.00512089
   3         0.00000000
   4         0.00000000
   5        -0.00114542
   6         0.70713578
   7        -0.00512089
   8        -0.00000000
   9        -0.00000000
  10        -0.00114542
Sym=     3a  
Ene=    -0.8298
Spin= Alpha
Occup=    2.00000
   1        -0.01023631
   2         0.61530893
   3         0.00000000
   4         0.00000000
   5         0.09157965
   6        -0.01023631
   7         0.61530893
   8        -0.00000000
   9        -0.00000000
  10        -0.09157965
Sym=     4a  
Ene=    -0.3071
Spin= Alpha
Occup=    2.00000
   1         0.00000000
   2        -0.00000000
   3        -0.33751717
   4         0.56983708
   5         0.00000000
   6         0.00000000
   7         0.00000000
   8        -0.33751717
   9         0.56983708
  10         0.00000000
Sym=     5a  
Ene=    -0.3071
Spin= Alpha
Occup=    2.00000
   1         0.00000000
   2        -0.00000000
   3         0.56983708
   4         0.33751717
   5        -0.00000000
   6         0.00000000
   7         0.00000000
   8         0.56983708
   9         0.33751717
  10         0.00000000
Sym=     6a  
Ene=    -0.5999
Spin= Alpha
Occup=    1.94143
   1        -0.01273816
   2        -0.74756379
   3        -0.00000000
   4        -0.00000000
   5         0.11594427
   6         0.01273816
   7         0.74756379
   8         0.00000000
   9        -0.00000000
  10         0.11594427
Sym=     7a  
Ene=     0.0000
Spin= Alpha
Occup=    0.05857
   1         0.01775650
   2         0.23891786
   3        -0.00000000
   4        -0.00000000
   5        -0.64088415
   6         0.01775650
   7         0.23891786
   8         0.00000000
   9        -0.00000000
  10         0.64088415
Sym=     8a  
Ene=     0.0633
Spin= Alpha
Occup=    0.00000
   1         0.00000000
   2        -0.00000000
   3         0.52126978
   4        -0.55642658
   5         0.00000000
   6        -0.00000000
   7        -0.00000000
   8        -0.52126978
   9         0.55642658
  10         0.00000000
Sym=     9a  
Ene=     0.0633
Spin= Alpha
Occup=    0.00000
   1        -0.00000000
   2        -0.00000000
   3         0.55642658
   4         0.52126978
   5        -0.00000000
   6         0.00000000
   7         0.00000000
   8        -0.55642658
   9        -0.52126978
  10        -0.00000000
Sym=    10a  
Ene=     0.3528
Spin= Alpha
Occup=    0.00000
   1        -0.03489815
   2        -0.41516516
   3        -0.00000000
   4        -0.00000000
   5        -0.87560840
   6         0.03489815
   7         0.41516516
   8         0.00000000
   9         0.00000000
  10        -0.87560840
