[Molden Format]
[N_Atoms]
                     2
[Atoms] (AU)
C1          1      6           0.00000000      0.00000000      0.00000000
C2          2      6           0.00000000      0.00000000      3.59047964
[Charge] (Mulliken)
   1.00772999334404     
  0.992270006655935     
[GTO] (AU)
   1
   s  14
  5.055750100E+04  1.128874000E-04
  7.524785600E+03  5.295373000E-04
  1.694327600E+03  2.450038300E-03
  4.728227900E+02  1.005398470E-02
  1.517107500E+02  3.545398060E-02
  5.391874600E+01  1.044071086E-01
  2.065931100E+01  2.412894918E-01
  8.383976000E+00  3.834225483E-01
  3.577015000E+00  3.078514393E-01
  1.547118000E+00  6.872442990E-02
  6.130130000E-01  2.224445000E-04
  2.460680000E-01  1.976748900E-03
  9.908700000E-02  2.057859400E-03
  3.468000000E-02  4.182020000E-04
   s  14
  5.055750100E+04 -2.507420000E-05
  7.524785600E+03 -1.175945000E-04
  1.694327600E+03 -5.456275000E-04
  4.728227900E+02 -2.245077100E-03
  1.517107500E+02 -8.043471800E-03
  5.391874600E+01 -2.442588710E-02
  2.065931100E+01 -6.136791180E-02
  8.383976000E+00 -1.177767835E-01
  3.577015000E+00 -1.550487783E-01
  1.547118000E+00 -1.933316860E-02
  6.130130000E-01  3.996930678E-01
  2.460680000E-01  5.589420949E-01
  9.908700000E-02  1.711195023E-01
  3.468000000E-02  7.456244600E-03
   p   9
  8.333315500E+01  1.344656000E-03
  1.955761100E+01  1.023555500E-02
  6.080365000E+00  4.520067100E-02
  2.179317000E+00  1.410756198E-01
  8.651500000E-01  3.047388085E-01
  3.619440000E-01  3.995281011E-01
  1.547400000E-01  2.719163432E-01
  6.542900000E-02  5.857669330E-02
  2.290000000E-02 -1.263813000E-04
 
   2
   s  14
  5.055750100E+04  1.128874000E-04
  7.524785600E+03  5.295373000E-04
  1.694327600E+03  2.450038300E-03
  4.728227900E+02  1.005398470E-02
  1.517107500E+02  3.545398060E-02
  5.391874600E+01  1.044071086E-01
  2.065931100E+01  2.412894918E-01
  8.383976000E+00  3.834225483E-01
  3.577015000E+00  3.078514393E-01
  1.547118000E+00  6.872442990E-02
  6.130130000E-01  2.224445000E-04
  2.460680000E-01  1.976748900E-03
  9.908700000E-02  2.057859400E-03
  3.468000000E-02  4.182020000E-04
   s  14
  5.055750100E+04 -2.507420000E-05
  7.524785600E+03 -1.175945000E-04
  1.694327600E+03 -5.456275000E-04
  4.728227900E+02 -2.245077100E-03
  1.517107500E+02 -8.043471800E-03
  5.391874600E+01 -2.442588710E-02
  2.065931100E+01 -6.136791180E-02
  8.383976000E+00 -1.177767835E-01
  3.577015000E+00 -1.550487783E-01
  1.547118000E+00 -1.933316860E-02
  6.130130000E-01  3.996930678E-01
  2.460680000E-01  5.589420949E-01
  9.908700000E-02  1.711195023E-01
  3.468000000E-02  7.456244600E-03
   p   9
  8.333315500E+01  1.344656000E-03
  1.955761100E+01  1.023555500E-02
  6.080365000E+00  4.520067100E-02
  2.179317000E+00  1.410756198E-01
  8.651500000E-01  3.047388085E-01
  3.619440000E-01  3.995281011E-01
  1.547400000E-01  2.719163432E-01
  6.542900000E-02  5.857669330E-02
  2.290000000E-02 -1.263813000E-04
 
[MO]
Sym=     1a  
Ene=   -12.3330
Spin= Alpha
Occup=    2.00000
   1         0.99980579
   2        -0.01643455
   3        -0.00000000
   4         0.00000000
   5        -0.00067987
   6         0.00977529
   7         0.00272249
   8        -0.00000000
   9         0.00000000
  10         0.00088604
Sym=     2a  
Ene=   -12.3270
Spin= Alpha
Occup=    2.00000
   1        -0.00968495
   2        -0.00009087
   3        -0.00000000
   4         0.00000000
   5         0.00002538
   6         0.99994487
   7        -0.00457851
   8        -0.00000000
   9         0.00000000
  10        -0.00001630
Sym=     3a  
Ene=    -1.5015
Spin= Alpha
Occup=    2.00000
   1        -0.01672041
   2        -0.00581716
   3        -0.00000000
   4         0.00000000
   5         0.10845533
   6         0.00107388
   7         0.95802778
   8        -0.00000000
   9         0.00000000
  10        -0.09846734
Sym=     4a  
Ene=    -1.0494
Spin= Alpha
Occup=    2.00000
   1        -0.00000000
   2         0.00000000
   3        -0.24847846
   4         0.60460308
   5         0.00000000
   6        -0.00000000
   7        -0.00000000
   8        -0.25500119
   9         0.62047433
  10        -0.00000000
Sym=     5a  
Ene=    -0.6716
Spin= Alpha
Occup=    0.04929
   1        -0.00000000
   2         0.00000000
   3         0.92817328
   4         0.38145863
   5        -0.00000000
   6         0.00000000
   7         0.00000000
   8        -0.02564369
   9        -0.01053899
  10         0.00000000
Sym=     6a  
Ene=    -0.0918
Spin= Alpha
Occup=    1.95071
   1        -0.01791320
   2        -0.99894356
   3        -0.00000000
   4         0.00000000
   5        -0.06499551
   6         0.01748497
   7         0.26117262
   8        -0.00000000
   9         0.00000000
  10         0.07319204
Sym=     7a  
Ene=    -0.7628
Spin= Alpha
Occup=    0.00000
   1         0.01712255
   2         0.25848458
   3        -0.00000000
   4         0.00000000
   5        -0.63922194
   6         0.01775178
   7         0.28146380
   8        -0.00000000
   9         0.00000000
  10         0.63141742
Sym=     8a  
Ene=    -0.7035
Spin= Alpha
Occup=    0.00000
   1        -0.00000000
   2        -0.00000000
   3         0.29264341
   4        -0.71206620
   5        -0.00000000
   6         0.00000000
   7         0.00000000
   8        -0.28697753
   9         0.69827986
  10        -0.00000000
Sym=     9a  
Ene=    -0.6489
Spin= Alpha
Occup=    0.00000
   1         0.00000000
   2         0.00000000
   3        -0.10524975
   4        -0.04325531
   5        -0.00000000
   6         0.00000000
   7         0.00000000
   8         0.93376954
   9         0.38375857
  10         0.00000000
Sym=    10a  
Ene=    -0.4651
Spin= Alpha
Occup=    0.00000
   1        -0.03397894
   2        -0.31925665
   3        -0.00000000
   4         0.00000000
   5        -0.88014866
   6         0.03385732
   7         0.31883014
   8         0.00000000
   9        -0.00000000
  10        -0.88629123
