[Molden Format]
[N_Atoms]
                     2
[Atoms] (AU)
C1          1      6           0.00000000      0.00000000      0.00000000
C2          2      6           0.00000000      0.00000000      3.59047964
[Charge] (Mulliken)
 -6.200551183610514E-011
  6.199663005190814E-011
[GTO] (AU)
   1
   s  14
  5.055750100E+04  1.128874000E-04
  7.524785600E+03  5.295373000E-04
  1.694327600E+03  2.450038300E-03
  4.728227900E+02  1.005398470E-02
  1.517107500E+02  3.545398060E-02
  5.391874600E+01  1.044071086E-01
  2.065931100E+01  2.412894918E-01
  8.383976000E+00  3.834225483E-01
  3.577015000E+00  3.078514393E-01
  1.547118000E+00  6.872442990E-02
  6.130130000E-01  2.224445000E-04
  2.460680000E-01  1.976748900E-03
  9.908700000E-02  2.057859400E-03
  3.468000000E-02  4.182020000E-04
   s  14
  5.055750100E+04 -2.507420000E-05
  7.524785600E+03 -1.175945000E-04
  1.694327600E+03 -5.456275000E-04
  4.728227900E+02 -2.245077100E-03
  1.517107500E+02 -8.043471800E-03
  5.391874600E+01 -2.442588710E-02
  2.065931100E+01 -6.136791180E-02
  8.383976000E+00 -1.177767835E-01
  3.577015000E+00 -1.550487783E-01
  1.547118000E+00 -1.933316860E-02
  6.130130000E-01  3.996930678E-01
  2.460680000E-01  5.589420949E-01
  9.908700000E-02  1.711195023E-01
  3.468000000E-02  7.456244600E-03
   p   9
  8.333315500E+01  1.344656000E-03
  1.955761100E+01  1.023555500E-02
  6.080365000E+00  4.520067100E-02
  2.179317000E+00  1.410756198E-01
  8.651500000E-01  3.047388085E-01
  3.619440000E-01  3.995281011E-01
  1.547400000E-01  2.719163432E-01
  6.542900000E-02  5.857669330E-02
  2.290000000E-02 -1.263813000E-04
 
   2
   s  14
  5.055750100E+04  1.128874000E-04
  7.524785600E+03  5.295373000E-04
  1.694327600E+03  2.450038300E-03
  4.728227900E+02  1.005398470E-02
  1.517107500E+02  3.545398060E-02
  5.391874600E+01  1.044071086E-01
  2.065931100E+01  2.412894918E-01
  8.383976000E+00  3.834225483E-01
  3.577015000E+00  3.078514393E-01
  1.547118000E+00  6.872442990E-02
  6.130130000E-01  2.224445000E-04
  2.460680000E-01  1.976748900E-03
  9.908700000E-02  2.057859400E-03
  3.468000000E-02  4.182020000E-04
   s  14
  5.055750100E+04 -2.507420000E-05
  7.524785600E+03 -1.175945000E-04
  1.694327600E+03 -5.456275000E-04
  4.728227900E+02 -2.245077100E-03
  1.517107500E+02 -8.043471800E-03
  5.391874600E+01 -2.442588710E-02
  2.065931100E+01 -6.136791180E-02
  8.383976000E+00 -1.177767835E-01
  3.577015000E+00 -1.550487783E-01
  1.547118000E+00 -1.933316860E-02
  6.130130000E-01  3.996930678E-01
  2.460680000E-01  5.589420949E-01
  9.908700000E-02  1.711195023E-01
  3.468000000E-02  7.456244600E-03
   p   9
  8.333315500E+01  1.344656000E-03
  1.955761100E+01  1.023555500E-02
  6.080365000E+00  4.520067100E-02
  2.179317000E+00  1.410756198E-01
  8.651500000E-01  3.047388085E-01
  3.619440000E-01  3.995281011E-01
  1.547400000E-01  2.719163432E-01
  6.542900000E-02  5.857669330E-02
  2.290000000E-02 -1.263813000E-04
 
[MO]
Sym=     1a  
Ene=   -11.3280
Spin= Alpha
Occup=    1.00000
   1         0.70704543
   2        -0.00215972
   3         0.00000000
   4         0.00000000
   5         0.00008172
   6         0.70704532
   7        -0.00215972
   8        -0.00000000
   9         0.00000000
  10        -0.00008172
Sym=     1a  
Ene=   -11.3280
Spin= Beta
Occup=    1.00000
   1         0.70704543
   2        -0.00215972
   3         0.00000000
   4         0.00000000
   5         0.00008172
   6         0.70704532
   7        -0.00215972
   8        -0.00000000
   9         0.00000000
  10        -0.00008172
Sym=     2a  
Ene=   -11.3280
Spin= Alpha
Occup=    1.00000
   1        -0.70719128
   2         0.00139465
   3         0.00000000
   4        -0.00000000
   5        -0.00059440
   6         0.70719139
   7        -0.00139465
   8        -0.00000000
   9         0.00000000
  10        -0.00059440
Sym=     2a  
Ene=   -11.3280
Spin= Beta
Occup=    1.00000
   1        -0.70719128
   2         0.00139465
   3         0.00000000
   4        -0.00000000
   5        -0.00059440
   6         0.70719139
   7        -0.00139465
   8        -0.00000000
   9         0.00000000
  10        -0.00059440
Sym=     3a  
Ene=    -0.8323
Spin= Alpha
Occup=    1.00000
   1        -0.00967972
   2         0.62189118
   3        -0.00000000
   4         0.00000000
   5         0.07320991
   6        -0.00967972
   7         0.62189118
   8        -0.00000000
   9         0.00000000
  10        -0.07320991
Sym=     3a  
Ene=    -0.8323
Spin= Beta
Occup=    1.00000
   1        -0.00967972
   2         0.62189118
   3        -0.00000000
   4         0.00000000
   5         0.07320991
   6        -0.00967972
   7         0.62189118
   8        -0.00000000
   9         0.00000000
  10        -0.07320991
Sym=     4a  
Ene=    -0.6134
Spin= Alpha
Occup=    1.00000
   1        -0.01010991
   2        -0.75791145
   3        -0.00000000
   4         0.00000000
   5         0.09360981
   6         0.01010991
   7         0.75791145
   8         0.00000000
   9        -0.00000000
  10         0.09360981
Sym=     4a  
Ene=    -0.6134
Spin= Beta
Occup=    1.00000
   1        -0.01010991
   2        -0.75791145
   3        -0.00000000
   4         0.00000000
   5         0.09360981
   6         0.01010991
   7         0.75791145
   8         0.00000000
   9        -0.00000000
  10         0.09360981
Sym=     5a  
Ene=    -0.3076
Spin= Alpha
Occup=    1.00000
   1        -0.00000000
   2        -0.00000000
   3        -0.32939691
   4         0.57456924
   5         0.00000000
   6        -0.00000000
   7        -0.00000000
   8        -0.32939691
   9         0.57456924
  10        -0.00000000
Sym=     5a  
Ene=    -0.3076
Spin= Beta
Occup=    1.00000
   1        -0.00000000
   2        -0.00000000
   3        -0.32939691
   4         0.57456924
   5         0.00000000
   6        -0.00000000
   7        -0.00000000
   8        -0.32939691
   9         0.57456924
  10        -0.00000000
Sym=     6a  
Ene=    -0.3076
Spin= Alpha
Occup=    1.00000
   1         0.00000000
   2         0.00000000
   3         0.57456924
   4         0.32939691
   5        -0.00000000
   6         0.00000000
   7         0.00000000
   8         0.57456924
   9         0.32939691
  10         0.00000000
Sym=     6a  
Ene=    -0.3076
Spin= Beta
Occup=    1.00000
   1         0.00000000
   2         0.00000000
   3         0.57456924
   4         0.32939691
   5        -0.00000000
   6         0.00000000
   7         0.00000000
   8         0.57456924
   9         0.32939691
  10         0.00000000
Sym=     7a  
Ene=    -0.0114
Spin= Alpha
Occup=    0.00000
   1         0.01804456
   2         0.22121939
   3        -0.00000000
   4         0.00000000
   5        -0.64324151
   6         0.01804456
   7         0.22121939
   8        -0.00000000
   9         0.00000000
  10         0.64324151
Sym=     7a  
Ene=    -0.0114
Spin= Beta
Occup=    0.00000
   1         0.01804456
   2         0.22121939
   3        -0.00000000
   4         0.00000000
   5        -0.64324151
   6         0.01804456
   7         0.22121939
   8        -0.00000000
   9         0.00000000
  10         0.64324151
Sym=     8a  
Ene=     0.0623
Spin= Alpha
Occup=    0.00000
   1        -0.00000000
   2        -0.00000000
   3         0.52665508
   4        -0.55133215
   5        -0.00000000
   6         0.00000000
   7         0.00000000
   8        -0.52665508
   9         0.55133215
  10        -0.00000000
Sym=     8a  
Ene=     0.0623
Spin= Beta
Occup=    0.00000
   1        -0.00000000
   2        -0.00000000
   3         0.52665508
   4        -0.55133215
   5        -0.00000000
   6         0.00000000
   7         0.00000000
   8        -0.52665508
   9         0.55133215
  10        -0.00000000
Sym=     9a  
Ene=     0.0623
Spin= Alpha
Occup=    0.00000
   1         0.00000000
   2         0.00000000
   3        -0.55133215
   4        -0.52665508
   5        -0.00000000
   6         0.00000000
   7        -0.00000000
   8         0.55133215
   9         0.52665508
  10         0.00000000
Sym=     9a  
Ene=     0.0623
Spin= Beta
Occup=    0.00000
   1         0.00000000
   2         0.00000000
   3        -0.55133215
   4        -0.52665508
   5        -0.00000000
   6         0.00000000
   7        -0.00000000
   8         0.55133215
   9         0.52665508
  10         0.00000000
Sym=    10a  
Ene=     0.3533
Spin= Alpha
Occup=    0.00000
   1         0.03463165
   2         0.39599020
   3         0.00000000
   4        -0.00000000
   5         0.87827746
   6        -0.03463165
   7        -0.39599020
   8        -0.00000000
   9         0.00000000
  10         0.87827746
Sym=    10a  
Ene=     0.3533
Spin= Beta
Occup=    0.00000
   1         0.03463165
   2         0.39599020
   3         0.00000000
   4        -0.00000000
   5         0.87827746
   6        -0.03463165
   7        -0.39599020
   8        -0.00000000
   9         0.00000000
  10         0.87827746
