[Molden Format]
[N_Atoms]
                     2
[Atoms] (AU)
F1          1      9           0.00000000      0.00000000      0.00000000
LI2         2      3           0.00000000      0.00000000      5.29123315
[Charge] (Mulliken)
 -0.263984793696222     
  0.263984793696186     
[GTO] (AU)
   1
   s  14
  1.031094600E+05  1.713099991E-04
  1.528100700E+04  7.123999962E-04
  3.441539200E+03  2.990479984E-03
  9.670948300E+02  1.164036994E-02
  3.140353400E+02  3.968642979E-02
  1.134423000E+02  1.128546094E-01
  4.464472700E+01  2.473650687E-01
  1.894287400E+01  3.672702681E-01
  8.532743000E+00  2.896286985E-01
  3.919401000E+00  7.786681959E-02
  1.568157000E+00  4.562139976E-03
  6.232900000E-01  2.468879987E-03
  2.408610000E-01  1.106309994E-03
  8.430100000E-02  1.739699991E-04
   s  14
  1.031094600E+05 -4.044999995E-05
  1.528100700E+04 -1.682299998E-04
  3.441539200E+03 -7.084299991E-04
  9.670948300E+02 -2.767999996E-03
  3.140353400E+02 -9.611379987E-03
  1.134423000E+02 -2.833957996E-02
  4.464472700E+01 -6.839343991E-02
  1.894287400E+01 -1.237379298E-01
  8.532743000E+00 -1.512859698E-01
  3.919401000E+00 -9.099909988E-03
  1.568157000E+00  3.716257695E-01
  6.232900000E-01  5.500214393E-01
  2.408610000E-01  2.092318697E-01
  8.430100000E-02  8.074639989E-03
   p   9
  2.453302900E+02  1.024860004E-03
  5.691900500E+01  8.344290032E-03
  1.760456800E+01  4.078927016E-02
  6.274995000E+00  1.351370605E-01
  2.447030000E+00  2.798830811E-01
  9.950600000E-01  3.597966414E-01
  4.039730000E-01  3.055347412E-01
  1.548100000E-01  1.354703905E-01
  5.418400000E-02  2.804449011E-02
 
   2
   s  14
  9.497934400E+03  9.668999974E-05
  1.416811200E+03  6.087099984E-04
  3.214599400E+02  3.101519992E-03
  9.112416300E+01  1.266904997E-02
  2.999989100E+01  4.248012989E-02
  1.101763100E+01  1.150183297E-01
  4.372801000E+00  2.398650094E-01
  1.831256000E+00  3.584300090E-01
  8.022610000E-01  3.048527792E-01
  3.626480000E-01  8.824261976E-02
  1.139950000E-01 -8.445899977E-04
  5.123700000E-02 -7.943959979E-03
  2.246800000E-02 -3.764419990E-03
  7.860000000E-03 -8.868999976E-05
   s  14
  9.497934400E+03 -1.244999993E-05
  1.416811200E+03 -7.838999954E-05
  3.214599400E+02 -4.007099976E-04
  9.112416300E+01 -1.645249990E-03
  2.999989100E+01 -5.634599967E-03
  1.101763100E+01 -1.590780991E-02
  4.372801000E+00 -3.612581979E-02
  1.831256000E+00 -6.459927962E-02
  8.022610000E-01 -1.008321794E-01
  3.626480000E-01 -9.757613942E-02
  1.139950000E-01  2.301215886E-01
  5.123700000E-02  6.102389764E-01
  2.246800000E-02  2.849406083E-01
  7.860000000E-03  4.026899976E-03
   p   9
  1.311950400E+01  1.524940000E-03
  3.077424200E+00  8.314830000E-03
  1.098800500E+00  1.933203000E-02
  4.357784000E-01  4.934293000E-02
  1.802432000E-01  1.623554000E-01
  7.613330000E-02  3.847505400E-01
  3.254650000E-02  4.336100400E-01
  1.401820000E-02  1.287005900E-01
  4.906400000E-03 -1.018520000E-03
 
[MO]
Sym=     1a  
Ene=   -26.1900
Spin= Alpha
Occup=    2.00000
   1         1.00000348
   2        -0.00295190
   3        -0.00000000
   4        -0.00000000
   5         0.00001882
   6        -0.00000359
   7        -0.00027516
   8        -0.00000000
   9        -0.00000000
  10         0.00022419
Sym=     2a  
Ene=    -2.5104
Spin= Alpha
Occup=    2.00000
   1         0.00001520
   2         0.00053424
   3         0.00000000
   4         0.00000000
   5         0.00120164
   6         0.99990098
   7         0.01300196
   8        -0.00000000
   9        -0.00000000
  10         0.00102304
Sym=     3a  
Ene=    -1.4403
Spin= Alpha
Occup=    2.00000
   1         0.00303600
   2         0.99945441
   3        -0.00000000
   4        -0.00000000
   5        -0.03503319
   6        -0.00099571
   7        -0.00905062
   8        -0.00000000
   9        -0.00000000
  10        -0.00447399
Sym=     4a  
Ene=    -0.5658
Spin= Alpha
Occup=    2.00000
   1        -0.00000000
   2        -0.00000000
   3        -0.98407514
   4        -0.17562463
   5         0.00000005
   6        -0.00000000
   7        -0.00000000
   8        -0.00456007
   9        -0.00081382
  10        -0.00000000
Sym=     5a  
Ene=    -0.5658
Spin= Alpha
Occup=    2.00000
   1        -0.00000000
   2        -0.00000000
   3         0.17562463
   4        -0.98407514
   5         0.00000002
   6        -0.00000000
   7        -0.00000000
   8         0.00081382
   9        -0.00456007
  10        -0.00000000
Sym=     6a  
Ene=    -0.3278
Spin= Alpha
Occup=    1.72520
   1         0.00806840
   2         0.05179248
   3        -0.00000004
   4        -0.00000002
   5        -0.79766855
   6         0.01587184
   7        -0.51047982
   8        -0.00000001
   9        -0.00000000
  10         0.10981093
Sym=     7a  
Ene=    -0.0003
Spin= Alpha
Occup=    0.27480
   1         0.01436554
   2         0.16183939
   3         0.00000002
   4         0.00000002
   5         0.61595754
   6         0.00364778
   7        -0.85297738
   8        -0.00000001
   9        -0.00000001
  10         0.21174850
Sym=     8a  
Ene=     0.0571
Spin= Alpha
Occup=    0.00000
   1        -0.00000000
   2        -0.00000001
   3        -0.08376068
   4        -0.00003530
   5        -0.00000000
   6         0.00000000
   7        -0.00000003
   8         1.00311620
   9         0.00042277
  10        -0.00000008
Sym=     9a  
Ene=     0.0571
Spin= Alpha
Occup=    0.00000
   1        -0.00000000
   2        -0.00000001
   3         0.00003530
   4        -0.08376068
   5        -0.00000000
   6         0.00000000
   7        -0.00000002
   8        -0.00042277
   9         1.00311620
  10        -0.00000005
Sym=    10a  
Ene=     0.0679
Spin= Alpha
Occup=    0.00000
   1         0.01968832
   2         0.19895680
   3        -0.00000001
   4        -0.00000001
   5         0.06760519
   6        -0.00446773
   7         0.19613519
   8         0.00000008
   9         0.00000005
  10         1.00281825
