[Molden Format]
[N_Atoms]
                     2
[Atoms] (AU)
B1          1      5           0.00000000      0.00000000      0.00000000
O2          2      8           0.00000000      0.00000000      3.02356180
[Charge] (Mulliken)
  0.473076668615796     
 -0.473076668615832     
[GTO] (AU)
   1
   s  14
  3.336021700E+04  1.039699991E-04
  4.972095200E+03  5.254399956E-04
  1.125641700E+03  2.509059979E-03
  3.164913600E+02  1.031887991E-02
  1.020072600E+02  3.636632969E-02
  3.629587300E+01  1.064607991E-01
  1.397141000E+01  2.403999880E-01
  5.741156000E+00  3.748581168E-01
  2.494268000E+00  3.100066974E-01
  1.114202000E+00  7.922455933E-02
  4.215490000E-01 -4.947589958E-03
  1.696330000E-01 -7.737119935E-03
  6.853500000E-02 -1.501079987E-03
  2.398700000E-02 -1.333299989E-04
   s  14
  3.336021700E+04 -2.030000008E-05
  4.972095200E+03 -1.025700004E-04
  1.125641700E+03 -4.911300020E-04
  3.164913600E+02 -2.026570008E-03
  1.020072600E+02 -7.261010030E-03
  3.629587300E+01 -2.197722009E-02
  1.397141000E+01 -5.408428022E-02
  5.741156000E+00 -1.022402604E-01
  2.494268000E+00 -1.423595206E-01
  1.114202000E+00 -4.658690019E-02
  4.215490000E-01  3.799402916E-01
  1.696330000E-01  5.890463624E-01
  6.853500000E-02  1.749075107E-01
  2.398700000E-02 -1.142030005E-03
   p   9
  5.500000000E+01  1.229800005E-03
  1.336610100E+01  8.827380035E-03
  4.135394000E+00  3.843340015E-02
  1.481256000E+00  1.150031805E-01
  6.021360000E-01  2.733674011E-01
  2.556360000E-01  4.061972116E-01
  1.111510000E-01  3.014967912E-01
  4.764800000E-02  7.684809030E-02
  1.667700000E-02 -8.170000032E-06
 
   2
   s  14
  1.053749500E+05  1.238600013E-04
  1.567924000E+04  5.120100053E-04
  3.534544700E+03  2.152910022E-03
  9.873651600E+02  8.528440089E-03
  3.159787500E+02  3.018049031E-02
  1.116542800E+02  9.099702095E-02
  4.269945100E+01  2.177936423E-01
  1.739559600E+01  3.686245738E-01
  7.438309000E+00  3.366707335E-01
  3.222862000E+00  9.657630101E-02
  1.253877000E+00  2.144520022E-03
  4.951550000E-01  1.194350012E-03
  1.916650000E-01  5.390200056E-04
  6.708300000E-02  2.103400022E-04
   s  14
  1.053749500E+05 -2.815000008E-05
  1.567924000E+04 -1.163000003E-04
  3.534544700E+03 -4.909200013E-04
  9.873651600E+02 -1.946160005E-03
  3.159787500E+02 -7.005300019E-03
  1.116542800E+02 -2.167814006E-02
  4.269945100E+01 -5.641213015E-02
  1.739559600E+01 -1.127053003E-01
  7.438309000E+00 -1.589119704E-01
  3.222862000E+00 -3.355083009E-02
  1.253877000E+00  3.531902810E-01
  4.951550000E-01  5.534199315E-01
  1.916650000E-01  2.301839106E-01
  6.708300000E-02  1.127267003E-02
   p   9
  2.000000000E+02  9.173000030E-04
  4.653336700E+01  7.377140024E-03
  1.462180900E+01  3.483515011E-02
  5.313064000E+00  1.144397004E-01
  2.102525000E+00  2.554966408E-01
  8.502230000E-01  3.722557412E-01
  3.375970000E-01  3.323314911E-01
  1.288920000E-01  1.400847905E-01
  4.511200000E-02  2.395784008E-02
 
[MO]
Sym=     1a  
Ene=   -20.5510
Spin= Alpha
Occup=    1.00000
   1        -0.00010123
   2        -0.00068536
   3         0.00000000
   4         0.00000000
   5        -0.00060938
   6         1.00004606
   7         0.00137554
   8         0.00000000
   9         0.00000000
  10        -0.00094870
Sym=     1a  
Ene=   -20.5280
Spin= Beta
Occup=    1.00000
   1        -0.00008295
   2        -0.00044512
   3         0.00000000
   4         0.00000000
   5        -0.00042098
   6         1.00003122
   7        -0.00022484
   8         0.00000000
   9        -0.00000000
  10        -0.00092954
Sym=     2a  
Ene=    -7.8176
Spin= Alpha
Occup=    1.00000
   1         0.99986171
   2         0.01389435
   3         0.00000000
   4         0.00000000
   5         0.00037265
   6        -0.00009213
   7         0.00026082
   8        -0.00000000
   9         0.00000000
  10        -0.00071244
Sym=     2a  
Ene=    -7.8144
Spin= Beta
Occup=    1.00000
   1         0.99990672
   2         0.01315607
   3         0.00000000
   4        -0.00000000
   5         0.00119847
   6        -0.00010150
   7        -0.00004695
   8        -0.00000000
   9        -0.00000000
  10        -0.00013671
Sym=     3a  
Ene=    -1.2808
Spin= Alpha
Occup=    1.00000
   1        -0.02350408
   2         0.09732268
   3         0.00000000
   4         0.00000000
   5         0.08390733
   6        -0.00748009
   7         0.92816319
   8        -0.00000000
   9        -0.00000000
  10        -0.06764621
Sym=     3a  
Ene=    -1.1878
Spin= Beta
Occup=    1.00000
   1        -0.02471713
   2         0.14254702
   3         0.00000000
   4         0.00000000
   5         0.08991530
   6        -0.00754386
   7         0.90342168
   8         0.00000000
   9         0.00000000
  10        -0.09433329
Sym=     4a  
Ene=    -0.6611
Spin= Alpha
Occup=    1.00000
   1         0.03731472
   2        -0.54374353
   3        -0.00000000
   4         0.00000000
   5        -0.04253193
   6         0.01613255
   7         0.30564256
   8         0.00000000
   9         0.00000000
  10         0.69187220
Sym=     4a  
Ene=    -0.5087
Spin= Beta
Occup=    1.00000
   1         0.01687873
   2        -0.89610755
   3         0.00000000
   4         0.00000000
   5        -0.07778926
   6         0.02695068
   7         0.46552583
   8         0.00000000
   9         0.00000000
  10         0.27855898
Sym=     5a  
Ene=    -0.5026
Spin= Alpha
Occup=    1.00000
   1         0.00000000
   2         0.00000000
   3         0.21149274
   4        -0.02071632
   5        -0.00000000
   6         0.00000000
   7        -0.00000000
   8         0.92998083
   9        -0.09109429
  10         0.00000000
Sym=     5a  
Ene=    -0.4606
Spin= Beta
Occup=    1.00000
   1        -0.00000000
   2         0.00000000
   3         0.27957506
   4         0.00228901
   5         0.00000000
   6        -0.00000000
   7        -0.00000000
   8         0.90430984
   9         0.00740401
  10        -0.00000000
Sym=     6a  
Ene=    -0.5026
Spin= Alpha
Occup=    1.00000
   1         0.00000000
   2         0.00000000
   3         0.02071632
   4         0.21149274
   5        -0.00000000
   6         0.00000000
   7         0.00000000
   8         0.09109429
   9         0.92998083
  10         0.00000000
Sym=     6a  
Ene=    -0.4606
Spin= Beta
Occup=    1.00000
   1        -0.00000000
   2         0.00000000
   3        -0.00228901
   4         0.27957506
   5         0.00000000
   6        -0.00000000
   7        -0.00000000
   8        -0.00740401
   9         0.90430984
  10        -0.00000000
Sym=     7a  
Ene=    -0.4960
Spin= Alpha
Occup=    1.00000
   1         0.01439539
   2         0.71852441
   3        -0.00000000
   4        -0.00000000
   5        -0.56569176
   6         0.00921766
   7         0.05254459
   8        -0.00000000
   9        -0.00000000
  10         0.48974258
Sym=     7a  
Ene=     0.0073
Spin= Beta
Occup=    0.00000
   1         0.01969473
   2         0.39717169
   3        -0.00000000
   4        -0.00000000
   5        -0.69512018
   6         0.02377486
   7         0.25380171
   8         0.00000000
   9         0.00000000
  10         0.57106574
Sym=     8a  
Ene=     0.0726
Spin= Alpha
Occup=    0.00000
   1        -0.00000000
   2        -0.00000000
   3        -0.98874890
   4         0.14623409
   5         0.00000000
   6         0.00000000
   7         0.00000000
   8         0.40907720
   9        -0.06050175
  10        -0.00000000
Sym=     8a  
Ene=     0.0812
Spin= Beta
Occup=    0.00000
   1        -0.00000000
   2        -0.00000000
   3        -0.96951870
   4         0.16134797
   5         0.00000000
   6         0.00000000
   7         0.00000000
   8         0.46929352
   9        -0.07810015
  10        -0.00000000
Sym=     9a  
Ene=     0.0726
Spin= Alpha
Occup=    0.00000
   1        -0.00000000
   2        -0.00000000
   3        -0.14623409
   4        -0.98874890
   5         0.00000000
   6         0.00000000
   7         0.00000000
   8         0.06050175
   9         0.40907720
  10        -0.00000000
Sym=     9a  
Ene=     0.0812
Spin= Beta
Occup=    0.00000
   1        -0.00000000
   2        -0.00000000
   3        -0.16134797
   4        -0.96951870
   5         0.00000000
   6         0.00000000
   7         0.00000000
   8         0.07810015
   9         0.46929352
  10        -0.00000000
Sym=    10a  
Ene=     0.3369
Spin= Alpha
Occup=    0.00000
   1         0.03927918
   2         0.65744721
   3        -0.00000000
   4        -0.00000000
   5         1.00318126
   6        -0.06437150
   7        -0.63892802
   8        -0.00000000
   9        -0.00000000
  10         0.70628533
Sym=    10a  
Ene=     0.4512
Spin= Beta
Occup=    0.00000
   1         0.04817889
   2         0.52210093
   3        -0.00000000
   4        -0.00000000
   5         0.91536884
   6        -0.05679849
   7        -0.51826228
   8         0.00000000
   9         0.00000000
  10         0.89963353
