[Molden Format]
[N_Atoms]
                     2
[Atoms] (AU)
C1          1      6           0.00000000      0.00000000      0.00000000
LI2         2      3           0.00000000      0.00000000      4.34637009
[Charge] (Mulliken)
  4.407859607109632E-002
 -4.407859607114828E-002
[GTO] (AU)
   1
   s  14
  5.055750100E+04  1.128874000E-04
  7.524785600E+03  5.295373000E-04
  1.694327600E+03  2.450038300E-03
  4.728227900E+02  1.005398470E-02
  1.517107500E+02  3.545398060E-02
  5.391874600E+01  1.044071086E-01
  2.065931100E+01  2.412894918E-01
  8.383976000E+00  3.834225483E-01
  3.577015000E+00  3.078514393E-01
  1.547118000E+00  6.872442990E-02
  6.130130000E-01  2.224445000E-04
  2.460680000E-01  1.976748900E-03
  9.908700000E-02  2.057859400E-03
  3.468000000E-02  4.182020000E-04
   s  14
  5.055750100E+04 -2.507420000E-05
  7.524785600E+03 -1.175945000E-04
  1.694327600E+03 -5.456275000E-04
  4.728227900E+02 -2.245077100E-03
  1.517107500E+02 -8.043471800E-03
  5.391874600E+01 -2.442588710E-02
  2.065931100E+01 -6.136791180E-02
  8.383976000E+00 -1.177767835E-01
  3.577015000E+00 -1.550487783E-01
  1.547118000E+00 -1.933316860E-02
  6.130130000E-01  3.996930678E-01
  2.460680000E-01  5.589420949E-01
  9.908700000E-02  1.711195023E-01
  3.468000000E-02  7.456244600E-03
   p   9
  8.333315500E+01  1.344656000E-03
  1.955761100E+01  1.023555500E-02
  6.080365000E+00  4.520067100E-02
  2.179317000E+00  1.410756198E-01
  8.651500000E-01  3.047388085E-01
  3.619440000E-01  3.995281011E-01
  1.547400000E-01  2.719163432E-01
  6.542900000E-02  5.857669330E-02
  2.290000000E-02 -1.263813000E-04
 
   2
   s  14
  9.497934400E+03  9.668999974E-05
  1.416811200E+03  6.087099984E-04
  3.214599400E+02  3.101519992E-03
  9.112416300E+01  1.266904997E-02
  2.999989100E+01  4.248012989E-02
  1.101763100E+01  1.150183297E-01
  4.372801000E+00  2.398650094E-01
  1.831256000E+00  3.584300090E-01
  8.022610000E-01  3.048527792E-01
  3.626480000E-01  8.824261976E-02
  1.139950000E-01 -8.445899977E-04
  5.123700000E-02 -7.943959979E-03
  2.246800000E-02 -3.764419990E-03
  7.860000000E-03 -8.868999976E-05
   s  14
  9.497934400E+03 -1.244999993E-05
  1.416811200E+03 -7.838999954E-05
  3.214599400E+02 -4.007099976E-04
  9.112416300E+01 -1.645249990E-03
  2.999989100E+01 -5.634599967E-03
  1.101763100E+01 -1.590780991E-02
  4.372801000E+00 -3.612581979E-02
  1.831256000E+00 -6.459927962E-02
  8.022610000E-01 -1.008321794E-01
  3.626480000E-01 -9.757613942E-02
  1.139950000E-01  2.301215886E-01
  5.123700000E-02  6.102389764E-01
  2.246800000E-02  2.849406083E-01
  7.860000000E-03  4.026899976E-03
   p   9
  1.311950400E+01  1.524940000E-03
  3.077424200E+00  8.314830000E-03
  1.098800500E+00  1.933203000E-02
  4.357784000E-01  4.934293000E-02
  1.802432000E-01  1.623554000E-01
  7.613330000E-02  3.847505400E-01
  3.254650000E-02  4.336100400E-01
  1.401820000E-02  1.287005900E-01
  4.906400000E-03 -1.018520000E-03
 
[MO]
Sym=     1a  
Ene=   -11.3400
Spin= Alpha
Occup=    1.00000
   1         1.00014254
   2         0.00112771
   3         0.00000000
   4        -0.00000000
   5         0.00060576
   6        -0.00023895
   7        -0.00151531
   8        -0.00000000
   9        -0.00000000
  10         0.00165365
Sym=     1a  
Ene=   -11.2930
Spin= Beta
Occup=    1.00000
   1         1.00004448
   2        -0.00440066
   3        -0.00000000
   4        -0.00000000
   5         0.00037182
   6        -0.00012937
   7        -0.00065917
   8         0.00000000
   9         0.00000000
  10         0.00061098
Sym=     2a  
Ene=    -2.4601
Spin= Alpha
Occup=    1.00000
   1        -0.00018189
   2         0.00142474
   3        -0.00000000
   4        -0.00000000
   5         0.00212335
   6         0.99976749
   7         0.01312467
   8        -0.00000000
   9         0.00000000
  10        -0.00123562
Sym=     2a  
Ene=    -2.4714
Spin= Beta
Occup=    1.00000
   1        -0.00009574
   2         0.00110822
   3        -0.00000000
   4        -0.00000000
   5         0.00049217
   6         0.99987332
   7         0.01228331
   8        -0.00000000
   9         0.00000000
  10        -0.00057762
Sym=     3a  
Ene=    -0.8587
Spin= Alpha
Occup=    1.00000
   1        -0.00092774
   2         0.99153645
   3         0.00000000
   4        -0.00000000
   5         0.02233413
   6        -0.02578720
   7         0.00695906
   8        -0.00000000
   9         0.00000000
  10        -0.01381234
Sym=     3a  
Ene=    -0.6258
Spin= Beta
Occup=    1.00000
   1        -0.00103491
   2         0.94454177
   3        -0.00000000
   4         0.00000000
   5         0.05814528
   6        -0.02646962
   7         0.07117257
   8         0.00000000
   9         0.00000000
  10        -0.06237219
Sym=     4a  
Ene=    -0.4785
Spin= Alpha
Occup=    1.00000
   1        -0.00509028
   2        -0.06750233
   3        -0.00000000
   4        -0.00000000
   5         0.98118334
   6        -0.05174136
   7         0.05047985
   8        -0.00000000
   9         0.00000000
  10        -0.06031440
Sym=     4a  
Ene=    -0.1787
Spin= Beta
Occup=    1.00000
   1        -0.01620127
   2        -0.22728931
   3         0.00000000
   4         0.00000000
   5         0.13186975
   6        -0.01309081
   7         0.94415957
   8         0.00000000
   9        -0.00000000
  10         0.28184412
Sym=     5a  
Ene=    -0.4687
Spin= Alpha
Occup=    1.00000
   1        -0.00000000
   2        -0.00000000
   3         0.33458342
   4        -0.93530800
   5        -0.00000000
   6         0.00000000
   7         0.00000000
   8         0.01079622
   9        -0.03018018
  10        -0.00000000
Sym=     5a  
Ene=     0.0212
Spin= Beta
Occup=    0.00000
   1        -0.00000000
   2        -0.00000000
   3         0.37604940
   4         0.13452242
   5         0.00000000
   6         0.00000000
   7        -0.00000000
   8         0.79403201
   9         0.28404541
  10        -0.00000000
Sym=     6a  
Ene=     0.0163
Spin= Alpha
Occup=    0.00000
   1        -0.00000000
   2        -0.00000000
   3         0.72167991
   4         0.25816323
   5         0.00000000
   6        -0.00000000
   7         0.00000000
   8         0.48187272
   9         0.17237811
  10        -0.00000000
Sym=     6a  
Ene=     0.0339
Spin= Beta
Occup=    0.00000
   1        -0.00000000
   2        -0.00000000
   3        -0.08556223
   4         0.23918412
   5         0.00000000
   6        -0.00000000
   7         0.00000000
   8        -0.30976139
   9         0.86591949
  10        -0.00000000
Sym=     7a  
Ene=     0.0711
Spin= Alpha
Occup=    0.00000
   1         0.02120650
   2         0.21715073
   3        -0.00000000
   4        -0.00000000
   5         0.18499012
   6        -0.00162485
   7        -1.01173242
   8         0.00000000
   9         0.00000000
  10        -0.21874458
Sym=     7a  
Ene=     0.0827
Spin= Beta
Occup=    0.00000
   1         0.05242011
   2         0.50924898
   3        -0.00000000
   4         0.00000000
   5        -0.53558416
   6         0.01838050
   7        -0.14734448
   8         0.00000000
   9         0.00000000
  10         0.84120858
Sym=     8a  
Ene=     0.0980
Spin= Alpha
Occup=    0.00000
   1        -0.00000000
   2        -0.00000000
   3         0.07645269
   4        -0.21371895
   5        -0.00000000
   6         0.00000000
   7         0.00000000
   8        -0.34303720
   9         0.95894004
  10        -0.00000000
Sym=     8a  
Ene=     0.1453
Spin= Beta
Occup=    0.00000
   1        -0.00000000
   2        -0.00000000
   3        -0.88264585
   4        -0.31574483
   5         0.00000000
   6        -0.00000000
   7         0.00000000
   8         0.53850721
   9         0.19263770
  10        -0.00000000
Sym=     9a  
Ene=     0.1280
Spin= Alpha
Occup=    0.00000
   1         0.00000000
   2         0.00000000
   3        -0.63218269
   4        -0.22614780
   5        -0.00000000
   6        -0.00000000
   7         0.00000000
   8         0.82962372
   9         0.29677747
  10         0.00000000
Sym=     9a  
Ene=     0.1984
Spin= Beta
Occup=    0.00000
   1         0.00000000
   2         0.00000000
   3        -0.33237055
   4         0.92912206
   5         0.00000000
   6        -0.00000000
   7        -0.00000000
   8         0.14778012
   9        -0.41311050
  10         0.00000000
Sym=    10a  
Ene=     0.1603
Spin= Alpha
Occup=    0.00000
   1        -0.07581458
   2        -0.63658128
   3        -0.00000000
   4        -0.00000000
   5        -0.28938831
   6         0.02303714
   7         0.41378090
   8         0.00000000
   9         0.00000000
  10        -1.12920966
Sym=    10a  
Ene=     0.2233
Spin= Beta
Occup=    0.00000
   1         0.05838733
   2         0.48674416
   3         0.00000000
   4        -0.00000000
   5         0.87952834
   6        -0.04953863
   7        -0.52841628
   8        -0.00000000
   9         0.00000000
  10         0.73200924
