[Molden Format]
[N_Atoms]
                     2
[Atoms] (AU)
BE1         1      4           0.00000000      0.00000000      0.00000000
BE2         2      4           0.00000000      0.00000000      2.26767135
[Charge] (Mulliken)
  2.930988785010413E-014
 -3.641531520770513E-014
[GTO] (AU)
   1
   s  14
  2.262859900E+04  8.443999941E-05
  3.372318100E+03  4.601499968E-04
  7.603504000E+02  2.285389984E-03
  2.117404800E+02  9.648129932E-03
  6.722346800E+01  3.494469975E-02
  2.337217700E+01  1.061099893E-01
  8.721373000E+00  2.458240383E-01
  3.468091000E+00  3.862428773E-01
  1.452144000E+00  3.105526078E-01
  6.086150000E-01  6.415933955E-02
  2.576860000E-01 -2.265049984E-03
  1.041760000E-01 -5.217499963E-04
  4.242700000E-02 -8.757499938E-04
  1.484900000E-02  1.242199991E-04
   s  14
  2.262859900E+04 -1.586999994E-05
  3.372318100E+03 -8.656999968E-05
  7.603504000E+02 -4.302199984E-04
  2.117404800E+02 -1.825079993E-03
  6.722346800E+01 -6.682749976E-03
  2.337217700E+01 -2.095119992E-02
  8.721373000E+00 -5.200308981E-02
  3.468091000E+00 -9.849176964E-02
  1.452144000E+00 -1.355800695E-01
  6.086150000E-01 -6.429875976E-02
  2.576860000E-01  3.125414989E-01
  1.041760000E-01  6.270468577E-01
  4.242700000E-02  2.110231492E-01
  1.484900000E-02 -4.104669985E-03
   p   9
  3.371018400E+01  1.069960000E-03
  8.057649500E+00  6.828550001E-03
  2.836471400E+00  2.119065000E-02
  1.099965700E+00  5.843696001E-02
  4.433964000E-01  2.020920800E-01
  1.822264000E-01  4.582953101E-01
  7.572410000E-02  3.691239601E-01
  3.168540000E-02  6.611471001E-02
  1.108990000E-02  1.405160000E-03
 
   2
   s  14
  2.262859900E+04  8.443999941E-05
  3.372318100E+03  4.601499968E-04
  7.603504000E+02  2.285389984E-03
  2.117404800E+02  9.648129932E-03
  6.722346800E+01  3.494469975E-02
  2.337217700E+01  1.061099893E-01
  8.721373000E+00  2.458240383E-01
  3.468091000E+00  3.862428773E-01
  1.452144000E+00  3.105526078E-01
  6.086150000E-01  6.415933955E-02
  2.576860000E-01 -2.265049984E-03
  1.041760000E-01 -5.217499963E-04
  4.242700000E-02 -8.757499938E-04
  1.484900000E-02  1.242199991E-04
   s  14
  2.262859900E+04 -1.586999994E-05
  3.372318100E+03 -8.656999968E-05
  7.603504000E+02 -4.302199984E-04
  2.117404800E+02 -1.825079993E-03
  6.722346800E+01 -6.682749976E-03
  2.337217700E+01 -2.095119992E-02
  8.721373000E+00 -5.200308981E-02
  3.468091000E+00 -9.849176964E-02
  1.452144000E+00 -1.355800695E-01
  6.086150000E-01 -6.429875976E-02
  2.576860000E-01  3.125414989E-01
  1.041760000E-01  6.270468577E-01
  4.242700000E-02  2.110231492E-01
  1.484900000E-02 -4.104669985E-03
   p   9
  3.371018400E+01  1.069960000E-03
  8.057649500E+00  6.828550001E-03
  2.836471400E+00  2.119065000E-02
  1.099965700E+00  5.843696001E-02
  4.433964000E-01  2.020920800E-01
  1.822264000E-01  4.582953101E-01
  7.572410000E-02  3.691239601E-01
  3.168540000E-02  6.611471001E-02
  1.108990000E-02  1.405160000E-03
 
[MO]
Sym=     1a  
Ene=    -4.8780
Spin= Alpha
Occup=    1.00000
   1         0.70142883
   2         0.00113732
   3         0.00000000
   4        -0.00000000
   5         0.00811475
   6         0.70142883
   7         0.00113732
   8        -0.00000000
   9         0.00000000
  10        -0.00811475
Sym=     1a  
Ene=    -4.8780
Spin= Beta
Occup=    1.00000
   1         0.70142883
   2         0.00113732
   3         0.00000000
   4        -0.00000000
   5         0.00811475
   6         0.70142883
   7         0.00113732
   8        -0.00000000
   9         0.00000000
  10        -0.00811475
Sym=     2a  
Ene=    -4.8381
Spin= Alpha
Occup=    1.00000
   1        -0.71680520
   2        -0.02186203
   3         0.00000000
   4        -0.00000000
   5        -0.01120164
   6         0.71680520
   7         0.02186203
   8        -0.00000000
   9         0.00000000
  10        -0.01120164
Sym=     2a  
Ene=    -4.8381
Spin= Beta
Occup=    1.00000
   1        -0.71680520
   2        -0.02186203
   3         0.00000000
   4        -0.00000000
   5        -0.01120164
   6         0.71680520
   7         0.02186203
   8        -0.00000000
   9         0.00000000
  10        -0.01120164
Sym=     3a  
Ene=    -0.4895
Spin= Alpha
Occup=    1.00000
   1        -0.13366327
   2         0.45582286
   3         0.00000000
   4         0.00000000
   5         0.24654331
   6        -0.13366327
   7         0.45582286
   8         0.00000000
   9         0.00000000
  10        -0.24654331
Sym=     3a  
Ene=    -0.4895
Spin= Beta
Occup=    1.00000
   1        -0.13366327
   2         0.45582286
   3         0.00000000
   4         0.00000000
   5         0.24654331
   6        -0.13366327
   7         0.45582286
   8         0.00000000
   9         0.00000000
  10        -0.24654331
Sym=     4a  
Ene=    -0.2142
Spin= Alpha
Occup=    1.00000
   1        -0.01740862
   2        -0.66626516
   3        -0.00000000
   4        -0.00000000
   5         0.36261070
   6         0.01740862
   7         0.66626516
   8        -0.00000000
   9        -0.00000000
  10         0.36261070
Sym=     4a  
Ene=    -0.2142
Spin= Beta
Occup=    1.00000
   1        -0.01740862
   2        -0.66626516
   3        -0.00000000
   4        -0.00000000
   5         0.36261070
   6         0.01740862
   7         0.66626516
   8        -0.00000000
   9        -0.00000000
  10         0.36261070
Sym=     5a  
Ene=    -0.0504
Spin= Alpha
Occup=    0.00000
   1         0.00000000
   2        -0.00000000
   3         0.46904451
   4        -0.28259238
   5         0.00000000
   6         0.00000000
   7         0.00000000
   8         0.46904451
   9        -0.28259238
  10         0.00000000
Sym=     5a  
Ene=    -0.0504
Spin= Beta
Occup=    0.00000
   1         0.00000000
   2        -0.00000000
   3         0.46904451
   4        -0.28259238
   5         0.00000000
   6         0.00000000
   7         0.00000000
   8         0.46904451
   9        -0.28259238
  10         0.00000000
Sym=     6a  
Ene=    -0.0504
Spin= Alpha
Occup=    0.00000
   1        -0.00000000
   2        -0.00000000
   3         0.28259238
   4         0.46904451
   5         0.00000000
   6         0.00000000
   7         0.00000000
   8         0.28259238
   9         0.46904451
  10         0.00000000
Sym=     6a  
Ene=    -0.0504
Spin= Beta
Occup=    0.00000
   1        -0.00000000
   2        -0.00000000
   3         0.28259238
   4         0.46904451
   5         0.00000000
   6         0.00000000
   7         0.00000000
   8         0.28259238
   9         0.46904451
  10         0.00000000
Sym=     7a  
Ene=     0.0517
Spin= Alpha
Occup=    0.00000
   1         0.14701450
   2         0.36556571
   3        -0.00000000
   4         0.00000000
   5        -0.83650344
   6         0.14701450
   7         0.36556571
   8        -0.00000000
   9         0.00000000
  10         0.83650344
Sym=     7a  
Ene=     0.0517
Spin= Beta
Occup=    0.00000
   1         0.14701450
   2         0.36556571
   3        -0.00000000
   4         0.00000000
   5        -0.83650344
   6         0.14701450
   7         0.36556571
   8        -0.00000000
   9         0.00000000
  10         0.83650344
Sym=     8a  
Ene=     0.2616
Spin= Alpha
Occup=    0.00000
   1        -0.00000000
   2         0.00000000
   3         0.02188343
   4        -1.22596926
   5         0.00000000
   6        -0.00000000
   7        -0.00000000
   8        -0.02188343
   9         1.22596926
  10        -0.00000000
Sym=     8a  
Ene=     0.2616
Spin= Beta
Occup=    0.00000
   1        -0.00000000
   2         0.00000000
   3         0.02188343
   4        -1.22596926
   5         0.00000000
   6        -0.00000000
   7        -0.00000000
   8        -0.02188343
   9         1.22596926
  10        -0.00000000
Sym=     9a  
Ene=     0.2616
Spin= Alpha
Occup=    0.00000
   1         0.00000000
   2         0.00000000
   3        -1.22596926
   4        -0.02188343
   5        -0.00000000
   6         0.00000000
   7         0.00000000
   8         1.22596926
   9         0.02188343
  10         0.00000000
Sym=     9a  
Ene=     0.2616
Spin= Beta
Occup=    0.00000
   1         0.00000000
   2         0.00000000
   3        -1.22596926
   4        -0.02188343
   5        -0.00000000
   6         0.00000000
   7         0.00000000
   8         1.22596926
   9         0.02188343
  10         0.00000000
Sym=    10a  
Ene=     1.4879
Spin= Alpha
Occup=    0.00000
   1         1.87309072
   2         7.00842231
   3         0.00000000
   4         0.00000000
   5         3.25199505
   6        -1.87309072
   7        -7.00842231
   8         0.00000000
   9         0.00000000
  10         3.25199505
Sym=    10a  
Ene=     1.4879
Spin= Beta
Occup=    0.00000
   1         1.87309072
   2         7.00842231
   3         0.00000000
   4         0.00000000
   5         3.25199505
   6        -1.87309072
   7        -7.00842231
   8         0.00000000
   9         0.00000000
  10         3.25199505
