[Molden Format]
[N_Atoms]
                     2
[Atoms] (AU)
BE1         1      4           0.00000000      0.00000000      0.00000000
BE2         2      4           0.00000000      0.00000000      2.26767135
[Charge] (Mulliken)
  1.082245404404603E-012
 -1.092459456231154E-012
[GTO] (AU)
   1
   s  14
  2.262859900E+04  8.443999941E-05
  3.372318100E+03  4.601499968E-04
  7.603504000E+02  2.285389984E-03
  2.117404800E+02  9.648129932E-03
  6.722346800E+01  3.494469975E-02
  2.337217700E+01  1.061099893E-01
  8.721373000E+00  2.458240383E-01
  3.468091000E+00  3.862428773E-01
  1.452144000E+00  3.105526078E-01
  6.086150000E-01  6.415933955E-02
  2.576860000E-01 -2.265049984E-03
  1.041760000E-01 -5.217499963E-04
  4.242700000E-02 -8.757499938E-04
  1.484900000E-02  1.242199991E-04
   s  14
  2.262859900E+04 -1.586999994E-05
  3.372318100E+03 -8.656999968E-05
  7.603504000E+02 -4.302199984E-04
  2.117404800E+02 -1.825079993E-03
  6.722346800E+01 -6.682749976E-03
  2.337217700E+01 -2.095119992E-02
  8.721373000E+00 -5.200308981E-02
  3.468091000E+00 -9.849176964E-02
  1.452144000E+00 -1.355800695E-01
  6.086150000E-01 -6.429875976E-02
  2.576860000E-01  3.125414989E-01
  1.041760000E-01  6.270468577E-01
  4.242700000E-02  2.110231492E-01
  1.484900000E-02 -4.104669985E-03
   p   9
  3.371018400E+01  1.069960000E-03
  8.057649500E+00  6.828550001E-03
  2.836471400E+00  2.119065000E-02
  1.099965700E+00  5.843696001E-02
  4.433964000E-01  2.020920800E-01
  1.822264000E-01  4.582953101E-01
  7.572410000E-02  3.691239601E-01
  3.168540000E-02  6.611471001E-02
  1.108990000E-02  1.405160000E-03
 
   2
   s  14
  2.262859900E+04  8.443999941E-05
  3.372318100E+03  4.601499968E-04
  7.603504000E+02  2.285389984E-03
  2.117404800E+02  9.648129932E-03
  6.722346800E+01  3.494469975E-02
  2.337217700E+01  1.061099893E-01
  8.721373000E+00  2.458240383E-01
  3.468091000E+00  3.862428773E-01
  1.452144000E+00  3.105526078E-01
  6.086150000E-01  6.415933955E-02
  2.576860000E-01 -2.265049984E-03
  1.041760000E-01 -5.217499963E-04
  4.242700000E-02 -8.757499938E-04
  1.484900000E-02  1.242199991E-04
   s  14
  2.262859900E+04 -1.586999994E-05
  3.372318100E+03 -8.656999968E-05
  7.603504000E+02 -4.302199984E-04
  2.117404800E+02 -1.825079993E-03
  6.722346800E+01 -6.682749976E-03
  2.337217700E+01 -2.095119992E-02
  8.721373000E+00 -5.200308981E-02
  3.468091000E+00 -9.849176964E-02
  1.452144000E+00 -1.355800695E-01
  6.086150000E-01 -6.429875976E-02
  2.576860000E-01  3.125414989E-01
  1.041760000E-01  6.270468577E-01
  4.242700000E-02  2.110231492E-01
  1.484900000E-02 -4.104669985E-03
   p   9
  3.371018400E+01  1.069960000E-03
  8.057649500E+00  6.828550001E-03
  2.836471400E+00  2.119065000E-02
  1.099965700E+00  5.843696001E-02
  4.433964000E-01  2.020920800E-01
  1.822264000E-01  4.582953101E-01
  7.572410000E-02  3.691239601E-01
  3.168540000E-02  6.611471001E-02
  1.108990000E-02  1.405160000E-03
 
[MO]
Sym=     1a  
Ene=    -4.8428
Spin= Alpha
Occup=    2.00000
   1         0.70193159
   2         0.00211098
   3         0.00000000
   4         0.00000000
   5         0.00542031
   6         0.70193159
   7         0.00211098
   8        -0.00000000
   9        -0.00000000
  10        -0.00542031
Sym=     2a  
Ene=    -4.8030
Spin= Alpha
Occup=    2.00000
   1        -0.71174895
   2        -0.00419500
   3         0.00000000
   4        -0.00000000
   5        -0.00162246
   6         0.71174895
   7         0.00419500
   8         0.00000000
   9        -0.00000000
  10        -0.00162246
Sym=     3a  
Ene=    -0.4387
Spin= Alpha
Occup=    2.00000
   1        -0.12800619
   2         0.46892821
   3         0.00000000
   4        -0.00000000
   5         0.21568947
   6        -0.12800619
   7         0.46892821
   8        -0.00000000
   9         0.00000000
  10        -0.21568947
Sym=     4a  
Ene=     0.0150
Spin= Alpha
Occup=    0.05516
   1        -0.11480057
   2        -1.03491441
   3        -0.00000000
   4         0.00000000
   5         0.19061877
   6         0.11480057
   7         1.03491441
   8        -0.00000000
   9         0.00000000
  10         0.19061877
Sym=     5a  
Ene=     0.0000
Spin= Alpha
Occup=    1.94484
   1        -0.00000000
   2         0.00000000
   3         0.52567251
   4         0.15339367
   5        -0.00000000
   6        -0.00000000
   7        -0.00000000
   8         0.52567251
   9         0.15339367
  10        -0.00000000
Sym=     6a  
Ene=    -0.0168
Spin= Alpha
Occup=    0.00000
   1        -0.00000000
   2         0.00000000
   3        -0.15339367
   4         0.52567251
   5        -0.00000000
   6         0.00000000
   7        -0.00000000
   8        -0.15339367
   9         0.52567251
  10        -0.00000000
Sym=     7a  
Ene=     0.0978
Spin= Alpha
Occup=    0.00000
   1         0.14962616
   2         0.34859135
   3         0.00000000
   4        -0.00000000
   5        -0.84500659
   6         0.14962616
   7         0.34859135
   8        -0.00000000
   9         0.00000000
  10         0.84500659
Sym=     8a  
Ene=     0.2732
Spin= Alpha
Occup=    0.00000
   1         0.00000000
   2        -0.00000000
   3        -1.17707431
   4        -0.34347572
   5        -0.00000000
   6         0.00000000
   7        -0.00000000
   8         1.17707431
   9         0.34347572
  10         0.00000000
Sym=     9a  
Ene=     0.2834
Spin= Alpha
Occup=    0.00000
   1        -0.00000000
   2        -0.00000000
   3         0.34347572
   4        -1.17707431
   5         0.00000000
   6        -0.00000000
   7        -0.00000000
   8        -0.34347572
   9         1.17707431
  10        -0.00000000
Sym=    10a  
Ene=     1.4995
Spin= Alpha
Occup=    0.00000
   1        -1.87158111
   2        -6.96356985
   3         0.00000000
   4        -0.00000000
   5        -3.26661073
   6         1.87158111
   7         6.96356985
   8         0.00000000
   9        -0.00000000
  10        -3.26661073
