[Molden Format]
[N_Atoms]
                     2
[Atoms] (AU)
BE1         1      4           0.00000000      0.00000000      0.00000000
BE2         2      4           0.00000000      0.00000000      2.26767135
[Charge] (Mulliken)
   1.00000000000155     
  0.999999999998431     
[GTO] (AU)
   1
   s  14
  2.262859900E+04  8.443999941E-05
  3.372318100E+03  4.601499968E-04
  7.603504000E+02  2.285389984E-03
  2.117404800E+02  9.648129932E-03
  6.722346800E+01  3.494469975E-02
  2.337217700E+01  1.061099893E-01
  8.721373000E+00  2.458240383E-01
  3.468091000E+00  3.862428773E-01
  1.452144000E+00  3.105526078E-01
  6.086150000E-01  6.415933955E-02
  2.576860000E-01 -2.265049984E-03
  1.041760000E-01 -5.217499963E-04
  4.242700000E-02 -8.757499938E-04
  1.484900000E-02  1.242199991E-04
   s  14
  2.262859900E+04 -1.586999994E-05
  3.372318100E+03 -8.656999968E-05
  7.603504000E+02 -4.302199984E-04
  2.117404800E+02 -1.825079993E-03
  6.722346800E+01 -6.682749976E-03
  2.337217700E+01 -2.095119992E-02
  8.721373000E+00 -5.200308981E-02
  3.468091000E+00 -9.849176964E-02
  1.452144000E+00 -1.355800695E-01
  6.086150000E-01 -6.429875976E-02
  2.576860000E-01  3.125414989E-01
  1.041760000E-01  6.270468577E-01
  4.242700000E-02  2.110231492E-01
  1.484900000E-02 -4.104669985E-03
   p   9
  3.371018400E+01  1.069960000E-03
  8.057649500E+00  6.828550001E-03
  2.836471400E+00  2.119065000E-02
  1.099965700E+00  5.843696001E-02
  4.433964000E-01  2.020920800E-01
  1.822264000E-01  4.582953101E-01
  7.572410000E-02  3.691239601E-01
  3.168540000E-02  6.611471001E-02
  1.108990000E-02  1.405160000E-03
 
   2
   s  14
  2.262859900E+04  8.443999941E-05
  3.372318100E+03  4.601499968E-04
  7.603504000E+02  2.285389984E-03
  2.117404800E+02  9.648129932E-03
  6.722346800E+01  3.494469975E-02
  2.337217700E+01  1.061099893E-01
  8.721373000E+00  2.458240383E-01
  3.468091000E+00  3.862428773E-01
  1.452144000E+00  3.105526078E-01
  6.086150000E-01  6.415933955E-02
  2.576860000E-01 -2.265049984E-03
  1.041760000E-01 -5.217499963E-04
  4.242700000E-02 -8.757499938E-04
  1.484900000E-02  1.242199991E-04
   s  14
  2.262859900E+04 -1.586999994E-05
  3.372318100E+03 -8.656999968E-05
  7.603504000E+02 -4.302199984E-04
  2.117404800E+02 -1.825079993E-03
  6.722346800E+01 -6.682749976E-03
  2.337217700E+01 -2.095119992E-02
  8.721373000E+00 -5.200308981E-02
  3.468091000E+00 -9.849176964E-02
  1.452144000E+00 -1.355800695E-01
  6.086150000E-01 -6.429875976E-02
  2.576860000E-01  3.125414989E-01
  1.041760000E-01  6.270468577E-01
  4.242700000E-02  2.110231492E-01
  1.484900000E-02 -4.104669985E-03
   p   9
  3.371018400E+01  1.069960000E-03
  8.057649500E+00  6.828550001E-03
  2.836471400E+00  2.119065000E-02
  1.099965700E+00  5.843696001E-02
  4.433964000E-01  2.020920800E-01
  1.822264000E-01  4.582953101E-01
  7.572410000E-02  3.691239601E-01
  3.168540000E-02  6.611471001E-02
  1.108990000E-02  1.405160000E-03
 
[MO]
Sym=     1a  
Ene=    -5.5608
Spin= Alpha
Occup=    2.00000
   1         0.70388409
   2        -0.00367836
   3         0.00000000
   4        -0.00000000
   5         0.00095398
   6         0.70388410
   7        -0.00367836
   8        -0.00000000
   9         0.00000000
  10        -0.00095398
Sym=     2a  
Ene=    -5.5225
Spin= Alpha
Occup=    2.00000
   1        -0.71136349
   2        -0.00203182
   3        -0.00000000
   4         0.00000000
   5        -0.00142083
   6         0.71136349
   7         0.00203182
   8        -0.00000000
   9         0.00000000
  10        -0.00142083
Sym=     3a  
Ene=    -1.0348
Spin= Alpha
Occup=    1.94786
   1        -0.14544581
   2         0.39053247
   3        -0.00000000
   4         0.00000001
   5         0.37891910
   6        -0.14544581
   7         0.39053247
   8         0.00000000
   9        -0.00000001
  10        -0.37891910
Sym=     4a  
Ene=    -0.0000
Spin= Alpha
Occup=    0.05214
   1         0.00000002
   2         0.00000013
   3        -0.06472675
   4         0.54375698
   5         0.00000001
   6        -0.00000002
   7        -0.00000013
   8        -0.06472675
   9         0.54375698
  10         0.00000001
Sym=     5a  
Ene=    -0.5689
Spin= Alpha
Occup=    0.00000
   1         0.00000000
   2         0.00000000
   3         0.54375698
   4         0.06472675
   5        -0.00000000
   6         0.00000000
   7         0.00000000
   8         0.54375698
   9         0.06472675
  10         0.00000000
Sym=     6a  
Ene=    -0.5039
Spin= Alpha
Occup=    0.00000
   1         0.00043945
   2         0.60511122
   3         0.00000000
   4        -0.00000004
   5        -0.39096203
   6        -0.00043945
   7        -0.60511122
   8         0.00000000
   9        -0.00000004
  10        -0.39096203
Sym=     7a  
Ene=    -0.4589
Spin= Alpha
Occup=    0.00000
   1         0.12195997
   2         0.43460892
   3         0.00000000
   4        -0.00000000
   5        -0.78549785
   6         0.12195997
   7         0.43460892
   8        -0.00000000
   9         0.00000000
  10         0.78549785
Sym=     8a  
Ene=    -0.2772
Spin= Alpha
Occup=    0.00000
   1        -0.00000000
   2         0.00000000
   3         0.14493471
   4        -1.21756866
   5         0.00000000
   6        -0.00000000
   7         0.00000000
   8        -0.14493471
   9         1.21756866
  10        -0.00000000
Sym=     9a  
Ene=    -0.2769
Spin= Alpha
Occup=    0.00000
   1         0.00000000
   2        -0.00000000
   3        -1.21756866
   4        -0.14493471
   5        -0.00000000
   6        -0.00000000
   7        -0.00000000
   8         1.21756866
   9         0.14493471
  10         0.00000000
Sym=    10a  
Ene=     0.9062
Spin= Alpha
Occup=    0.00000
   1        -1.87524489
   2        -7.01400077
   3        -0.00000000
   4         0.00000001
   5        -3.24872751
   6         1.87524489
   7         7.01400077
   8        -0.00000000
   9         0.00000001
  10        -3.24872751
