[Molden Format]
[N_Atoms]
                     2
[Atoms] (AU)
B1          1      5           0.00000000      0.00000000      0.00000000
B2          2      5           0.00000000      0.00000000      1.51178090
[Charge] (Mulliken)
  1.918465386552271E-013
 -1.980637875931279E-013
[GTO] (AU)
   1
   s  14
  3.336021700E+04  1.039699991E-04
  4.972095200E+03  5.254399956E-04
  1.125641700E+03  2.509059979E-03
  3.164913600E+02  1.031887991E-02
  1.020072600E+02  3.636632969E-02
  3.629587300E+01  1.064607991E-01
  1.397141000E+01  2.403999880E-01
  5.741156000E+00  3.748581168E-01
  2.494268000E+00  3.100066974E-01
  1.114202000E+00  7.922455933E-02
  4.215490000E-01 -4.947589958E-03
  1.696330000E-01 -7.737119935E-03
  6.853500000E-02 -1.501079987E-03
  2.398700000E-02 -1.333299989E-04
   s  14
  3.336021700E+04 -2.030000008E-05
  4.972095200E+03 -1.025700004E-04
  1.125641700E+03 -4.911300020E-04
  3.164913600E+02 -2.026570008E-03
  1.020072600E+02 -7.261010030E-03
  3.629587300E+01 -2.197722009E-02
  1.397141000E+01 -5.408428022E-02
  5.741156000E+00 -1.022402604E-01
  2.494268000E+00 -1.423595206E-01
  1.114202000E+00 -4.658690019E-02
  4.215490000E-01  3.799402916E-01
  1.696330000E-01  5.890463624E-01
  6.853500000E-02  1.749075107E-01
  2.398700000E-02 -1.142030005E-03
   p   9
  5.500000000E+01  1.229800005E-03
  1.336610100E+01  8.827380035E-03
  4.135394000E+00  3.843340015E-02
  1.481256000E+00  1.150031805E-01
  6.021360000E-01  2.733674011E-01
  2.556360000E-01  4.061972116E-01
  1.111510000E-01  3.014967912E-01
  4.764800000E-02  7.684809030E-02
  1.667700000E-02 -8.170000032E-06
 
   2
   s  14
  3.336021700E+04  1.039699991E-04
  4.972095200E+03  5.254399956E-04
  1.125641700E+03  2.509059979E-03
  3.164913600E+02  1.031887991E-02
  1.020072600E+02  3.636632969E-02
  3.629587300E+01  1.064607991E-01
  1.397141000E+01  2.403999880E-01
  5.741156000E+00  3.748581168E-01
  2.494268000E+00  3.100066974E-01
  1.114202000E+00  7.922455933E-02
  4.215490000E-01 -4.947589958E-03
  1.696330000E-01 -7.737119935E-03
  6.853500000E-02 -1.501079987E-03
  2.398700000E-02 -1.333299989E-04
   s  14
  3.336021700E+04 -2.030000008E-05
  4.972095200E+03 -1.025700004E-04
  1.125641700E+03 -4.911300020E-04
  3.164913600E+02 -2.026570008E-03
  1.020072600E+02 -7.261010030E-03
  3.629587300E+01 -2.197722009E-02
  1.397141000E+01 -5.408428022E-02
  5.741156000E+00 -1.022402604E-01
  2.494268000E+00 -1.423595206E-01
  1.114202000E+00 -4.658690019E-02
  4.215490000E-01  3.799402916E-01
  1.696330000E-01  5.890463624E-01
  6.853500000E-02  1.749075107E-01
  2.398700000E-02 -1.142030005E-03
   p   9
  5.500000000E+01  1.229800005E-03
  1.336610100E+01  8.827380035E-03
  4.135394000E+00  3.843340015E-02
  1.481256000E+00  1.150031805E-01
  6.021360000E-01  2.733674011E-01
  2.556360000E-01  4.061972116E-01
  1.111510000E-01  3.014967912E-01
  4.764800000E-02  7.684809030E-02
  1.667700000E-02 -8.170000032E-06
 
[MO]
Sym=     1a  
Ene=    -8.1790
Spin= Alpha
Occup=    2.00000
   1         0.69459789
   2         0.00838856
   3         0.00000000
   4        -0.00000000
   5         0.01362383
   6         0.69459789
   7         0.00838856
   8        -0.00000000
   9        -0.00000000
  10        -0.01362383
Sym=     2a  
Ene=    -7.9992
Spin= Alpha
Occup=    2.00000
   1        -0.72078354
   2        -0.02383640
   3         0.00000000
   4        -0.00000000
   5        -0.00699040
   6         0.72078354
   7         0.02383640
   8        -0.00000000
   9         0.00000000
  10        -0.00699040
Sym=     3a  
Ene=    -0.7964
Spin= Alpha
Occup=    2.00000
   1        -0.16363398
   2         0.45436386
   3         0.00000000
   4        -0.00000000
   5         0.26688788
   6        -0.16363398
   7         0.45436386
   8        -0.00000000
   9        -0.00000000
  10        -0.26688788
Sym=     4a  
Ene=    -0.5226
Spin= Alpha
Occup=    2.00000
   1         0.00000000
   2        -0.00000000
   3        -0.06781737
   4         0.53469714
   5         0.00000000
   6        -0.00000000
   7         0.00000000
   8        -0.06781737
   9         0.53469714
  10         0.00000000
Sym=     5a  
Ene=    -0.5206
Spin= Alpha
Occup=    1.98803
   1        -0.00000000
   2        -0.00000000
   3         0.53469714
   4         0.06781737
   5        -0.00000000
   6         0.00000000
   7         0.00000000
   8         0.53469714
   9         0.06781737
  10        -0.00000000
Sym=     6a  
Ene=    -0.0003
Spin= Alpha
Occup=    0.01197
   1        -0.14208213
   2        -1.10770679
   3        -0.00000000
   4        -0.00000000
   5         0.19260465
   6         0.14208213
   7         1.10770679
   8         0.00000000
   9        -0.00000000
  10         0.19260465
Sym=     7a  
Ene=     0.0331
Spin= Alpha
Occup=    0.00000
   1         0.18216716
   2         0.35848858
   3        -0.00000000
   4         0.00000000
   5        -0.92052531
   6         0.18216716
   7         0.35848858
   8        -0.00000000
   9        -0.00000000
  10         0.92052531
Sym=     8a  
Ene=     0.4020
Spin= Alpha
Occup=    0.00000
   1         0.00000000
   2         0.00000000
   3         0.16849315
   4        -1.32846203
   5        -0.00000000
   6         0.00000000
   7        -0.00000000
   8        -0.16849315
   9         1.32846203
  10         0.00000000
Sym=     9a  
Ene=     0.4020
Spin= Alpha
Occup=    0.00000
   1        -0.00000000
   2        -0.00000000
   3        -1.32846203
   4        -0.16849315
   5        -0.00000000
   6         0.00000000
   7         0.00000000
   8         1.32846203
   9         0.16849315
  10        -0.00000000
Sym=    10a  
Ene=     2.8634
Spin= Alpha
Occup=    0.00000
   1        -2.23091766
   2        -7.75356217
   3         0.00000000
   4         0.00000000
   5        -3.16575417
   6         2.23091766
   7         7.75356217
   8        -0.00000000
   9         0.00000000
  10        -3.16575417
