[Molden Format]
[N_Atoms]
                     2
[Atoms] (AU)
B1          1      5           0.00000000      0.00000000      0.00000000
B2          2      5           0.00000000      0.00000000      1.51178090
[Charge] (Mulliken)
  0.000000000000000E+000
  0.000000000000000E+000
[GTO] (AU)
   1
   s  14
  3.336021700E+04  1.039699991E-04
  4.972095200E+03  5.254399956E-04
  1.125641700E+03  2.509059979E-03
  3.164913600E+02  1.031887991E-02
  1.020072600E+02  3.636632969E-02
  3.629587300E+01  1.064607991E-01
  1.397141000E+01  2.403999880E-01
  5.741156000E+00  3.748581168E-01
  2.494268000E+00  3.100066974E-01
  1.114202000E+00  7.922455933E-02
  4.215490000E-01 -4.947589958E-03
  1.696330000E-01 -7.737119935E-03
  6.853500000E-02 -1.501079987E-03
  2.398700000E-02 -1.333299989E-04
   s  14
  3.336021700E+04 -2.030000008E-05
  4.972095200E+03 -1.025700004E-04
  1.125641700E+03 -4.911300020E-04
  3.164913600E+02 -2.026570008E-03
  1.020072600E+02 -7.261010030E-03
  3.629587300E+01 -2.197722009E-02
  1.397141000E+01 -5.408428022E-02
  5.741156000E+00 -1.022402604E-01
  2.494268000E+00 -1.423595206E-01
  1.114202000E+00 -4.658690019E-02
  4.215490000E-01  3.799402916E-01
  1.696330000E-01  5.890463624E-01
  6.853500000E-02  1.749075107E-01
  2.398700000E-02 -1.142030005E-03
   p   9
  5.500000000E+01  1.229800005E-03
  1.336610100E+01  8.827380035E-03
  4.135394000E+00  3.843340015E-02
  1.481256000E+00  1.150031805E-01
  6.021360000E-01  2.733674011E-01
  2.556360000E-01  4.061972116E-01
  1.111510000E-01  3.014967912E-01
  4.764800000E-02  7.684809030E-02
  1.667700000E-02 -8.170000032E-06
 
   2
   s  14
  3.336021700E+04  1.039699991E-04
  4.972095200E+03  5.254399956E-04
  1.125641700E+03  2.509059979E-03
  3.164913600E+02  1.031887991E-02
  1.020072600E+02  3.636632969E-02
  3.629587300E+01  1.064607991E-01
  1.397141000E+01  2.403999880E-01
  5.741156000E+00  3.748581168E-01
  2.494268000E+00  3.100066974E-01
  1.114202000E+00  7.922455933E-02
  4.215490000E-01 -4.947589958E-03
  1.696330000E-01 -7.737119935E-03
  6.853500000E-02 -1.501079987E-03
  2.398700000E-02 -1.333299989E-04
   s  14
  3.336021700E+04 -2.030000008E-05
  4.972095200E+03 -1.025700004E-04
  1.125641700E+03 -4.911300020E-04
  3.164913600E+02 -2.026570008E-03
  1.020072600E+02 -7.261010030E-03
  3.629587300E+01 -2.197722009E-02
  1.397141000E+01 -5.408428022E-02
  5.741156000E+00 -1.022402604E-01
  2.494268000E+00 -1.423595206E-01
  1.114202000E+00 -4.658690019E-02
  4.215490000E-01  3.799402916E-01
  1.696330000E-01  5.890463624E-01
  6.853500000E-02  1.749075107E-01
  2.398700000E-02 -1.142030005E-03
   p   9
  5.500000000E+01  1.229800005E-03
  1.336610100E+01  8.827380035E-03
  4.135394000E+00  3.843340015E-02
  1.481256000E+00  1.150031805E-01
  6.021360000E-01  2.733674011E-01
  2.556360000E-01  4.061972116E-01
  1.111510000E-01  3.014967912E-01
  4.764800000E-02  7.684809030E-02
  1.667700000E-02 -8.170000032E-06
 
[MO]
Sym=     1a  
Ene=    -7.8973
Spin= Alpha
Occup=    2.00000
   1         0.69616616
   2         0.00877101
   3         0.00000000
   4        -0.00000000
   5         0.00759459
   6         0.69616616
   7         0.00877101
   8        -0.00000000
   9        -0.00000000
  10        -0.00759459
Sym=     2a  
Ene=    -7.5722
Spin= Alpha
Occup=    2.00000
   1        -0.71107452
   2         0.00797815
   3        -0.00000000
   4        -0.00000000
   5         0.00798662
   6         0.71107452
   7        -0.00797815
   8         0.00000000
   9        -0.00000000
  10         0.00798662
Sym=     3a  
Ene=    -0.8910
Spin= Alpha
Occup=    2.00000
   1        -0.12479892
   2         0.51366377
   3        -0.00000000
   4         0.00000000
   5         0.08914936
   6        -0.12479892
   7         0.51366377
   8         0.00000000
   9        -0.00000000
  10        -0.08914936
Sym=     4a  
Ene=    -0.5351
Spin= Alpha
Occup=    2.00000
   1         0.00000000
   2         0.00000000
   3         0.47090973
   4        -0.26219125
   5         0.00000000
   6        -0.00000000
   7        -0.00000000
   8         0.47090973
   9        -0.26219125
  10         0.00000000
Sym=     5a  
Ene=    -0.5351
Spin= Alpha
Occup=    2.00000
   1         0.00000000
   2         0.00000000
   3         0.26219125
   4         0.47090973
   5         0.00000000
   6        -0.00000000
   7        -0.00000000
   8         0.26219125
   9         0.47090973
  10         0.00000000
Sym=     6a  
Ene=    -0.4773
Spin= Alpha
Occup=    0.00000
   1         0.08466387
   2        -0.32529546
   3         0.00000000
   4        -0.00000000
   5         0.50880284
   6        -0.08466387
   7         0.32529546
   8         0.00000000
   9        -0.00000000
  10         0.50880284
Sym=     7a  
Ene=    -0.1624
Spin= Alpha
Occup=    0.00000
   1         0.20543878
   2         0.26665248
   3         0.00000000
   4         0.00000000
   5        -0.95434601
   6         0.20543878
   7         0.26665248
   8        -0.00000000
   9        -0.00000000
  10         0.95434601
Sym=     8a  
Ene=    -0.0867
Spin= Alpha
Occup=    0.00000
   1        -0.00000000
   2        -0.00000000
   3        -1.16740906
   4         0.65601629
   5        -0.00000000
   6         0.00000000
   7         0.00000000
   8         1.16740906
   9        -0.65601629
  10        -0.00000000
Sym=     9a  
Ene=    -0.0867
Spin= Alpha
Occup=    0.00000
   1         0.00000000
   2         0.00000000
   3        -0.65601629
   4        -1.16740906
   5         0.00000000
   6        -0.00000000
   7        -0.00000000
   8         0.65601629
   9         1.16740906
  10         0.00000000
Sym=    10a  
Ene=    -0.0032
Spin= Alpha
Occup=    0.00000
   1        -2.23694321
   2        -7.82556247
   3         0.00000000
   4        -0.00000000
   5        -3.13052724
   6         2.23694321
   7         7.82556247
   8        -0.00000000
   9         0.00000000
  10        -3.13052724
