[Molden Format]
[N_Atoms]
                     2
[Atoms] (AU)
B1          1      5           0.00000000      0.00000000      0.00000000
B2          2      5           0.00000000      0.00000000      1.51178090
[Charge] (Mulliken)
  8.988365607365267E-013
 -9.103828801926284E-013
[GTO] (AU)
   1
   s  14
  3.336021700E+04  1.039699991E-04
  4.972095200E+03  5.254399956E-04
  1.125641700E+03  2.509059979E-03
  3.164913600E+02  1.031887991E-02
  1.020072600E+02  3.636632969E-02
  3.629587300E+01  1.064607991E-01
  1.397141000E+01  2.403999880E-01
  5.741156000E+00  3.748581168E-01
  2.494268000E+00  3.100066974E-01
  1.114202000E+00  7.922455933E-02
  4.215490000E-01 -4.947589958E-03
  1.696330000E-01 -7.737119935E-03
  6.853500000E-02 -1.501079987E-03
  2.398700000E-02 -1.333299989E-04
   s  14
  3.336021700E+04 -2.030000008E-05
  4.972095200E+03 -1.025700004E-04
  1.125641700E+03 -4.911300020E-04
  3.164913600E+02 -2.026570008E-03
  1.020072600E+02 -7.261010030E-03
  3.629587300E+01 -2.197722009E-02
  1.397141000E+01 -5.408428022E-02
  5.741156000E+00 -1.022402604E-01
  2.494268000E+00 -1.423595206E-01
  1.114202000E+00 -4.658690019E-02
  4.215490000E-01  3.799402916E-01
  1.696330000E-01  5.890463624E-01
  6.853500000E-02  1.749075107E-01
  2.398700000E-02 -1.142030005E-03
   p   9
  5.500000000E+01  1.229800005E-03
  1.336610100E+01  8.827380035E-03
  4.135394000E+00  3.843340015E-02
  1.481256000E+00  1.150031805E-01
  6.021360000E-01  2.733674011E-01
  2.556360000E-01  4.061972116E-01
  1.111510000E-01  3.014967912E-01
  4.764800000E-02  7.684809030E-02
  1.667700000E-02 -8.170000032E-06
 
   2
   s  14
  3.336021700E+04  1.039699991E-04
  4.972095200E+03  5.254399956E-04
  1.125641700E+03  2.509059979E-03
  3.164913600E+02  1.031887991E-02
  1.020072600E+02  3.636632969E-02
  3.629587300E+01  1.064607991E-01
  1.397141000E+01  2.403999880E-01
  5.741156000E+00  3.748581168E-01
  2.494268000E+00  3.100066974E-01
  1.114202000E+00  7.922455933E-02
  4.215490000E-01 -4.947589958E-03
  1.696330000E-01 -7.737119935E-03
  6.853500000E-02 -1.501079987E-03
  2.398700000E-02 -1.333299989E-04
   s  14
  3.336021700E+04 -2.030000008E-05
  4.972095200E+03 -1.025700004E-04
  1.125641700E+03 -4.911300020E-04
  3.164913600E+02 -2.026570008E-03
  1.020072600E+02 -7.261010030E-03
  3.629587300E+01 -2.197722009E-02
  1.397141000E+01 -5.408428022E-02
  5.741156000E+00 -1.022402604E-01
  2.494268000E+00 -1.423595206E-01
  1.114202000E+00 -4.658690019E-02
  4.215490000E-01  3.799402916E-01
  1.696330000E-01  5.890463624E-01
  6.853500000E-02  1.749075107E-01
  2.398700000E-02 -1.142030005E-03
   p   9
  5.500000000E+01  1.229800005E-03
  1.336610100E+01  8.827380035E-03
  4.135394000E+00  3.843340015E-02
  1.481256000E+00  1.150031805E-01
  6.021360000E-01  2.733674011E-01
  2.556360000E-01  4.061972116E-01
  1.111510000E-01  3.014967912E-01
  4.764800000E-02  7.684809030E-02
  1.667700000E-02 -8.170000032E-06
 
[MO]
Sym=     1a  
Ene=    -8.1787
Spin= Alpha
Occup=    1.00000
   1         0.69460102
   2         0.00839592
   3        -0.00000000
   4        -0.00000000
   5         0.01360718
   6         0.69460102
   7         0.00839592
   8        -0.00000000
   9         0.00000000
  10        -0.01360718
Sym=     1a  
Ene=    -8.1787
Spin= Beta
Occup=    1.00000
   1         0.69460102
   2         0.00839592
   3        -0.00000000
   4        -0.00000000
   5         0.01360718
   6         0.69460102
   7         0.00839592
   8        -0.00000000
   9         0.00000000
  10        -0.01360718
Sym=     2a  
Ene=    -7.9988
Spin= Alpha
Occup=    1.00000
   1        -0.72075980
   2        -0.02378733
   3        -0.00000000
   4        -0.00000000
   5        -0.00693523
   6         0.72075980
   7         0.02378733
   8        -0.00000000
   9         0.00000000
  10        -0.00693523
Sym=     2a  
Ene=    -7.9988
Spin= Beta
Occup=    1.00000
   1        -0.72075980
   2        -0.02378733
   3        -0.00000000
   4        -0.00000000
   5        -0.00693523
   6         0.72075980
   7         0.02378733
   8        -0.00000000
   9         0.00000000
  10        -0.00693523
Sym=     3a  
Ene=    -0.7961
Spin= Alpha
Occup=    1.00000
   1        -0.16361139
   2         0.45441044
   3         0.00000000
   4        -0.00000000
   5         0.26676820
   6        -0.16361139
   7         0.45441044
   8         0.00000000
   9        -0.00000000
  10        -0.26676820
Sym=     3a  
Ene=    -0.7961
Spin= Beta
Occup=    1.00000
   1        -0.16361139
   2         0.45441044
   3         0.00000000
   4        -0.00000000
   5         0.26676820
   6        -0.16361139
   7         0.45441044
   8         0.00000000
   9        -0.00000000
  10        -0.26676820
Sym=     4a  
Ene=    -0.5224
Spin= Alpha
Occup=    1.00000
   1         0.00000000
   2         0.00000000
   3         0.29908328
   4         0.44838535
   5        -0.00000000
   6         0.00000000
   7        -0.00000000
   8         0.29908328
   9         0.44838535
  10         0.00000000
Sym=     4a  
Ene=    -0.5224
Spin= Beta
Occup=    1.00000
   1         0.00000000
   2         0.00000000
   3         0.29908328
   4         0.44838535
   5        -0.00000000
   6         0.00000000
   7        -0.00000000
   8         0.29908328
   9         0.44838535
  10         0.00000000
Sym=     5a  
Ene=    -0.5224
Spin= Alpha
Occup=    1.00000
   1         0.00000000
   2        -0.00000000
   3         0.44838535
   4        -0.29908328
   5         0.00000000
   6        -0.00000000
   7        -0.00000000
   8         0.44838535
   9        -0.29908328
  10         0.00000000
Sym=     5a  
Ene=    -0.5224
Spin= Beta
Occup=    1.00000
   1         0.00000000
   2        -0.00000000
   3         0.44838535
   4        -0.29908328
   5         0.00000000
   6        -0.00000000
   7        -0.00000000
   8         0.44838535
   9        -0.29908328
  10         0.00000000
Sym=     6a  
Ene=    -0.0650
Spin= Alpha
Occup=    0.00000
   1         0.03990484
   2        -0.47331353
   3         0.00000000
   4         0.00000000
   5         0.44948802
   6        -0.03990484
   7         0.47331353
   8        -0.00000000
   9        -0.00000000
  10         0.44948802
Sym=     6a  
Ene=    -0.0650
Spin= Beta
Occup=    0.00000
   1         0.03990484
   2        -0.47331353
   3         0.00000000
   4         0.00000000
   5         0.44948802
   6        -0.03990484
   7         0.47331353
   8        -0.00000000
   9        -0.00000000
  10         0.44948802
Sym=     7a  
Ene=     0.0335
Spin= Alpha
Occup=    0.00000
   1         0.18217556
   2         0.35842936
   3        -0.00000000
   4        -0.00000000
   5        -0.92056024
   6         0.18217556
   7         0.35842936
   8         0.00000000
   9        -0.00000000
  10         0.92056024
Sym=     7a  
Ene=     0.0335
Spin= Beta
Occup=    0.00000
   1         0.18217556
   2         0.35842936
   3        -0.00000000
   4        -0.00000000
   5        -0.92056024
   6         0.18217556
   7         0.35842936
   8         0.00000000
   9        -0.00000000
  10         0.92056024
Sym=     8a  
Ene=     0.4021
Spin= Alpha
Occup=    0.00000
   1        -0.00000000
   2        -0.00000000
   3        -1.31418607
   4        -0.25713088
   5         0.00000000
   6         0.00000000
   7         0.00000000
   8         1.31418607
   9         0.25713088
  10        -0.00000000
Sym=     8a  
Ene=     0.4021
Spin= Beta
Occup=    0.00000
   1        -0.00000000
   2        -0.00000000
   3        -1.31418607
   4        -0.25713088
   5         0.00000000
   6         0.00000000
   7         0.00000000
   8         1.31418607
   9         0.25713088
  10        -0.00000000
Sym=     9a  
Ene=     0.4021
Spin= Alpha
Occup=    0.00000
   1         0.00000000
   2         0.00000000
   3         0.25713088
   4        -1.31418607
   5        -0.00000000
   6         0.00000000
   7         0.00000000
   8        -0.25713088
   9         1.31418607
  10         0.00000000
Sym=     9a  
Ene=     0.4021
Spin= Beta
Occup=    0.00000
   1         0.00000000
   2         0.00000000
   3         0.25713088
   4        -1.31418607
   5        -0.00000000
   6         0.00000000
   7         0.00000000
   8        -0.25713088
   9         1.31418607
  10         0.00000000
Sym=    10a  
Ene=     2.8830
Spin= Alpha
Occup=    0.00000
   1        -2.23508898
   2        -7.81797399
   3         0.00000000
   4        -0.00000000
   5        -3.13959509
   6         2.23508898
   7         7.81797399
   8        -0.00000000
   9        -0.00000000
  10        -3.13959509
Sym=    10a  
Ene=     2.8830
Spin= Beta
Occup=    0.00000
   1        -2.23508898
   2        -7.81797399
   3         0.00000000
   4        -0.00000000
   5        -3.13959509
   6         2.23508898
   7         7.81797399
   8        -0.00000000
   9        -0.00000000
  10        -3.13959509
