[Molden Format]
[N_Atoms]
                     2
[Atoms] (AU)
N1          1      7           0.00000000      0.00000000      0.00000000
N2          2      7           0.00000000      0.00000000      5.29123315
[Charge] (Mulliken)
  0.000000000000000E+000
  0.000000000000000E+000
[GTO] (AU)
   1
   s  14
  7.476171500E+04  1.182599996E-04
  1.112365400E+04  5.172899983E-04
  2.512685700E+03  2.266659992E-03
  7.037772900E+02  9.145289970E-03
  2.254787900E+02  3.239342989E-02
  7.961581000E+01  9.770792967E-02
  3.023728300E+01  2.317036792E-01
  1.226362200E+01  3.768898887E-01
  5.265086000E+00  3.177420689E-01
  2.333471000E+00  8.211308973E-02
  9.018560000E-01  3.312089989E-03
  3.583360000E-01  3.720819988E-03
  1.410930000E-01  3.165419989E-03
  4.938300000E-02  4.595799985E-04
   s  14
  7.476171500E+04 -2.707000010E-05
  1.112365400E+04 -1.183700004E-04
  2.512685700E+03 -5.203800020E-04
  7.037772900E+02 -2.102930008E-03
  2.254787900E+02 -7.568200028E-03
  7.961581000E+01 -2.346767009E-02
  3.023728300E+01 -6.042901023E-02
  1.226362200E+01 -1.170549104E-01
  5.265086000E+00 -1.555321506E-01
  2.333471000E+00 -2.468935009E-02
  9.018560000E-01  3.625054514E-01
  3.583360000E-01  5.550845021E-01
  1.410930000E-01  2.148376908E-01
  4.938300000E-02  8.983850034E-03
   p   9
  1.266665700E+02  1.233630000E-03
  2.983738900E+01  9.493409996E-03
  9.394038000E+00  4.293961998E-02
  3.405104000E+00  1.362925399E-01
  1.350000000E+00  2.921362499E-01
  5.576960000E-01  3.887887598E-01
  2.324490000E-01  2.946801399E-01
  9.426400000E-02  8.012875997E-02
  3.299200000E-02  5.405199998E-04
 
   2
   s  14
  7.476171500E+04  1.182599996E-04
  1.112365400E+04  5.172899983E-04
  2.512685700E+03  2.266659992E-03
  7.037772900E+02  9.145289970E-03
  2.254787900E+02  3.239342989E-02
  7.961581000E+01  9.770792967E-02
  3.023728300E+01  2.317036792E-01
  1.226362200E+01  3.768898887E-01
  5.265086000E+00  3.177420689E-01
  2.333471000E+00  8.211308973E-02
  9.018560000E-01  3.312089989E-03
  3.583360000E-01  3.720819988E-03
  1.410930000E-01  3.165419989E-03
  4.938300000E-02  4.595799985E-04
   s  14
  7.476171500E+04 -2.707000010E-05
  1.112365400E+04 -1.183700004E-04
  2.512685700E+03 -5.203800020E-04
  7.037772900E+02 -2.102930008E-03
  2.254787900E+02 -7.568200028E-03
  7.961581000E+01 -2.346767009E-02
  3.023728300E+01 -6.042901023E-02
  1.226362200E+01 -1.170549104E-01
  5.265086000E+00 -1.555321506E-01
  2.333471000E+00 -2.468935009E-02
  9.018560000E-01  3.625054514E-01
  3.583360000E-01  5.550845021E-01
  1.410930000E-01  2.148376908E-01
  4.938300000E-02  8.983850034E-03
   p   9
  1.266665700E+02  1.233630000E-03
  2.983738900E+01  9.493409996E-03
  9.394038000E+00  4.293961998E-02
  3.405104000E+00  1.362925399E-01
  1.350000000E+00  2.921362499E-01
  5.576960000E-01  3.887887598E-01
  2.324490000E-01  2.946801399E-01
  9.426400000E-02  8.012875997E-02
  3.299200000E-02  5.405199998E-04
 
[MO]
Sym=     1a  
Ene=   -15.6350
Spin= Alpha
Occup=    2.00000
   1         0.70709310
   2         0.00005219
   3         0.00000000
   4         0.00000000
   5         0.00008225
   6         0.70709310
   7         0.00005219
   8         0.00000000
   9         0.00000000
  10        -0.00008225
Sym=     2a  
Ene=   -15.6330
Spin= Alpha
Occup=    2.00000
   1        -0.70711983
   2         0.00005150
   3        -0.00000000
   4        -0.00000000
   5         0.00008164
   6         0.70711983
   7        -0.00005150
   8        -0.00000000
   9         0.00000000
  10         0.00008164
Sym=     3a  
Ene=    -0.9738
Spin= Alpha
Occup=    2.00000
   1        -0.00101565
   2         0.69336792
   3        -0.00000000
   4        -0.00000000
   5         0.05315086
   6        -0.00101565
   7         0.69336792
   8         0.00000000
   9        -0.00000000
  10        -0.05315086
Sym=     4a  
Ene=    -0.9239
Spin= Alpha
Occup=    2.00000
   1        -0.00069785
   2        -0.71232574
   3        -0.00000000
   4         0.00000000
   5         0.05063165
   6         0.00069785
   7         0.71232574
   8        -0.00000000
   9         0.00000000
  10         0.05063165
Sym=     5a  
Ene=    -0.6064
Spin= Alpha
Occup=    2.00000
   1         0.00206942
   2         0.08668831
   3        -0.00000000
   4        -0.00000000
   5        -0.68266135
   6         0.00206942
   7         0.08668831
   8         0.00000000
   9        -0.00000000
  10         0.68266135
Sym=     6a  
Ene=    -0.5801
Spin= Alpha
Occup=    2.00000
   1         0.00000000
   2         0.00000000
   3        -0.44947436
   4         0.53836458
   5         0.00000000
   6        -0.00000000
   7        -0.00000000
   8        -0.44947436
   9         0.53836458
  10         0.00000000
Sym=     7a  
Ene=    -0.5801
Spin= Alpha
Occup=    2.00000
   1         0.00000000
   2         0.00000000
   3         0.53836458
   4         0.44947436
   5        -0.00000000
   6         0.00000000
   7        -0.00000000
   8         0.53836458
   9         0.44947436
  10         0.00000000
Sym=     8a  
Ene=    -0.5613
Spin= Alpha
Occup=    0.00000
   1         0.00000000
   2         0.00000000
   3        -0.19345281
   4        -0.68628427
   5         0.00000000
   6        -0.00000000
   7        -0.00000000
   8         0.19345281
   9         0.68628427
  10         0.00000000
Sym=     9a  
Ene=    -0.5613
Spin= Alpha
Occup=    0.00000
   1        -0.00000000
   2        -0.00000000
   3        -0.68628427
   4         0.19345281
   5        -0.00000000
   6         0.00000000
   7        -0.00000000
   8         0.68628427
   9        -0.19345281
  10        -0.00000000
Sym=    10a  
Ene=    -0.5282
Spin= Alpha
Occup=    0.00000
   1         0.00241880
   2         0.08618782
   3         0.00000000
   4         0.00000000
   5         0.73197365
   6        -0.00241880
   7        -0.08618782
   8         0.00000000
   9        -0.00000000
  10         0.73197365
