[Molden Format]
[N_Atoms]
                     2
[Atoms] (AU)
N1          1      7           0.00000000      0.00000000      0.00000000
N2          2      7           0.00000000      0.00000000      5.29123315
[Charge] (Mulliken)
  0.999983019364374     
   1.00001698063559     
[GTO] (AU)
   1
   s  14
  7.476171500E+04  1.182599996E-04
  1.112365400E+04  5.172899983E-04
  2.512685700E+03  2.266659992E-03
  7.037772900E+02  9.145289970E-03
  2.254787900E+02  3.239342989E-02
  7.961581000E+01  9.770792967E-02
  3.023728300E+01  2.317036792E-01
  1.226362200E+01  3.768898887E-01
  5.265086000E+00  3.177420689E-01
  2.333471000E+00  8.211308973E-02
  9.018560000E-01  3.312089989E-03
  3.583360000E-01  3.720819988E-03
  1.410930000E-01  3.165419989E-03
  4.938300000E-02  4.595799985E-04
   s  14
  7.476171500E+04 -2.707000010E-05
  1.112365400E+04 -1.183700004E-04
  2.512685700E+03 -5.203800020E-04
  7.037772900E+02 -2.102930008E-03
  2.254787900E+02 -7.568200028E-03
  7.961581000E+01 -2.346767009E-02
  3.023728300E+01 -6.042901023E-02
  1.226362200E+01 -1.170549104E-01
  5.265086000E+00 -1.555321506E-01
  2.333471000E+00 -2.468935009E-02
  9.018560000E-01  3.625054514E-01
  3.583360000E-01  5.550845021E-01
  1.410930000E-01  2.148376908E-01
  4.938300000E-02  8.983850034E-03
   p   9
  1.266665700E+02  1.233630000E-03
  2.983738900E+01  9.493409996E-03
  9.394038000E+00  4.293961998E-02
  3.405104000E+00  1.362925399E-01
  1.350000000E+00  2.921362499E-01
  5.576960000E-01  3.887887598E-01
  2.324490000E-01  2.946801399E-01
  9.426400000E-02  8.012875997E-02
  3.299200000E-02  5.405199998E-04
 
   2
   s  14
  7.476171500E+04  1.182599996E-04
  1.112365400E+04  5.172899983E-04
  2.512685700E+03  2.266659992E-03
  7.037772900E+02  9.145289970E-03
  2.254787900E+02  3.239342989E-02
  7.961581000E+01  9.770792967E-02
  3.023728300E+01  2.317036792E-01
  1.226362200E+01  3.768898887E-01
  5.265086000E+00  3.177420689E-01
  2.333471000E+00  8.211308973E-02
  9.018560000E-01  3.312089989E-03
  3.583360000E-01  3.720819988E-03
  1.410930000E-01  3.165419989E-03
  4.938300000E-02  4.595799985E-04
   s  14
  7.476171500E+04 -2.707000010E-05
  1.112365400E+04 -1.183700004E-04
  2.512685700E+03 -5.203800020E-04
  7.037772900E+02 -2.102930008E-03
  2.254787900E+02 -7.568200028E-03
  7.961581000E+01 -2.346767009E-02
  3.023728300E+01 -6.042901023E-02
  1.226362200E+01 -1.170549104E-01
  5.265086000E+00 -1.555321506E-01
  2.333471000E+00 -2.468935009E-02
  9.018560000E-01  3.625054514E-01
  3.583360000E-01  5.550845021E-01
  1.410930000E-01  2.148376908E-01
  4.938300000E-02  8.983850034E-03
   p   9
  1.266665700E+02  1.233630000E-03
  2.983738900E+01  9.493409996E-03
  9.394038000E+00  4.293961998E-02
  3.405104000E+00  1.362925399E-01
  1.350000000E+00  2.921362499E-01
  5.576960000E-01  3.887887598E-01
  2.324490000E-01  2.946801399E-01
  9.426400000E-02  8.012875997E-02
  3.299200000E-02  5.405199998E-04
 
[MO]
Sym=     1a  
Ene=   -16.7020
Spin= Alpha
Occup=    2.00000
   1        -0.00135864
   2        -0.00011456
   3         0.00000000
   4        -0.00000000
   5        -0.00015055
   6         0.99997052
   7        -0.00762653
   8         0.00000000
   9        -0.00000000
  10         0.00008326
Sym=     2a  
Ene=   -16.6980
Spin= Alpha
Occup=    2.00000
   1        -0.99979192
   2         0.02035632
   3        -0.00000000
   4         0.00000000
   5         0.00051689
   6        -0.00134827
   7        -0.00009483
   8        -0.00000000
   9         0.00000000
  10        -0.00012807
Sym=     3a  
Ene=    -1.7183
Spin= Alpha
Occup=    2.00000
   1         0.00095022
   2         0.00937613
   3        -0.00000000
   4         0.00000000
   5         0.00169297
   6        -0.00764972
   7        -0.99951732
   8        -0.00000000
   9         0.00000000
  10         0.03898460
Sym=     4a  
Ene=    -1.2397
Spin= Alpha
Occup=    2.00000
   1         0.00000000
   2         0.00000000
   3        -0.00144438
   4         0.00447195
   5        -0.00000000
   6         0.00000000
   7         0.00000000
   8        -0.30976930
   9         0.95071838
  10         0.00000002
Sym=     5a  
Ene=    -1.2383
Spin= Alpha
Occup=    2.00000
   1         0.00000000
   2         0.00000000
   3         0.95071507
   4         0.30977299
   5         0.00000000
   6        -0.00000000
   7        -0.00000000
   8         0.00456137
   9         0.00147341
  10        -0.00000000
Sym=     6a  
Ene=    -0.7120
Spin= Alpha
Occup=    0.03655
   1         0.00006693
   2         0.03265046
   3         0.00000000
   4        -0.00000000
   5        -1.00190073
   6         0.00288040
   7         0.04848313
   8         0.00000000
   9        -0.00000000
  10        -0.02278332
Sym=     7a  
Ene=    -0.1914
Spin= Alpha
Occup=    1.96345
   1        -0.02039296
   2        -0.99964339
   3         0.00000000
   4        -0.00000000
   5        -0.03519011
   6         0.00103841
   7         0.02045761
   8         0.00000000
   9        -0.00000000
  10        -0.00211963
Sym=     8a  
Ene=    -0.7021
Spin= Alpha
Occup=    0.00000
   1         0.00287191
   2         0.04748645
   3         0.00000000
   4        -0.00000001
   5         0.04641080
   6         0.00001369
   7         0.03532806
   8         0.00000001
   9        -0.00000002
  10         1.00257526
Sym=     9a  
Ene=    -0.6951
Spin= Alpha
Occup=    0.00000
   1         0.00000000
   2         0.00000000
   3         0.02028070
   4         0.00662960
   5         0.00000000
   6        -0.00000000
   7         0.00000000
   8        -0.95092183
   9        -0.30983611
  10         0.00000000
Sym=    10a  
Ene=    -0.6938
Spin= Alpha
Occup=    0.00000
   1        -0.00000000
   2        -0.00000000
   3         0.30984056
   4        -0.95092085
   5         0.00000000
   6        -0.00000000
   7        -0.00000000
   8        -0.00660046
   9         0.02019133
  10        -0.00000001
