[Molden Format]
[N_Atoms]
                     2
[Atoms] (AU)
C1          1      6           0.00000000      0.00000000      0.00000000
LI2         2      3           0.00000000      0.00000000      1.32280829
[Charge] (Mulliken)
 -0.637266295739664     
  0.637266295739653     
[GTO] (AU)
   1
   s  14
  5.055750100E+04  1.128874000E-04
  7.524785600E+03  5.295373000E-04
  1.694327600E+03  2.450038300E-03
  4.728227900E+02  1.005398470E-02
  1.517107500E+02  3.545398060E-02
  5.391874600E+01  1.044071086E-01
  2.065931100E+01  2.412894918E-01
  8.383976000E+00  3.834225483E-01
  3.577015000E+00  3.078514393E-01
  1.547118000E+00  6.872442990E-02
  6.130130000E-01  2.224445000E-04
  2.460680000E-01  1.976748900E-03
  9.908700000E-02  2.057859400E-03
  3.468000000E-02  4.182020000E-04
   s  14
  5.055750100E+04 -2.507420000E-05
  7.524785600E+03 -1.175945000E-04
  1.694327600E+03 -5.456275000E-04
  4.728227900E+02 -2.245077100E-03
  1.517107500E+02 -8.043471800E-03
  5.391874600E+01 -2.442588710E-02
  2.065931100E+01 -6.136791180E-02
  8.383976000E+00 -1.177767835E-01
  3.577015000E+00 -1.550487783E-01
  1.547118000E+00 -1.933316860E-02
  6.130130000E-01  3.996930678E-01
  2.460680000E-01  5.589420949E-01
  9.908700000E-02  1.711195023E-01
  3.468000000E-02  7.456244600E-03
   p   9
  8.333315500E+01  1.344656000E-03
  1.955761100E+01  1.023555500E-02
  6.080365000E+00  4.520067100E-02
  2.179317000E+00  1.410756198E-01
  8.651500000E-01  3.047388085E-01
  3.619440000E-01  3.995281011E-01
  1.547400000E-01  2.719163432E-01
  6.542900000E-02  5.857669330E-02
  2.290000000E-02 -1.263813000E-04
 
   2
   s  14
  9.497934400E+03  9.668999974E-05
  1.416811200E+03  6.087099984E-04
  3.214599400E+02  3.101519992E-03
  9.112416300E+01  1.266904997E-02
  2.999989100E+01  4.248012989E-02
  1.101763100E+01  1.150183297E-01
  4.372801000E+00  2.398650094E-01
  1.831256000E+00  3.584300090E-01
  8.022610000E-01  3.048527792E-01
  3.626480000E-01  8.824261976E-02
  1.139950000E-01 -8.445899977E-04
  5.123700000E-02 -7.943959979E-03
  2.246800000E-02 -3.764419990E-03
  7.860000000E-03 -8.868999976E-05
   s  14
  9.497934400E+03 -1.244999993E-05
  1.416811200E+03 -7.838999954E-05
  3.214599400E+02 -4.007099976E-04
  9.112416300E+01 -1.645249990E-03
  2.999989100E+01 -5.634599967E-03
  1.101763100E+01 -1.590780991E-02
  4.372801000E+00 -3.612581979E-02
  1.831256000E+00 -6.459927962E-02
  8.022610000E-01 -1.008321794E-01
  3.626480000E-01 -9.757613942E-02
  1.139950000E-01  2.301215886E-01
  5.123700000E-02  6.102389764E-01
  2.246800000E-02  2.849406083E-01
  7.860000000E-03  4.026899976E-03
   p   9
  1.311950400E+01  1.524940000E-03
  3.077424200E+00  8.314830000E-03
  1.098800500E+00  1.933203000E-02
  4.357784000E-01  4.934293000E-02
  1.802432000E-01  1.623554000E-01
  7.613330000E-02  3.847505400E-01
  3.254650000E-02  4.336100400E-01
  1.401820000E-02  1.287005900E-01
  4.906400000E-03 -1.018520000E-03
 
[MO]
Sym=     1a  
Ene=   -11.4620
Spin= Alpha
Occup=    1.00000
   1         0.99952463
   2         0.00126105
   3         0.00000000
   4         0.00000000
   5         0.00772509
   6         0.00395024
   7        -0.00307812
   8         0.00000000
   9        -0.00000000
  10        -0.00224692
Sym=     1a  
Ene=   -11.4360
Spin= Beta
Occup=    1.00000
   1         0.99937653
   2        -0.00206206
   3         0.00000000
   4         0.00000000
   5         0.00724120
   6         0.00484889
   7        -0.00218219
   8        -0.00000000
   9        -0.00000000
  10        -0.00246711
Sym=     2a  
Ene=    -3.2335
Spin= Alpha
Occup=    1.00000
   1        -0.10477885
   2         0.00905734
   3        -0.00000000
   4         0.00000000
   5         0.05052501
   6         0.97407807
   7        -0.00334181
   8         0.00000000
   9        -0.00000000
  10        -0.03029393
Sym=     2a  
Ene=    -3.2184
Spin= Beta
Occup=    1.00000
   1        -0.10486898
   2        -0.00410003
   3        -0.00000000
   4         0.00000000
   5         0.04589633
   6         0.98215054
   7        -0.00127655
   8         0.00000000
   9        -0.00000000
  10        -0.02993163
Sym=     3a  
Ene=    -0.6323
Spin= Alpha
Occup=    1.00000
   1        -0.02379992
   2        -0.96019411
   3        -0.00000000
   4         0.00000000
   5         0.18096480
   6         0.31110872
   7        -0.09708493
   8         0.00000000
   9        -0.00000000
  10         0.04169115
Sym=     3a  
Ene=    -0.5155
Spin= Beta
Occup=    1.00000
   1        -0.01544421
   2        -0.89010684
   3         0.00000000
   4         0.00000000
   5         0.21683593
   6         0.25278888
   7        -0.16520366
   8         0.00000000
   9         0.00000000
  10         0.05966660
Sym=     4a  
Ene=    -0.5251
Spin= Alpha
Occup=    1.00000
   1         0.00000000
   2        -0.00000000
   3         0.92413071
   4         0.26741855
   5         0.00000000
   6        -0.00000000
   7        -0.00000000
   8         0.06951180
   9         0.02011484
  10        -0.00000000
Sym=     4a  
Ene=    -0.4187
Spin= Beta
Occup=    1.00000
   1        -0.00000000
   2         0.00000000
   3        -0.25156652
   4         0.86935012
   5        -0.00000000
   6        -0.00000000
   7        -0.00000000
   8        -0.04703939
   9         0.16255621
  10        -0.00000000
Sym=     5a  
Ene=    -0.4622
Spin= Alpha
Occup=    1.00000
   1        -0.00000000
   2         0.00000000
   3        -0.26020746
   4         0.89921100
   5         0.00000000
   6        -0.00000000
   7        -0.00000000
   8        -0.03278521
   9         0.11329739
  10        -0.00000000
Sym=     5a  
Ene=    -0.0093
Spin= Beta
Occup=    0.00000
   1        -0.00000000
   2         0.00000000
   3         0.46487330
   4         0.13452182
   5        -0.00000000
   6        -0.00000000
   7        -0.00000000
   8         0.64065837
   9         0.18538929
  10        -0.00000000
Sym=     6a  
Ene=    -0.0095
Spin= Alpha
Occup=    0.00000
   1         0.01773671
   2        -0.13691654
   3         0.00000000
   4         0.00000000
   5         0.03593639
   6         0.04654204
   7         0.74205954
   8        -0.00000000
   9        -0.00000000
  10         0.67259685
Sym=     6a  
Ene=    -0.0064
Spin= Beta
Occup=    0.00000
   1         0.02094077
   2        -0.13129697
   3         0.00000000
   4         0.00000000
   5         0.03281759
   6         0.04567361
   7         0.71612891
   8         0.00000000
   9         0.00000000
  10         0.69683954
Sym=     7a  
Ene=     0.1343
Spin= Alpha
Occup=    0.00000
   1         0.00000000
   2         0.00000000
   3        -0.60975432
   4        -0.17644649
   5        -0.00000000
   6        -0.00000000
   7        -0.00000000
   8         1.10498236
   9         0.31975215
  10         0.00000000
Sym=     7a  
Ene=     0.1609
Spin= Beta
Occup=    0.00000
   1        -0.00000000
   2        -0.00000000
   3         0.19839437
   4        -0.68560065
   5         0.00000000
   6        -0.00000000
   7         0.00000000
   8        -0.31691219
   9         1.09516819
  10        -0.00000000
Sym=     8a  
Ene=     0.1524
Spin= Alpha
Occup=    0.00000
   1        -0.00000000
   2        -0.00000000
   3         0.18691742
   4        -0.64593922
   5         0.00000000
   6        -0.00000000
   7         0.00000000
   8        -0.31870233
   9         1.10135444
  10        -0.00000000
Sym=     8a  
Ene=     0.2404
Spin= Beta
Occup=    0.00000
   1         0.15906751
   2         1.03385692
   3        -0.00000000
   4        -0.00000000
   5        -0.33940958
   6        -0.25324895
   7        -0.97197735
   8         0.00000000
   9         0.00000000
  10         0.96942525
Sym=     9a  
Ene=     0.2253
Spin= Alpha
Occup=    0.00000
   1         0.15926316
   2         1.00196351
   3         0.00000000
   4        -0.00000000
   5        -0.31591048
   6        -0.25355576
   7        -0.96420000
   8        -0.00000000
   9         0.00000000
  10         0.98569063
Sym=     9a  
Ene=     0.2497
Spin= Beta
Occup=    0.00000
   1        -0.00000000
   2        -0.00000000
   3        -1.00484362
   4        -0.29077470
   5         0.00000000
   6         0.00000000
   7         0.00000000
   8         0.90298104
   9         0.26129840
  10        -0.00000000
Sym=    10a  
Ene=     0.7041
Spin= Alpha
Occup=    0.00000
   1        -0.08912326
   2        -0.64594181
   3         0.00000000
   4        -0.00000000
   5        -1.24950579
   6         0.95405626
   7         0.36447799
   8        -0.00000000
   9         0.00000000
  10         0.17982531
Sym=    10a  
Ene=     0.7501
Spin= Beta
Occup=    0.00000
   1        -0.09212138
   2        -0.69538761
   3         0.00000000
   4        -0.00000000
   5        -1.23784640
   6         0.96309182
   7         0.37114029
   8        -0.00000000
   9         0.00000000
  10         0.17069809
