[Molden Format]
[N_Atoms]
                     2
[Atoms] (AU)
C1          1      6           0.00000000      0.00000000      0.00000000
O2          2      8           0.00000000      0.00000000      2.83458919
[Charge] (Mulliken)
  0.420799477222167     
 -0.420799477222181     
[GTO] (AU)
   1
   s  14
  5.055750100E+04  1.128874000E-04
  7.524785600E+03  5.295373000E-04
  1.694327600E+03  2.450038300E-03
  4.728227900E+02  1.005398470E-02
  1.517107500E+02  3.545398060E-02
  5.391874600E+01  1.044071086E-01
  2.065931100E+01  2.412894918E-01
  8.383976000E+00  3.834225483E-01
  3.577015000E+00  3.078514393E-01
  1.547118000E+00  6.872442990E-02
  6.130130000E-01  2.224445000E-04
  2.460680000E-01  1.976748900E-03
  9.908700000E-02  2.057859400E-03
  3.468000000E-02  4.182020000E-04
   s  14
  5.055750100E+04 -2.507420000E-05
  7.524785600E+03 -1.175945000E-04
  1.694327600E+03 -5.456275000E-04
  4.728227900E+02 -2.245077100E-03
  1.517107500E+02 -8.043471800E-03
  5.391874600E+01 -2.442588710E-02
  2.065931100E+01 -6.136791180E-02
  8.383976000E+00 -1.177767835E-01
  3.577015000E+00 -1.550487783E-01
  1.547118000E+00 -1.933316860E-02
  6.130130000E-01  3.996930678E-01
  2.460680000E-01  5.589420949E-01
  9.908700000E-02  1.711195023E-01
  3.468000000E-02  7.456244600E-03
   p   9
  8.333315500E+01  1.344656000E-03
  1.955761100E+01  1.023555500E-02
  6.080365000E+00  4.520067100E-02
  2.179317000E+00  1.410756198E-01
  8.651500000E-01  3.047388085E-01
  3.619440000E-01  3.995281011E-01
  1.547400000E-01  2.719163432E-01
  6.542900000E-02  5.857669330E-02
  2.290000000E-02 -1.263813000E-04
 
   2
   s  14
  1.053749500E+05  1.238600013E-04
  1.567924000E+04  5.120100053E-04
  3.534544700E+03  2.152910022E-03
  9.873651600E+02  8.528440089E-03
  3.159787500E+02  3.018049031E-02
  1.116542800E+02  9.099702095E-02
  4.269945100E+01  2.177936423E-01
  1.739559600E+01  3.686245738E-01
  7.438309000E+00  3.366707335E-01
  3.222862000E+00  9.657630101E-02
  1.253877000E+00  2.144520022E-03
  4.951550000E-01  1.194350012E-03
  1.916650000E-01  5.390200056E-04
  6.708300000E-02  2.103400022E-04
   s  14
  1.053749500E+05 -2.815000008E-05
  1.567924000E+04 -1.163000003E-04
  3.534544700E+03 -4.909200013E-04
  9.873651600E+02 -1.946160005E-03
  3.159787500E+02 -7.005300019E-03
  1.116542800E+02 -2.167814006E-02
  4.269945100E+01 -5.641213015E-02
  1.739559600E+01 -1.127053003E-01
  7.438309000E+00 -1.589119704E-01
  3.222862000E+00 -3.355083009E-02
  1.253877000E+00  3.531902810E-01
  4.951550000E-01  5.534199315E-01
  1.916650000E-01  2.301839106E-01
  6.708300000E-02  1.127267003E-02
   p   9
  2.000000000E+02  9.173000030E-04
  4.653336700E+01  7.377140024E-03
  1.462180900E+01  3.483515011E-02
  5.313064000E+00  1.144397004E-01
  2.102525000E+00  2.554966408E-01
  8.502230000E-01  3.722557412E-01
  3.375970000E-01  3.323314911E-01
  1.288920000E-01  1.400847905E-01
  4.511200000E-02  2.395784008E-02
 
[MO]
Sym=     1a  
Ene=   -20.6120
Spin= Alpha
Occup=    2.00000
   1        -0.00006784
   2        -0.00004623
   3         0.00000000
   4        -0.00000000
   5        -0.00064626
   6         1.00002824
   7         0.00028674
   8         0.00000000
   9        -0.00000000
  10        -0.00139643
Sym=     2a  
Ene=   -11.5170
Spin= Alpha
Occup=    2.00000
   1         0.99980171
   2        -0.01592653
   3        -0.00000000
   4         0.00000000
   5         0.00611819
   6        -0.00010383
   7         0.00183849
   8        -0.00000000
   9         0.00000000
  10        -0.00041442
Sym=     3a  
Ene=    -1.3119
Spin= Alpha
Occup=    2.00000
   1        -0.02159806
   2         0.10895307
   3        -0.00000000
   4         0.00000000
   5         0.16895881
   6        -0.00998580
   7         0.88087211
   8        -0.00000000
   9         0.00000000
  10        -0.10833517
Sym=     4a  
Ene=    -0.5998
Spin= Alpha
Occup=    2.00000
   1         0.02553838
   2        -0.06362158
   3         0.00000000
   4        -0.00000000
   5        -0.52233983
   6         0.02490399
   7         0.43270151
   8         0.00000000
   9        -0.00000000
  10         0.70656401
Sym=     5a  
Ene=    -0.5225
Spin= Alpha
Occup=    2.00000
   1        -0.00000000
   2        -0.00000000
   3         0.32108235
   4        -0.07022605
   5         0.00000000
   6        -0.00000000
   7        -0.00000000
   8         0.86333312
   9        -0.18882531
  10        -0.00000000
Sym=     6a  
Ene=    -0.5111
Spin= Alpha
Occup=    2.00000
   1        -0.00000000
   2        -0.00000000
   3         0.08246337
   4         0.37703292
   5         0.00000000
   6        -0.00000000
   7        -0.00000000
   8         0.18198656
   9         0.83206549
  10        -0.00000000
Sym=     7a  
Ene=    -0.7217
Spin= Alpha
Occup=    1.97033
   1        -0.02189559
   2        -0.95625502
   3        -0.00000000
   4         0.00000000
   5         0.33311662
   6         0.00756473
   7         0.18710055
   8        -0.00000000
   9         0.00000000
  10        -0.02883621
Sym=     8a  
Ene=    -0.0000
Spin= Alpha
Occup=    0.02967
   1         0.00000000
   2        -0.00000000
   3        -0.94201894
   4         0.20603520
   5         0.00000000
   6        -0.00000000
   7        -0.00000000
   8         0.49512572
   9        -0.10829223
  10         0.00000000
Sym=     9a  
Ene=     0.0356
Spin= Alpha
Occup=    0.00000
   1         0.00000000
   2         0.00000000
   3        -0.20144973
   4        -0.92105360
   5         0.00000000
   6        -0.00000000
   7        -0.00000000
   8         0.11942820
   9         0.54604082
  10         0.00000000
Sym=    10a  
Ene=     0.3480
Spin= Alpha
Occup=    0.00000
   1        -0.05122165
   2        -0.56916786
   3        -0.00000000
   4         0.00000000
   5        -0.93893653
   6         0.05267837
   7         0.54936469
   8         0.00000000
   9        -0.00000000
  10        -0.85847304
