[Molden Format]
[N_Atoms]
                     2
[Atoms] (AU)
BE1         1      4           0.00000000      0.00000000      0.00000000
BE2         2      4           0.00000000      0.00000000      5.29123315
[Charge] (Mulliken)
   1.00000000000096     
  0.999999999999020     
[GTO] (AU)
   1
   s  14
  2.262859900E+04  8.443999941E-05
  3.372318100E+03  4.601499968E-04
  7.603504000E+02  2.285389984E-03
  2.117404800E+02  9.648129932E-03
  6.722346800E+01  3.494469975E-02
  2.337217700E+01  1.061099893E-01
  8.721373000E+00  2.458240383E-01
  3.468091000E+00  3.862428773E-01
  1.452144000E+00  3.105526078E-01
  6.086150000E-01  6.415933955E-02
  2.576860000E-01 -2.265049984E-03
  1.041760000E-01 -5.217499963E-04
  4.242700000E-02 -8.757499938E-04
  1.484900000E-02  1.242199991E-04
   s  14
  2.262859900E+04 -1.586999994E-05
  3.372318100E+03 -8.656999968E-05
  7.603504000E+02 -4.302199984E-04
  2.117404800E+02 -1.825079993E-03
  6.722346800E+01 -6.682749976E-03
  2.337217700E+01 -2.095119992E-02
  8.721373000E+00 -5.200308981E-02
  3.468091000E+00 -9.849176964E-02
  1.452144000E+00 -1.355800695E-01
  6.086150000E-01 -6.429875976E-02
  2.576860000E-01  3.125414989E-01
  1.041760000E-01  6.270468577E-01
  4.242700000E-02  2.110231492E-01
  1.484900000E-02 -4.104669985E-03
   p   9
  3.371018400E+01  1.069960000E-03
  8.057649500E+00  6.828550001E-03
  2.836471400E+00  2.119065000E-02
  1.099965700E+00  5.843696001E-02
  4.433964000E-01  2.020920800E-01
  1.822264000E-01  4.582953101E-01
  7.572410000E-02  3.691239601E-01
  3.168540000E-02  6.611471001E-02
  1.108990000E-02  1.405160000E-03
 
   2
   s  14
  2.262859900E+04  8.443999941E-05
  3.372318100E+03  4.601499968E-04
  7.603504000E+02  2.285389984E-03
  2.117404800E+02  9.648129932E-03
  6.722346800E+01  3.494469975E-02
  2.337217700E+01  1.061099893E-01
  8.721373000E+00  2.458240383E-01
  3.468091000E+00  3.862428773E-01
  1.452144000E+00  3.105526078E-01
  6.086150000E-01  6.415933955E-02
  2.576860000E-01 -2.265049984E-03
  1.041760000E-01 -5.217499963E-04
  4.242700000E-02 -8.757499938E-04
  1.484900000E-02  1.242199991E-04
   s  14
  2.262859900E+04 -1.586999994E-05
  3.372318100E+03 -8.656999968E-05
  7.603504000E+02 -4.302199984E-04
  2.117404800E+02 -1.825079993E-03
  6.722346800E+01 -6.682749976E-03
  2.337217700E+01 -2.095119992E-02
  8.721373000E+00 -5.200308981E-02
  3.468091000E+00 -9.849176964E-02
  1.452144000E+00 -1.355800695E-01
  6.086150000E-01 -6.429875976E-02
  2.576860000E-01  3.125414989E-01
  1.041760000E-01  6.270468577E-01
  4.242700000E-02  2.110231492E-01
  1.484900000E-02 -4.104669985E-03
   p   9
  3.371018400E+01  1.069960000E-03
  8.057649500E+00  6.828550001E-03
  2.836471400E+00  2.119065000E-02
  1.099965700E+00  5.843696001E-02
  4.433964000E-01  2.020920800E-01
  1.822264000E-01  4.582953101E-01
  7.572410000E-02  3.691239601E-01
  3.168540000E-02  6.611471001E-02
  1.108990000E-02  1.405160000E-03
 
[MO]
Sym=     1a  
Ene=    -5.3549
Spin= Alpha
Occup=    2.00000
   1        -0.70700946
   2        -0.00005624
   3        -0.00000000
   4         0.00000000
   5         0.00169714
   6         0.70700946
   7         0.00005624
   8        -0.00000000
   9         0.00000000
  10         0.00169714
Sym=     2a  
Ene=    -5.3544
Spin= Alpha
Occup=    2.00000
   1         0.70728883
   2        -0.00402509
   3         0.00000000
   4        -0.00000000
   5        -0.00256680
   6         0.70728883
   7        -0.00402509
   8        -0.00000000
   9         0.00000000
  10         0.00256680
Sym=     3a  
Ene=    -0.7941
Spin= Alpha
Occup=    1.97804
   1        -0.01237567
   2         0.54263023
   3        -0.00000000
   4         0.00000002
   5         0.20262801
   6        -0.01237567
   7         0.54263023
   8         0.00000000
   9        -0.00000002
  10        -0.20262801
Sym=     4a  
Ene=     0.0000
Spin= Alpha
Occup=    0.02196
   1         0.00000003
   2         0.00000095
   3        -0.07701950
   4         0.64702601
   5         0.00000043
   6        -0.00000003
   7        -0.00000095
   8        -0.07701950
   9         0.64702601
  10         0.00000043
Sym=     5a  
Ene=    -0.4944
Spin= Alpha
Occup=    0.00000
   1         0.00849032
   2         0.76008356
   3         0.00000006
   4        -0.00000054
   5        -0.12626259
   6        -0.00849032
   7        -0.76008356
   8         0.00000006
   9        -0.00000054
  10        -0.12626259
Sym=     6a  
Ene=    -0.3957
Spin= Alpha
Occup=    0.00000
   1         0.01626528
   2         0.36017335
   3         0.00000000
   4        -0.00000001
   5        -0.60748331
   6         0.01626528
   7         0.36017335
   8        -0.00000000
   9         0.00000001
  10         0.60748331
Sym=     7a  
Ene=    -0.3827
Spin= Alpha
Occup=    0.00000
   1         0.00000000
   2        -0.00000000
   3         0.64702601
   4         0.07701950
   5        -0.00000000
   6        -0.00000000
   7        -0.00000000
   8         0.64702601
   9         0.07701950
  10        -0.00000000
Sym=     8a  
Ene=    -0.3177
Spin= Alpha
Occup=    0.00000
   1        -0.00000000
   2         0.00000001
   3         0.09216798
   4        -0.77428553
   5         0.00000001
   6        -0.00000000
   7         0.00000001
   8        -0.09216798
   9         0.77428553
  10        -0.00000001
Sym=     9a  
Ene=    -0.3171
Spin= Alpha
Occup=    0.00000
   1        -0.00000000
   2        -0.00000000
   3        -0.77428553
   4        -0.09216798
   5        -0.00000000
   6         0.00000000
   7        -0.00000000
   8         0.77428553
   9         0.09216798
  10         0.00000000
Sym=    10a  
Ene=    -0.2265
Spin= Alpha
Occup=    0.00000
   1        -0.04954207
   2        -0.54818431
   3        -0.00000004
   4         0.00000036
   5        -0.95958661
   6         0.04954207
   7         0.54818431
   8        -0.00000004
   9         0.00000036
  10        -0.95958661
