[Molden Format]
[N_Atoms]
                     2
[Atoms] (AU)
BE1         1      4           0.00000000      0.00000000      0.00000000
BE2         2      4           0.00000000      0.00000000      5.29123315
[Charge] (Mulliken)
  5.648814749292796E-013
 -5.790923296444817E-013
[GTO] (AU)
   1
   s  14
  2.262859900E+04  8.443999941E-05
  3.372318100E+03  4.601499968E-04
  7.603504000E+02  2.285389984E-03
  2.117404800E+02  9.648129932E-03
  6.722346800E+01  3.494469975E-02
  2.337217700E+01  1.061099893E-01
  8.721373000E+00  2.458240383E-01
  3.468091000E+00  3.862428773E-01
  1.452144000E+00  3.105526078E-01
  6.086150000E-01  6.415933955E-02
  2.576860000E-01 -2.265049984E-03
  1.041760000E-01 -5.217499963E-04
  4.242700000E-02 -8.757499938E-04
  1.484900000E-02  1.242199991E-04
   s  14
  2.262859900E+04 -1.586999994E-05
  3.372318100E+03 -8.656999968E-05
  7.603504000E+02 -4.302199984E-04
  2.117404800E+02 -1.825079993E-03
  6.722346800E+01 -6.682749976E-03
  2.337217700E+01 -2.095119992E-02
  8.721373000E+00 -5.200308981E-02
  3.468091000E+00 -9.849176964E-02
  1.452144000E+00 -1.355800695E-01
  6.086150000E-01 -6.429875976E-02
  2.576860000E-01  3.125414989E-01
  1.041760000E-01  6.270468577E-01
  4.242700000E-02  2.110231492E-01
  1.484900000E-02 -4.104669985E-03
   p   9
  3.371018400E+01  1.069960000E-03
  8.057649500E+00  6.828550001E-03
  2.836471400E+00  2.119065000E-02
  1.099965700E+00  5.843696001E-02
  4.433964000E-01  2.020920800E-01
  1.822264000E-01  4.582953101E-01
  7.572410000E-02  3.691239601E-01
  3.168540000E-02  6.611471001E-02
  1.108990000E-02  1.405160000E-03
 
   2
   s  14
  2.262859900E+04  8.443999941E-05
  3.372318100E+03  4.601499968E-04
  7.603504000E+02  2.285389984E-03
  2.117404800E+02  9.648129932E-03
  6.722346800E+01  3.494469975E-02
  2.337217700E+01  1.061099893E-01
  8.721373000E+00  2.458240383E-01
  3.468091000E+00  3.862428773E-01
  1.452144000E+00  3.105526078E-01
  6.086150000E-01  6.415933955E-02
  2.576860000E-01 -2.265049984E-03
  1.041760000E-01 -5.217499963E-04
  4.242700000E-02 -8.757499938E-04
  1.484900000E-02  1.242199991E-04
   s  14
  2.262859900E+04 -1.586999994E-05
  3.372318100E+03 -8.656999968E-05
  7.603504000E+02 -4.302199984E-04
  2.117404800E+02 -1.825079993E-03
  6.722346800E+01 -6.682749976E-03
  2.337217700E+01 -2.095119992E-02
  8.721373000E+00 -5.200308981E-02
  3.468091000E+00 -9.849176964E-02
  1.452144000E+00 -1.355800695E-01
  6.086150000E-01 -6.429875976E-02
  2.576860000E-01  3.125414989E-01
  1.041760000E-01  6.270468577E-01
  4.242700000E-02  2.110231492E-01
  1.484900000E-02 -4.104669985E-03
   p   9
  3.371018400E+01  1.069960000E-03
  8.057649500E+00  6.828550001E-03
  2.836471400E+00  2.119065000E-02
  1.099965700E+00  5.843696001E-02
  4.433964000E-01  2.020920800E-01
  1.822264000E-01  4.582953101E-01
  7.572410000E-02  3.691239601E-01
  3.168540000E-02  6.611471001E-02
  1.108990000E-02  1.405160000E-03
 
[MO]
Sym=     1a  
Ene=    -4.7082
Spin= Alpha
Occup=    1.00000
   1         0.70709527
   2         0.00158749
   3         0.00000000
   4        -0.00000000
   5         0.00021473
   6         0.70709564
   7         0.00158749
   8         0.00000000
   9        -0.00000000
  10        -0.00021473
Sym=     1a  
Ene=    -4.7082
Spin= Beta
Occup=    1.00000
   1         0.70709527
   2         0.00158749
   3         0.00000000
   4        -0.00000000
   5         0.00021473
   6         0.70709564
   7         0.00158749
   8         0.00000000
   9        -0.00000000
  10        -0.00021473
Sym=     2a  
Ene=    -4.7082
Spin= Alpha
Occup=    1.00000
   1        -0.70711434
   2        -0.00150948
   3         0.00000000
   4        -0.00000000
   5        -0.00024052
   6         0.70711397
   7         0.00150948
   8         0.00000000
   9        -0.00000000
  10        -0.00024052
Sym=     2a  
Ene=    -4.7082
Spin= Beta
Occup=    1.00000
   1        -0.70711434
   2        -0.00150948
   3         0.00000000
   4        -0.00000000
   5        -0.00024052
   6         0.70711397
   7         0.00150948
   8         0.00000000
   9        -0.00000000
  10        -0.00024052
Sym=     3a  
Ene=    -0.3616
Spin= Alpha
Occup=    1.00000
   1        -0.01631139
   2         0.60397836
   3         0.00000000
   4        -0.00000000
   5         0.07636218
   6        -0.01631139
   7         0.60397836
   8        -0.00000000
   9        -0.00000000
  10        -0.07636218
Sym=     3a  
Ene=    -0.3616
Spin= Beta
Occup=    1.00000
   1        -0.01631139
   2         0.60397836
   3         0.00000000
   4        -0.00000000
   5         0.07636218
   6        -0.01631139
   7         0.60397836
   8        -0.00000000
   9        -0.00000000
  10        -0.07636218
Sym=     4a  
Ene=    -0.2513
Spin= Alpha
Occup=    1.00000
   1        -0.00930213
   2        -0.77251779
   3         0.00000000
   4        -0.00000000
   5         0.10410861
   6         0.00930213
   7         0.77251779
   8         0.00000000
   9        -0.00000000
  10         0.10410861
Sym=     4a  
Ene=    -0.2513
Spin= Beta
Occup=    1.00000
   1        -0.00930213
   2        -0.77251779
   3         0.00000000
   4        -0.00000000
   5         0.10410861
   6         0.00930213
   7         0.77251779
   8         0.00000000
   9        -0.00000000
  10         0.10410861
Sym=     5a  
Ene=     0.0548
Spin= Alpha
Occup=    0.00000
   1         0.02061941
   2         0.24371344
   3         0.00000000
   4        -0.00000000
   5        -0.63582186
   6         0.02061941
   7         0.24371344
   8         0.00000000
   9        -0.00000000
  10         0.63582186
Sym=     5a  
Ene=     0.0548
Spin= Beta
Occup=    0.00000
   1         0.02061941
   2         0.24371344
   3         0.00000000
   4        -0.00000000
   5        -0.63582186
   6         0.02061941
   7         0.24371344
   8         0.00000000
   9        -0.00000000
  10         0.63582186
Sym=     6a  
Ene=     0.0700
Spin= Alpha
Occup=    0.00000
   1        -0.00000000
   2        -0.00000000
   3         0.58023776
   4        -0.29647731
   5         0.00000000
   6        -0.00000000
   7        -0.00000000
   8         0.58023776
   9        -0.29647731
  10        -0.00000000
Sym=     6a  
Ene=     0.0700
Spin= Beta
Occup=    0.00000
   1        -0.00000000
   2        -0.00000000
   3         0.58023776
   4        -0.29647731
   5         0.00000000
   6        -0.00000000
   7        -0.00000000
   8         0.58023776
   9        -0.29647731
  10        -0.00000000
Sym=     7a  
Ene=     0.0700
Spin= Alpha
Occup=    0.00000
   1         0.00000000
   2         0.00000000
   3         0.29647731
   4         0.58023776
   5        -0.00000000
   6         0.00000000
   7         0.00000000
   8         0.29647731
   9         0.58023776
  10         0.00000000
Sym=     7a  
Ene=     0.0700
Spin= Beta
Occup=    0.00000
   1         0.00000000
   2         0.00000000
   3         0.29647731
   4         0.58023776
   5        -0.00000000
   6         0.00000000
   7         0.00000000
   8         0.29647731
   9         0.58023776
  10         0.00000000
Sym=     8a  
Ene=     0.1449
Spin= Alpha
Occup=    0.00000
   1        -0.00000000
   2        -0.00000000
   3        -0.49804132
   4        -0.59997322
   5         0.00000000
   6         0.00000000
   7         0.00000000
   8         0.49804132
   9         0.59997322
  10        -0.00000000
Sym=     8a  
Ene=     0.1449
Spin= Beta
Occup=    0.00000
   1        -0.00000000
   2        -0.00000000
   3        -0.49804132
   4        -0.59997322
   5         0.00000000
   6         0.00000000
   7         0.00000000
   8         0.49804132
   9         0.59997322
  10        -0.00000000
Sym=     9a  
Ene=     0.1449
Spin= Alpha
Occup=    0.00000
   1         0.00000000
   2         0.00000000
   3        -0.59997322
   4         0.49804132
   5         0.00000000
   6        -0.00000000
   7        -0.00000000
   8         0.59997322
   9        -0.49804132
  10         0.00000000
Sym=     9a  
Ene=     0.1449
Spin= Beta
Occup=    0.00000
   1         0.00000000
   2         0.00000000
   3        -0.59997322
   4         0.49804132
   5         0.00000000
   6        -0.00000000
   7        -0.00000000
   8         0.59997322
   9        -0.49804132
  10         0.00000000
Sym=    10a  
Ene=     0.2630
Spin= Alpha
Occup=    0.00000
   1         0.04787390
   2         0.53051582
   3         0.00000000
   4        -0.00000000
   5         0.96224369
   6        -0.04787390
   7        -0.53051582
   8         0.00000000
   9         0.00000000
  10         0.96224369
Sym=    10a  
Ene=     0.2630
Spin= Beta
Occup=    0.00000
   1         0.04787390
   2         0.53051582
   3         0.00000000
   4        -0.00000000
   5         0.96224369
   6        -0.04787390
   7        -0.53051582
   8         0.00000000
   9         0.00000000
  10         0.96224369
