[Molden Format]
[N_Atoms]
                     2
[Atoms] (AU)
BE1         1      4           0.00000000      0.00000000      0.00000000
BE2         2      4           0.00000000      0.00000000      5.29123315
[Charge] (Mulliken)
  3.128355041681630E-008
 -3.128356151904654E-008
[GTO] (AU)
   1
   s  14
  2.262859900E+04  8.443999941E-05
  3.372318100E+03  4.601499968E-04
  7.603504000E+02  2.285389984E-03
  2.117404800E+02  9.648129932E-03
  6.722346800E+01  3.494469975E-02
  2.337217700E+01  1.061099893E-01
  8.721373000E+00  2.458240383E-01
  3.468091000E+00  3.862428773E-01
  1.452144000E+00  3.105526078E-01
  6.086150000E-01  6.415933955E-02
  2.576860000E-01 -2.265049984E-03
  1.041760000E-01 -5.217499963E-04
  4.242700000E-02 -8.757499938E-04
  1.484900000E-02  1.242199991E-04
   s  14
  2.262859900E+04 -1.586999994E-05
  3.372318100E+03 -8.656999968E-05
  7.603504000E+02 -4.302199984E-04
  2.117404800E+02 -1.825079993E-03
  6.722346800E+01 -6.682749976E-03
  2.337217700E+01 -2.095119992E-02
  8.721373000E+00 -5.200308981E-02
  3.468091000E+00 -9.849176964E-02
  1.452144000E+00 -1.355800695E-01
  6.086150000E-01 -6.429875976E-02
  2.576860000E-01  3.125414989E-01
  1.041760000E-01  6.270468577E-01
  4.242700000E-02  2.110231492E-01
  1.484900000E-02 -4.104669985E-03
   p   9
  3.371018400E+01  1.069960000E-03
  8.057649500E+00  6.828550001E-03
  2.836471400E+00  2.119065000E-02
  1.099965700E+00  5.843696001E-02
  4.433964000E-01  2.020920800E-01
  1.822264000E-01  4.582953101E-01
  7.572410000E-02  3.691239601E-01
  3.168540000E-02  6.611471001E-02
  1.108990000E-02  1.405160000E-03
 
   2
   s  14
  2.262859900E+04  8.443999941E-05
  3.372318100E+03  4.601499968E-04
  7.603504000E+02  2.285389984E-03
  2.117404800E+02  9.648129932E-03
  6.722346800E+01  3.494469975E-02
  2.337217700E+01  1.061099893E-01
  8.721373000E+00  2.458240383E-01
  3.468091000E+00  3.862428773E-01
  1.452144000E+00  3.105526078E-01
  6.086150000E-01  6.415933955E-02
  2.576860000E-01 -2.265049984E-03
  1.041760000E-01 -5.217499963E-04
  4.242700000E-02 -8.757499938E-04
  1.484900000E-02  1.242199991E-04
   s  14
  2.262859900E+04 -1.586999994E-05
  3.372318100E+03 -8.656999968E-05
  7.603504000E+02 -4.302199984E-04
  2.117404800E+02 -1.825079993E-03
  6.722346800E+01 -6.682749976E-03
  2.337217700E+01 -2.095119992E-02
  8.721373000E+00 -5.200308981E-02
  3.468091000E+00 -9.849176964E-02
  1.452144000E+00 -1.355800695E-01
  6.086150000E-01 -6.429875976E-02
  2.576860000E-01  3.125414989E-01
  1.041760000E-01  6.270468577E-01
  4.242700000E-02  2.110231492E-01
  1.484900000E-02 -4.104669985E-03
   p   9
  3.371018400E+01  1.069960000E-03
  8.057649500E+00  6.828550001E-03
  2.836471400E+00  2.119065000E-02
  1.099965700E+00  5.843696001E-02
  4.433964000E-01  2.020920800E-01
  1.822264000E-01  4.582953101E-01
  7.572410000E-02  3.691239601E-01
  3.168540000E-02  6.611471001E-02
  1.108990000E-02  1.405160000E-03
 
[MO]
Sym=     1a  
Ene=    -4.7083
Spin= Alpha
Occup=    2.00000
   1         0.70714670
   2         0.00160133
   3        -0.00000000
   4         0.00000000
   5         0.00019218
   6         0.70704543
   7         0.00160189
   8         0.00000000
   9        -0.00000000
  10        -0.00019205
Sym=     2a  
Ene=    -4.7080
Spin= Alpha
Occup=    2.00000
   1        -0.70696848
   2         0.00444587
   3         0.00000000
   4        -0.00000000
   5        -0.00097966
   6         0.70706976
   7        -0.00444568
   8         0.00000000
   9        -0.00000000
  10        -0.00097968
Sym=     3a  
Ene=    -0.3605
Spin= Alpha
Occup=    2.00000
   1        -0.01631474
   2         0.60401304
   3        -0.00000000
   4        -0.00000000
   5         0.07627820
   6        -0.01631480
   7         0.60400779
   8         0.00000000
   9         0.00000000
  10        -0.07627881
Sym=     4a  
Ene=    -0.2480
Spin= Alpha
Occup=    1.96572
   1        -0.01487473
   2        -0.77418015
   3        -0.00000000
   4         0.00000000
   5         0.10105730
   6         0.01487470
   7         0.77418425
   8        -0.00000000
   9         0.00000000
  10         0.10105688
Sym=     5a  
Ene=     0.0000
Spin= Alpha
Occup=    0.03428
   1         0.00000000
   2        -0.00000000
   3         0.62550445
   4         0.18252509
   5        -0.00000000
   6         0.00000000
   7         0.00000000
   8         0.62550951
   9         0.18252656
  10        -0.00000000
Sym=     6a  
Ene=     0.0556
Spin= Alpha
Occup=    0.00000
   1         0.02059567
   2         0.24363392
   3         0.00000000
   4        -0.00000000
   5        -0.63583199
   6         0.02059568
   7         0.24363387
   8         0.00000000
   9        -0.00000000
  10         0.63583184
Sym=     7a  
Ene=     0.0704
Spin= Alpha
Occup=    0.00000
   1        -0.00000000
   2         0.00000000
   3        -0.18252587
   4         0.62550712
   5        -0.00000000
   6         0.00000000
   7        -0.00000000
   8        -0.18252578
   9         0.62550683
  10         0.00000000
Sym=     8a  
Ene=     0.1444
Spin= Alpha
Occup=    0.00000
   1         0.00000000
   2        -0.00000000
   3        -0.74853617
   4        -0.21842631
   5        -0.00000000
   6         0.00000000
   7        -0.00000000
   8         0.74853195
   9         0.21842508
  10         0.00000000
Sym=     9a  
Ene=     0.1452
Spin= Alpha
Occup=    0.00000
   1         0.00000000
   2        -0.00000000
   3         0.21842566
   4        -0.74853394
   5         0.00000000
   6         0.00000000
   7        -0.00000000
   8        -0.21842573
   9         0.74853418
  10        -0.00000000
Sym=    10a  
Ene=     0.2635
Spin= Alpha
Occup=    0.00000
   1        -0.04787042
   2        -0.52806742
   3        -0.00000000
   4         0.00000000
   5        -0.96256844
   6         0.04787041
   7         0.52806743
   8        -0.00000000
   9        -0.00000000
  10        -0.96256853
