[Molden Format]
[N_Atoms]
                     2
[Atoms] (AU)
F1          1      9           0.00000000      0.00000000      0.00000000
F2          2      9           0.00000000      0.00000000      3.02356180
[Charge] (Mulliken)
 -8.171241461241152E-014
  7.815970093361102E-014
[GTO] (AU)
   1
   s  14
  1.031094600E+05  1.713099991E-04
  1.528100700E+04  7.123999962E-04
  3.441539200E+03  2.990479984E-03
  9.670948300E+02  1.164036994E-02
  3.140353400E+02  3.968642979E-02
  1.134423000E+02  1.128546094E-01
  4.464472700E+01  2.473650687E-01
  1.894287400E+01  3.672702681E-01
  8.532743000E+00  2.896286985E-01
  3.919401000E+00  7.786681959E-02
  1.568157000E+00  4.562139976E-03
  6.232900000E-01  2.468879987E-03
  2.408610000E-01  1.106309994E-03
  8.430100000E-02  1.739699991E-04
   s  14
  1.031094600E+05 -4.044999995E-05
  1.528100700E+04 -1.682299998E-04
  3.441539200E+03 -7.084299991E-04
  9.670948300E+02 -2.767999996E-03
  3.140353400E+02 -9.611379987E-03
  1.134423000E+02 -2.833957996E-02
  4.464472700E+01 -6.839343991E-02
  1.894287400E+01 -1.237379298E-01
  8.532743000E+00 -1.512859698E-01
  3.919401000E+00 -9.099909988E-03
  1.568157000E+00  3.716257695E-01
  6.232900000E-01  5.500214393E-01
  2.408610000E-01  2.092318697E-01
  8.430100000E-02  8.074639989E-03
   p   9
  2.453302900E+02  1.024860004E-03
  5.691900500E+01  8.344290032E-03
  1.760456800E+01  4.078927016E-02
  6.274995000E+00  1.351370605E-01
  2.447030000E+00  2.798830811E-01
  9.950600000E-01  3.597966414E-01
  4.039730000E-01  3.055347412E-01
  1.548100000E-01  1.354703905E-01
  5.418400000E-02  2.804449011E-02
 
   2
   s  14
  1.031094600E+05  1.713099991E-04
  1.528100700E+04  7.123999962E-04
  3.441539200E+03  2.990479984E-03
  9.670948300E+02  1.164036994E-02
  3.140353400E+02  3.968642979E-02
  1.134423000E+02  1.128546094E-01
  4.464472700E+01  2.473650687E-01
  1.894287400E+01  3.672702681E-01
  8.532743000E+00  2.896286985E-01
  3.919401000E+00  7.786681959E-02
  1.568157000E+00  4.562139976E-03
  6.232900000E-01  2.468879987E-03
  2.408610000E-01  1.106309994E-03
  8.430100000E-02  1.739699991E-04
   s  14
  1.031094600E+05 -4.044999995E-05
  1.528100700E+04 -1.682299998E-04
  3.441539200E+03 -7.084299991E-04
  9.670948300E+02 -2.767999996E-03
  3.140353400E+02 -9.611379987E-03
  1.134423000E+02 -2.833957996E-02
  4.464472700E+01 -6.839343991E-02
  1.894287400E+01 -1.237379298E-01
  8.532743000E+00 -1.512859698E-01
  3.919401000E+00 -9.099909988E-03
  1.568157000E+00  3.716257695E-01
  6.232900000E-01  5.500214393E-01
  2.408610000E-01  2.092318697E-01
  8.430100000E-02  8.074639989E-03
   p   9
  2.453302900E+02  1.024860004E-03
  5.691900500E+01  8.344290032E-03
  1.760456800E+01  4.078927016E-02
  6.274995000E+00  1.351370605E-01
  2.447030000E+00  2.798830811E-01
  9.950600000E-01  3.597966414E-01
  4.039730000E-01  3.055347412E-01
  1.548100000E-01  1.354703905E-01
  5.418400000E-02  2.804449011E-02
 
[MO]
Sym=     1a  
Ene=   -26.5050
Spin= Alpha
Occup=    2.00000
   1         0.70708949
   2        -0.00251932
   3        -0.00000000
   4        -0.00000000
   5         0.00031726
   6         0.70708935
   7        -0.00251932
   8         0.00000000
   9         0.00000000
  10        -0.00031726
Sym=     2a  
Ene=   -26.5050
Spin= Alpha
Occup=    2.00000
   1        -0.70711796
   2         0.00229303
   3        -0.00000000
   4        -0.00000000
   5        -0.00039473
   6         0.70711811
   7        -0.00229303
   8         0.00000000
   9         0.00000000
  10        -0.00039473
Sym=     3a  
Ene=    -1.7320
Spin= Alpha
Occup=    2.00000
   1        -0.00164977
   2         0.66408809
   3        -0.00000000
   4         0.00000000
   5         0.05969694
   6        -0.00164977
   7         0.66408809
   8        -0.00000000
   9         0.00000000
  10        -0.05969694
Sym=     4a  
Ene=    -1.5731
Spin= Alpha
Occup=    2.00000
   1        -0.00504899
   2        -0.73226471
   3        -0.00000000
   4         0.00000000
   5         0.04577922
   6         0.00504899
   7         0.73226471
   8         0.00000000
   9         0.00000000
  10         0.04577922
Sym=     5a  
Ene=    -0.8051
Spin= Alpha
Occup=    2.00000
   1        -0.00000000
   2        -0.00000000
   3        -0.04114723
   4         0.67645245
   5         0.00000000
   6        -0.00000000
   7        -0.00000000
   8        -0.04114723
   9         0.67645245
  10        -0.00000000
Sym=     6a  
Ene=    -0.8032
Spin= Alpha
Occup=    2.00000
   1         0.00000000
   2         0.00000000
   3         0.67645245
   4         0.04114723
   5        -0.00000000
   6         0.00000000
   7         0.00000000
   8         0.67645245
   9         0.04114723
  10         0.00000000
Sym=     7a  
Ene=    -0.7236
Spin= Alpha
Occup=    2.00000
   1         0.00000000
   2         0.00000000
   3         0.04497236
   4        -0.73933688
   5        -0.00000000
   6         0.00000000
   7         0.00000000
   8        -0.04497236
   9         0.73933688
  10         0.00000000
Sym=     8a  
Ene=    -0.7138
Spin= Alpha
Occup=    2.00000
   1         0.01064225
   2         0.16687048
   3        -0.00000000
   4         0.00000000
   5        -0.65839875
   6         0.01064225
   7         0.16687048
   8        -0.00000000
   9        -0.00000000
  10         0.65839875
Sym=     9a  
Ene=    -0.7183
Spin= Alpha
Occup=    1.97927
   1        -0.00000000
   2         0.00000000
   3        -0.73933688
   4        -0.04497236
   5        -0.00000000
   6         0.00000000
   7        -0.00000000
   8         0.73933688
   9         0.04497236
  10        -0.00000000
Sym=    10a  
Ene=     0.0003
Spin= Alpha
Occup=    0.02073
   1         0.01382116
   2         0.19633633
   3        -0.00000000
   4        -0.00000000
   5         0.79264039
   6        -0.01382116
   7        -0.19633633
   8         0.00000000
   9         0.00000000
  10         0.79264039
