[Molden Format]
[N_Atoms]
                     2
[Atoms] (AU)
F1          1      9           0.00000000      0.00000000      0.00000000
F2          2      9           0.00000000      0.00000000      3.02356180
[Charge] (Mulliken)
  1.776356839400250E-015
 -7.105427357601002E-015
[GTO] (AU)
   1
   s  14
  1.031094600E+05  1.713099991E-04
  1.528100700E+04  7.123999962E-04
  3.441539200E+03  2.990479984E-03
  9.670948300E+02  1.164036994E-02
  3.140353400E+02  3.968642979E-02
  1.134423000E+02  1.128546094E-01
  4.464472700E+01  2.473650687E-01
  1.894287400E+01  3.672702681E-01
  8.532743000E+00  2.896286985E-01
  3.919401000E+00  7.786681959E-02
  1.568157000E+00  4.562139976E-03
  6.232900000E-01  2.468879987E-03
  2.408610000E-01  1.106309994E-03
  8.430100000E-02  1.739699991E-04
   s  14
  1.031094600E+05 -4.044999995E-05
  1.528100700E+04 -1.682299998E-04
  3.441539200E+03 -7.084299991E-04
  9.670948300E+02 -2.767999996E-03
  3.140353400E+02 -9.611379987E-03
  1.134423000E+02 -2.833957996E-02
  4.464472700E+01 -6.839343991E-02
  1.894287400E+01 -1.237379298E-01
  8.532743000E+00 -1.512859698E-01
  3.919401000E+00 -9.099909988E-03
  1.568157000E+00  3.716257695E-01
  6.232900000E-01  5.500214393E-01
  2.408610000E-01  2.092318697E-01
  8.430100000E-02  8.074639989E-03
   p   9
  2.453302900E+02  1.024860004E-03
  5.691900500E+01  8.344290032E-03
  1.760456800E+01  4.078927016E-02
  6.274995000E+00  1.351370605E-01
  2.447030000E+00  2.798830811E-01
  9.950600000E-01  3.597966414E-01
  4.039730000E-01  3.055347412E-01
  1.548100000E-01  1.354703905E-01
  5.418400000E-02  2.804449011E-02
 
   2
   s  14
  1.031094600E+05  1.713099991E-04
  1.528100700E+04  7.123999962E-04
  3.441539200E+03  2.990479984E-03
  9.670948300E+02  1.164036994E-02
  3.140353400E+02  3.968642979E-02
  1.134423000E+02  1.128546094E-01
  4.464472700E+01  2.473650687E-01
  1.894287400E+01  3.672702681E-01
  8.532743000E+00  2.896286985E-01
  3.919401000E+00  7.786681959E-02
  1.568157000E+00  4.562139976E-03
  6.232900000E-01  2.468879987E-03
  2.408610000E-01  1.106309994E-03
  8.430100000E-02  1.739699991E-04
   s  14
  1.031094600E+05 -4.044999995E-05
  1.528100700E+04 -1.682299998E-04
  3.441539200E+03 -7.084299991E-04
  9.670948300E+02 -2.767999996E-03
  3.140353400E+02 -9.611379987E-03
  1.134423000E+02 -2.833957996E-02
  4.464472700E+01 -6.839343991E-02
  1.894287400E+01 -1.237379298E-01
  8.532743000E+00 -1.512859698E-01
  3.919401000E+00 -9.099909988E-03
  1.568157000E+00  3.716257695E-01
  6.232900000E-01  5.500214393E-01
  2.408610000E-01  2.092318697E-01
  8.430100000E-02  8.074639989E-03
   p   9
  2.453302900E+02  1.024860004E-03
  5.691900500E+01  8.344290032E-03
  1.760456800E+01  4.078927016E-02
  6.274995000E+00  1.351370605E-01
  2.447030000E+00  2.798830811E-01
  9.950600000E-01  3.597966414E-01
  4.039730000E-01  3.055347412E-01
  1.548100000E-01  1.354703905E-01
  5.418400000E-02  2.804449011E-02
 
[MO]
Sym=     1a  
Ene=   -26.5060
Spin= Alpha
Occup=    1.00000
   1         0.70708945
   2        -0.00252085
   3        -0.00000000
   4        -0.00000000
   5         0.00031975
   6         0.70708931
   7        -0.00252085
   8         0.00000000
   9         0.00000000
  10        -0.00031975
Sym=     1a  
Ene=   -26.5060
Spin= Beta
Occup=    1.00000
   1         0.70708945
   2        -0.00252085
   3        -0.00000000
   4        -0.00000000
   5         0.00031975
   6         0.70708931
   7        -0.00252085
   8         0.00000000
   9         0.00000000
  10        -0.00031975
Sym=     2a  
Ene=   -26.5060
Spin= Alpha
Occup=    1.00000
   1        -0.70711813
   2         0.00229198
   3        -0.00000000
   4        -0.00000000
   5        -0.00040528
   6         0.70711828
   7        -0.00229198
   8         0.00000000
   9         0.00000000
  10        -0.00040528
Sym=     2a  
Ene=   -26.5060
Spin= Beta
Occup=    1.00000
   1        -0.70711813
   2         0.00229198
   3        -0.00000000
   4        -0.00000000
   5        -0.00040528
   6         0.70711828
   7        -0.00229198
   8         0.00000000
   9         0.00000000
  10        -0.00040528
Sym=     3a  
Ene=    -1.7324
Spin= Alpha
Occup=    1.00000
   1        -0.00164915
   2         0.66408311
   3        -0.00000000
   4         0.00000000
   5         0.05971659
   6        -0.00164915
   7         0.66408311
   8         0.00000000
   9         0.00000000
  10        -0.05971659
Sym=     3a  
Ene=    -1.7324
Spin= Beta
Occup=    1.00000
   1        -0.00164915
   2         0.66408311
   3        -0.00000000
   4         0.00000000
   5         0.05971659
   6        -0.00164915
   7         0.66408311
   8         0.00000000
   9         0.00000000
  10        -0.05971659
Sym=     4a  
Ene=    -1.5735
Spin= Alpha
Occup=    1.00000
   1        -0.00506482
   2        -0.73246830
   3         0.00000000
   4         0.00000000
   5         0.04495564
   6         0.00506482
   7         0.73246830
   8         0.00000000
   9        -0.00000000
  10         0.04495564
Sym=     4a  
Ene=    -1.5735
Spin= Beta
Occup=    1.00000
   1        -0.00506482
   2        -0.73246830
   3         0.00000000
   4         0.00000000
   5         0.04495564
   6         0.00506482
   7         0.73246830
   8         0.00000000
   9        -0.00000000
  10         0.04495564
Sym=     5a  
Ene=    -0.8054
Spin= Alpha
Occup=    1.00000
   1        -0.00000000
   2        -0.00000000
   3         0.62123844
   4         0.27082061
   5         0.00000000
   6        -0.00000000
   7        -0.00000000
   8         0.62123844
   9         0.27082061
  10        -0.00000000
Sym=     5a  
Ene=    -0.8054
Spin= Beta
Occup=    1.00000
   1        -0.00000000
   2        -0.00000000
   3         0.62123844
   4         0.27082061
   5         0.00000000
   6        -0.00000000
   7        -0.00000000
   8         0.62123844
   9         0.27082061
  10        -0.00000000
Sym=     6a  
Ene=    -0.8054
Spin= Alpha
Occup=    1.00000
   1        -0.00000000
   2        -0.00000000
   3        -0.27082061
   4         0.62123844
   5         0.00000000
   6        -0.00000000
   7        -0.00000000
   8        -0.27082061
   9         0.62123844
  10        -0.00000000
Sym=     6a  
Ene=    -0.8054
Spin= Beta
Occup=    1.00000
   1        -0.00000000
   2        -0.00000000
   3        -0.27082061
   4         0.62123844
   5         0.00000000
   6        -0.00000000
   7        -0.00000000
   8        -0.27082061
   9         0.62123844
  10        -0.00000000
Sym=     7a  
Ene=    -0.7239
Spin= Alpha
Occup=    1.00000
   1         0.00000000
   2         0.00000000
   3         0.34719348
   4        -0.65429215
   5        -0.00000000
   6         0.00000000
   7         0.00000000
   8        -0.34719348
   9         0.65429215
  10         0.00000000
Sym=     7a  
Ene=    -0.7239
Spin= Beta
Occup=    1.00000
   1         0.00000000
   2         0.00000000
   3         0.34719348
   4        -0.65429215
   5        -0.00000000
   6         0.00000000
   7         0.00000000
   8        -0.34719348
   9         0.65429215
  10         0.00000000
Sym=     8a  
Ene=    -0.7239
Spin= Alpha
Occup=    1.00000
   1         0.00000000
   2         0.00000000
   3        -0.65429215
   4        -0.34719348
   5        -0.00000000
   6         0.00000000
   7         0.00000000
   8         0.65429215
   9         0.34719348
  10         0.00000000
Sym=     8a  
Ene=    -0.7239
Spin= Beta
Occup=    1.00000
   1         0.00000000
   2         0.00000000
   3        -0.65429215
   4        -0.34719348
   5        -0.00000000
   6         0.00000000
   7         0.00000000
   8         0.65429215
   9         0.34719348
  10         0.00000000
Sym=     9a  
Ene=    -0.7123
Spin= Alpha
Occup=    1.00000
   1         0.01064496
   2         0.16689030
   3         0.00000000
   4         0.00000000
   5        -0.65839696
   6         0.01064496
   7         0.16689030
   8        -0.00000000
   9        -0.00000000
  10         0.65839696
Sym=     9a  
Ene=    -0.7123
Spin= Beta
Occup=    1.00000
   1         0.01064496
   2         0.16689030
   3         0.00000000
   4         0.00000000
   5        -0.65839696
   6         0.01064496
   7         0.16689030
   8        -0.00000000
   9        -0.00000000
  10         0.65839696
Sym=    10a  
Ene=    -0.0637
Spin= Alpha
Occup=    0.00000
   1         0.01380658
   2         0.19557544
   3         0.00000000
   4        -0.00000000
   5         0.79268752
   6        -0.01380658
   7        -0.19557544
   8         0.00000000
   9         0.00000000
  10         0.79268752
Sym=    10a  
Ene=    -0.0637
Spin= Beta
Occup=    0.00000
   1         0.01380658
   2         0.19557544
   3         0.00000000
   4        -0.00000000
   5         0.79268752
   6        -0.01380658
   7        -0.19557544
   8         0.00000000
   9         0.00000000
  10         0.79268752
