   This run of MOLCAS is using the pymolcas driver

                             OPE
                             OPE          NMOL  CASOP  ENMOLC A   SO
                 OPE        NMOLC        AS  OP EN  MO LC     AS  OP
                OPENM       OL CA        SO  PE NM  OL CA     SOP EN
                OP EN      MO   LC       AS  OP ENMOL  CASO   PENMOL
                OP  EN     MO   LC       AS  OP EN     MO     LC ASO
               OP   E  NMOL  C  AS       OP  EN MO     LC     AS  OP
               OP  E   NMO   LC AS        OPEN  MO     LCASOP EN   M
               O  PEN   MO  LCA  SO
            OPE   NMO   L   CAS    OP
        OPENMOL  CASOP     ENMOL   CASOPE
     OPENMOLCA   SOPENMOLCASOPEN   MOLCASOPE
    OPENMOLCAS   OP           EN   MOL    CAS
    OPENMOLCAS       OP  ENM        O     LCA
    OPENMOLCAS    OPEN  MOLCASO     P  E  NMO
    OPENMOLCAS     OP               E  N  MOL
    OPENMOLCA   SO           PENM   O  L  CAS    OPEN    MO    LCAS
    OPENMOLCA   SOP           ENM   O  L  CAS   OP  EN  MOLC  AS   O
    OPENMOLCA   SOPE           NM      O  LCA   S      OP  EN MO
    OPENMOLC                AS         O  PEN   M      OL  CA  SOPE
    OPENMO        LCASOPE  NMOL        C  ASO   P      ENMOLC     AS
    OPE     NMO      LCA  SO     P     E   NM   OL  CA SO  PE N   MO
          OPENMOLCA            SOPE   NMO        LCAS  O    P  ENMO
     OPENMOLCASOPENMOLCASOPENMOLCASOPENMOLCA
        OPENMOLCASOPENMOLCASOPENMOLCASOPE
            OPENMOLCASOPENMOLCASOPENM
               OPENMOLCASOPENMOLCA        version: ea724fe96-dirty
                   OPENMOLCASO
                       OPE                tag:

 OpenMolcas is free software; you can redistribute it and/or modify it
 under the terms of the GNU Lesser General Public License version 2.1.
 OpenMolcas is distributed in the hope that it will be useful, but it
 is provided "as is" and without any express or implied warranties.
 For more details see the full text of the license in the file
 LICENSE or in <http://www.gnu.org/licenses/>.

                 Copyright (C) The OpenMolcas Authors
           For the author list and the recommended citation,
                   consult the file CONTRIBUTORS.md

           *************************************************
           * pymolcas version py2.28                       *
           *   build c4a6d18ded8cb6cad61d2372a9abd97c      *
           *   (after the EMIL interpreter by V. Veryazov) *
           *************************************************

configuration info
------------------
C Compiler ID: Intel
C flags: -std=gnu99
Fortran Compiler ID: Intel
Fortran flags: -fpp -i8 -r8 -heap-arrays
Definitions: _MOLCAS_;_I8_;_LINUX_
Parallel: OFF (GA=OFF)


   --------------------------------------------------------------------------------
  |
  |              Project: H8_2.56
  |       Submitted from: /home/grierjones/DDCASPT2/hydrogen_comps/H8_chain/H8_2.56
  |         Scratch area: /tmp/H8_2.56
  |      Save outputs to: /home/grierjones/DDCASPT2/hydrogen_comps/H8_chain/H8_2.56
  |               Molcas: /home/grierjones/Test/build
  |
  | Scratch area is empty
  |
  |       MOLCAS_DRIVER = /usr/local/pymolcas
  | MOLCAS_KEEP_WORKDIR = NO
  |  MOLCAS_NEW_WORKDIR = YES
  |       MOLCAS_NPROCS = 1
  |        MOLCAS_PRINT = NORMAL
  |       MOLCAS_SOURCE = /home/grierjones/Test/build
  |    MOLCAS_STRUCTURE = 0
  |
   --------------------------------------------------------------------------------

++ ---------   Input file   ---------

&GATEWAY
coord=H8_2.56.xyz
Basis = ANO-RCC-VDZP
Group = nosymm
Expert
End of Input

&SEWARD
End of Input

&SCF

>>> COPY $WorkDir/H8_2.56.scf.h5 $CurrDir/

&RASSCF
Title= RASSCF
FileOrb
/home/grierjones/DDCASPT2/hydrogen_comps/H8_chain/H8_2.54/H8_2.54.RasOrb
NACTEL
8 0 0
Inactive
0
RAS2
8
Symmetry
1
Spin
1
orblisting
all
ITERation
300 200

>>> COPY $WorkDir/H8_2.56.rasscf.h5 $CurrDir/

>>> COPY $WorkDir/GMJ_Fock_MO.csv $CurrDir/H8_2.56.GMJ_Fock_MO.csv

>>> COPY $WorkDir/GMJ_PT2_Fock_MO.csv $CurrDir/H8_2.56.GMJ_PT2_Fock_MO.csv

&MOTRA
Frozen=0
LUMORB

>>> COPY $WorkDir/GMJ_one_int_indx.csv $CurrDir/H8_2.56.GMJ_one_int_indx.csv

>>> COPY $WorkDir/GMJ_one_int.csv $CurrDir/H8_2.56.GMJ_one_int.csv

>>> COPY $WorkDir/GMJ_two_int_indx.csv $CurrDir/H8_2.56.GMJ_two_int_indx.csv

>>> COPY $WorkDir/GMJ_two_int.csv $CurrDir/H8_2.56.GMJ_two_int.csv

&CASPT2
Frozen
0
MAXITER
50

>>> FOREACH i IN (B,E,F,G,H)

  >>> FOREACH j IN (P,M)

    >>> IF (-FILE GMJ_e2_${i}_${j}.csv)

      >>> COPY $WorkDir/GMJ_RHS_${i}_${j}.csv $CurrDir/GMJ_RHS_${i}_${j}.csv

      >>> COPY $WorkDir/GMJ_IVECW_${i}_${j}.csv $CurrDir/GMJ_IVECW_${i}_${j}.csv

      >>> COPY $WorkDir/GMJ_IVECX_${i}_${j}.csv $CurrDir/GMJ_IVECX_${i}_${j}.csv

      >>> COPY $WorkDir/GMJ_IVECC2_${i}_${j}.csv $CurrDir/GMJ_IVECC2_${i}_${j}.csv

      >>> COPY $WorkDir/GMJ_e2_${i}_${j}.csv $CurrDir/GMJ_e2_${i}_${j}.csv

    >>> END IF

  >>> END FOREACH

>>> END FOREACH

>>> FOREACH i IN (A,C,D)

  >>> IF (-FILE GMJ_e2_$i.csv)

    >>> COPY $WorkDir/GMJ_RHS_$i.csv $CurrDir/GMJ_RHS_$i.csv

    >>> COPY $WorkDir/GMJ_IVECW_$i.csv $CurrDir/GMJ_IVECW_$i.csv

    >>> COPY $WorkDir/GMJ_IVECX_$i.csv $CurrDir/GMJ_IVECX_$i.csv

    >>> COPY $WorkDir/GMJ_IVECC2_$i.csv $CurrDir/GMJ_IVECC2_$i.csv

    >>> COPY $WorkDir/GMJ_e2_$i.csv $CurrDir/GMJ_e2_$i.csv

  >>> END IF

>>> END FOREACH

-- ----------------------------------

--- Start Module: gateway at Mon Nov 18 14:49:04 2024 ---
 
()()()()()()()()()()()()()()()()()()()()()()()()()()()()()()()()()()()()()()()()()()()()()()()()()()

                                              &GATEWAY

                                   only a single process is used
                       available to each process: 2.0 GB of memory, 1 thread?
()()()()()()()()()()()()()()()()()()()()()()()()()()()()()()()()()()()()()()()()()()()()()()()()()()
 
 ###############################################################################
 ###############################################################################
 ###                                                                         ###
 ###                                                                         ###
 ###                                                                         ###
 ###    WARNING: EXPERT option is ON!                                        ###
 ###                                                                         ###
 ###                                                                         ###
 ###############################################################################
 ###############################################################################
 
++    Symmetry information:
      ---------------------
 
                    Character Table for C1 
 
                             E  
                    a        1  x, y, xy, Rz, z, xz, Ry, yz, Rx, I
--
 
 
++    Basis set information:
      ----------------------
 
 
      Basis set label: H.ANO-RCC...2S1P.
 
      Electronic valence basis set:
      ------------------
      Associated Effective Charge   1.000000 au
      Associated Actual Charge      1.000000 au
      Nuclear Model: Point charge
 
      Shell  nPrim  nBasis  Cartesian Spherical Contaminant
         s       8       2        X                  
         p       4       1        X                  
--
 
 
++    Molecular structure info:
      -------------------------
 
                    ************************************************ 
                    **** Cartesian Coordinates / Bohr, Angstrom **** 
                    ************************************************ 
 
     Center  Label                x              y              z                     x              y              z
        1      H1               0.000000       0.000000       0.000000              0.000000       0.000000       0.000000
        2      H2               0.000000       0.000000       4.844570              0.000000       0.000000       2.563636
        3      H3               0.000000       0.000000       9.689142              0.000000       0.000000       5.127273
        4      H4               0.000000       0.000000      14.533712              0.000000       0.000000       7.690909
        5      H5               0.000000       0.000000      19.378282              0.000000       0.000000      10.254545
        6      H6               0.000000       0.000000      24.222853              0.000000       0.000000      12.818182
        7      H7               0.000000       0.000000      29.067423              0.000000       0.000000      15.381818
        8      H8               0.000000       0.000000      33.911995              0.000000       0.000000      17.945455
 
                    *************************************** 
                    *    InterNuclear Distances / Bohr    * 
                    *************************************** 
 
               1 H1            2 H2            3 H3            4 H4            5 H5            6 H6    
    1 H1       0.000000
    2 H2       4.844570        0.000000
    3 H3       9.689142        4.844572        0.000000
    4 H4      14.533712        9.689142        4.844570        0.000000
    5 H5      19.378282       14.533712        9.689140        4.844570        0.000000
    6 H6      24.222853       19.378283       14.533712        9.689142        4.844572        0.000000
    7 H7      29.067423       24.222853       19.378282       14.533712        9.689142        4.844570
    8 H8      33.911995       29.067425       24.222853       19.378283       14.533714        9.689142
 
               7 H7            8 H8    
    7 H7       0.000000
    8 H8       4.844572        0.000000
 
                    ******************************************* 
                    *    InterNuclear Distances / Angstrom    * 
                    ******************************************* 
 
               1 H1            2 H2            3 H3            4 H4            5 H5            6 H6    
    1 H1       0.000000
    2 H2       2.563636        0.000000
    3 H3       5.127273        2.563637        0.000000
    4 H4       7.690909        5.127273        2.563636        0.000000
    5 H5      10.254545        7.690909        5.127272        2.563636        0.000000
    6 H6      12.818182       10.254546        7.690909        5.127273        2.563637        0.000000
    7 H7      15.381818       12.818182       10.254545        7.690909        5.127273        2.563636
    8 H8      17.945455       15.381819       12.818182       10.254546        7.690910        5.127273
 
               7 H7            8 H8    
    7 H7       0.000000
    8 H8       2.563637        0.000000
--
 
 
            Nuclear Potential Energy              2.83675437 au
 
 ###############################################################################
 ###############################################################################
 ###                                                                         ###
 ###                                                                         ###
 ###    There were warnings during the execution                             ###
 ###    Please, check the output with care!                                  ###
 ###                                                                         ###
 ###                                                                         ###
 ###############################################################################
 ###############################################################################
--- Stop Module: gateway at Mon Nov 18 14:49:04 2024 /rc=_RC_ALL_IS_WELL_ ---
*** files: xmldump
    saved to directory /home/grierjones/DDCASPT2/hydrogen_comps/H8_chain/H8_2.56

--- Start Module: seward at Mon Nov 18 14:49:04 2024 ---
 
()()()()()()()()()()()()()()()()()()()()()()()()()()()()()()()()()()()()()()()()()()()()()()()()()()

                                              &SEWARD

                                   only a single process is used
                       available to each process: 2.0 GB of memory, 1 thread?
()()()()()()()()()()()()()()()()()()()()()()()()()()()()()()()()()()()()()()()()()()()()()()()()()()
 
 ###############################################################################
 ###############################################################################
 ###                                                                         ###
 ###                                                                         ###
 ###                                                                         ###
 ###    WARNING: EXPERT option is ON!                                        ###
 ###                                                                         ###
 ###                                                                         ###
 ###############################################################################
 ###############################################################################
               SEWARD will generate:
                  Multipole Moment integrals up to order  2
                  Kinetic Energy integrals
                  Nuclear Attraction integrals (point charge)
                  One-Electron Hamiltonian integrals
                  Velocity integrals
                  Relativistic Douglas-Kroll-Hess integrals:
                    - Parametrization         : EXP
                    - DKH order of Hamiltonian: 2
                    - DKH order of Properties : 0
                         - multipole moment operators
                         - electric potential operators
                         - contact operators
                  Atomic mean-field integrals
                  Two-Electron Repulsion integrals
 
                   Integrals are discarded if absolute value <: 0.10E-13
                   Integral cutoff threshold is set to       <: 0.10E-15
 
            Nuclear Potential Energy              2.83675437 au
 
 
      Basis set specifications :
      Symmetry species         a  
      Basis functions           40
 
 
  Input file to MOLDEN was generated!
 
 ###############################################################################
 ###############################################################################
 ###                                                                         ###
 ###                                                                         ###
 ###    There were warnings during the execution                             ###
 ###    Please, check the output with care!                                  ###
 ###                                                                         ###
 ###                                                                         ###
 ###############################################################################
 ###############################################################################
--- Stop Module: seward at Mon Nov 18 14:49:05 2024 /rc=_RC_ALL_IS_WELL_ ---
*** files: H8_2.56.GssOrb H8_2.56.guessorb.h5 H8_2.56.guessorb.molden xmldump
    saved to directory /home/grierjones/DDCASPT2/hydrogen_comps/H8_chain/H8_2.56

*** symbolic link created: INPORB -> H8_2.56.GssOrb
--- Start Module: scf at Mon Nov 18 14:49:05 2024 ---
 
()()()()()()()()()()()()()()()()()()()()()()()()()()()()()()()()()()()()()()()()()()()()()()()()()()

                                                &SCF

                                   only a single process is used
                       available to each process: 2.0 GB of memory, 1 thread?
()()()()()()()()()()()()()()()()()()()()()()()()()()()()()()()()()()()()()()()()()()()()()()()()()()
 
++    Input section:
      --------------
 
      Header of the integral files:
      
       Integrals generated by seward 4.2.0  , Mon Nov 18 14:49:04 2024
 
 
      Cartesian coordinates in Angstrom:
      -----------------------------------------------------
      No.  Label        X            Y            Z        
      -----------------------------------------------------
       1   H1         0.00000000   0.00000000   0.00000000
       2   H2         0.00000000   0.00000000   2.56363600
       3   H3         0.00000000   0.00000000   5.12727300
       4   H4         0.00000000   0.00000000   7.69090900
       5   H5         0.00000000   0.00000000  10.25454500
       6   H6         0.00000000   0.00000000  12.81818200
       7   H7         0.00000000   0.00000000  15.38181800
       8   H8         0.00000000   0.00000000  17.94545500
      -----------------------------------------------------
      Nuclear repulsion energy =    2.83675437
--
 
++    Orbital specifications:
      -----------------------
 
      Symmetry species               1
                                     a
      Frozen orbitals                0
      Occupied orbitals              4
      Secondary orbitals            36
      Deleted orbitals               0
      Total number of orbitals      40
      Number of basis functions     40
--
 
      Molecular charge                           0.000
 
++    Optimization specifications:
      ----------------------------
 
      SCF Algorithm: Conventional
      Minimized density differences are used
      Number of density matrices in core                5
      Maximum number of NDDO SCF iterations           400
      Maximum number of HF SCF iterations             400
      Threshold for SCF energy change            0.10E-08
      Threshold for density matrix               0.10E-03
      Threshold for Fock matrix                  0.15E-03
      Threshold for linear dependence            0.10E-08
      Threshold at which DIIS is turned on       0.15E+00
      Threshold at which QNR/C2DIIS is turned on 0.75E-01
      Threshold for Norm(delta) (QNR/C2DIIS)     0.20E-04
      DIIS extrapolation of the SCF procedure
      All orbitals punched on: SCFORB
--
 
      Input vectors read from INPORB
      Orbital file label: *Guess orbitals
 
 
++ Convergence information
                                   SCF        iterations: Energy and convergence statistics
 
Iter     Tot. SCF        One-elec.       Two-elec.     Energy      Max Dij or  Max Fij      DNorm      TNorm      AccCon     Time
         Energy          Energy          Energy        Change      Delta Norm                                                in Sec.
   1    -3.201978452    -9.791579705     3.752846883   0.00E+00    0.39E+00*   0.13E+00*    0.44E+01   0.75E+01   None         0.
   2    -3.435916115    -9.759968716     3.487298231  -0.23E+00*   0.14E+00*   0.25E-01*    0.13E+01   0.72E+01   EDIIS        0.
   3    -3.447823533    -9.698719057     3.414141155  -0.12E-01*   0.91E-01*   0.94E-02*    0.31E+00   0.72E+01   EDIIS        0.
   4    -3.450318906    -9.703604247     3.416530970  -0.25E-02*   0.57E-01*   0.65E-02*    0.17E+00   0.72E+01   c2DIIS       0.
   5    -3.451336224    -9.691542373     3.403451778  -0.10E-02*   0.23E-01*   0.36E-02*    0.39E-01   0.72E+01   QNRc2DIIS    0.
   6    -3.451624671    -9.697974809     3.409595768  -0.29E-03*   0.22E-01*   0.22E-02*    0.17E-01   0.72E+01   QNRc2DIIS    0.
   7    -3.451782803    -9.695796777     3.407259603  -0.16E-03*   0.78E-02*   0.72E-03*    0.74E-02   0.72E+01   QNRc2DIIS    0.
   8    -3.451793092    -9.693906617     3.405359155  -0.10E-04*   0.16E-02*   0.33E-03*    0.32E-02   0.72E+01   QNRc2DIIS    0.
   9    -3.451795092    -9.694252616     3.405703154  -0.20E-05*   0.16E-03*   0.17E-04     0.89E-03   0.72E+01   QNRc2DIIS    0.
  10    -3.451795101    -9.694253534     3.405704063  -0.93E-08*   0.40E-04*   0.46E-05     0.24E-03   0.72E+01   QNRc2DIIS    0.
  11    -3.451795102    -9.694253018     3.405703546  -0.64E-09    0.15E-04    0.99E-06     0.26E-04   0.72E+01   QNRc2DIIS    0.
 
       Convergence after 11 Macro Iterations
--
 
 *****************************************************************************************************************************
 *                                                                                                                           *
 *                                             SCF/KS-DFT Program, Final results                                             *
 *                                                                                                                           *
 *                                                                                                                           *
 *                                                                                                                           *
 *                                                       Final Results                                                       *
 *                                                                                                                           *
 *****************************************************************************************************************************
 
::    Total SCF energy                                 -3.4517951016
      One-electron energy                              -9.6942530178
      Two-electron energy                               3.4057035460
      Nuclear repulsion energy                          2.8367543701
      Kinetic energy (interpolated)                     2.6301347476
      Virial theorem                                    1.3124023797
      Total spin, S(S+1)                                0.0000000000
      Total spin, S                                     0.0000000000
      Max non-diagonal density matrix element           0.0000172082
      Max non-diagonal Fock matrix element              0.0000010853
 
 
      All orbitals with orbital energies smaller than  E(LUMO)+0.5 are printed
 
++    Molecular orbitals:
      -------------------
 
      Title: SCF orbitals

      Molecular orbitals for symmetry species 1: a  
 
          Orbital            1         2         3         4         5         6         7         8         9        10    
          Energy           -0.3872   -0.3731   -0.3519   -0.3292   -0.1510   -0.1195   -0.0868   -0.0624    0.3207    0.3336
          Occ. No.          2.0000    2.0000    2.0000    2.0000    0.0000    0.0000    0.0000    0.0000    0.0000    0.0000
 
        1 H1     1s         0.1705   -0.3183    0.3947   -0.3094    0.3594   -0.4958    0.4388   -0.2524   -0.1114    0.1681
        2 H1     2s         0.0316   -0.0609    0.0798   -0.0664    0.1112   -0.1624    0.1496   -0.0872    0.2167   -0.3791
        3 H1     2px       -0.0000   -0.0000    0.0000   -0.0000    0.0000   -0.0000    0.0000    0.0000    0.0000    0.0000
        4 H1     2py        0.0000   -0.0000    0.0000   -0.0000   -0.0000    0.0000   -0.0000    0.0000    0.0000   -0.0000
        5 H1     2pz        0.0061   -0.0102    0.0106   -0.0068   -0.0028    0.0084   -0.0128    0.0102   -0.0095    0.0138
        6 H2     1s         0.2283   -0.3804    0.3911   -0.2440   -0.1975    0.4422   -0.5545    0.3888   -0.1795    0.2231
        7 H2     2s         0.0365   -0.0753    0.0986   -0.0753   -0.0554    0.1474   -0.1961    0.1377    0.2177   -0.2965
        8 H2     2px       -0.0000    0.0000    0.0000    0.0000   -0.0000   -0.0000   -0.0000   -0.0000    0.0000   -0.0000
        9 H2     2py        0.0000   -0.0000    0.0000   -0.0000   -0.0000    0.0000    0.0000   -0.0000   -0.0000   -0.0000
       10 H2     2pz       -0.0010    0.0047   -0.0102    0.0107   -0.0148    0.0146   -0.0037   -0.0039    0.0024   -0.0036
       11 H3     1s         0.3539   -0.2887   -0.1534    0.4064   -0.4537    0.1444    0.4400   -0.5331   -0.1966    0.1575
       12 H3     2s         0.0655   -0.0482   -0.0493    0.1062   -0.1437    0.0430    0.1566   -0.1857    0.2679   -0.2403
       13 H3     2px        0.0000   -0.0000    0.0000    0.0000   -0.0000   -0.0000   -0.0000    0.0000    0.0000   -0.0000
       14 H3     2py       -0.0000   -0.0000   -0.0000    0.0000   -0.0000    0.0000    0.0000   -0.0000   -0.0000    0.0000
       15 H3     2pz        0.0062   -0.0009   -0.0093    0.0099    0.0117   -0.0167    0.0044    0.0087   -0.0034    0.0005
       16 H4     1s         0.3769   -0.1989   -0.2751    0.3765    0.3875   -0.3993   -0.2241    0.5847   -0.2156    0.0550
       17 H4     2s         0.0655   -0.0507   -0.0532    0.1034    0.1193   -0.1403   -0.0756    0.2047    0.2872   -0.0843
       18 H4     2px        0.0000   -0.0000   -0.0000   -0.0000   -0.0000    0.0000   -0.0000   -0.0000   -0.0000   -0.0000
       19 H4     2py       -0.0000   -0.0000   -0.0000   -0.0000   -0.0000   -0.0000    0.0000   -0.0000   -0.0000   -0.0000
       20 H4     2pz       -0.0043    0.0079    0.0004   -0.0118    0.0159    0.0028   -0.0159    0.0030    0.0029   -0.0021
       21 H5     1s         0.3769    0.1989   -0.2751   -0.3765    0.3875    0.3993   -0.2241   -0.5847   -0.2156   -0.0550
       22 H5     2s         0.0655    0.0507   -0.0532   -0.1034    0.1193    0.1403   -0.0756   -0.2047    0.2872    0.0843
       23 H5     2px       -0.0000    0.0000   -0.0000   -0.0000    0.0000    0.0000   -0.0000   -0.0000   -0.0000    0.0000
       24 H5     2py        0.0000   -0.0000    0.0000    0.0000    0.0000    0.0000    0.0000    0.0000    0.0000    0.0000
       25 H5     2pz        0.0043    0.0079   -0.0004   -0.0118   -0.0159    0.0028    0.0159    0.0030   -0.0029   -0.0021
       26 H6     1s         0.3539    0.2887   -0.1534   -0.4064   -0.4537   -0.1444    0.4400    0.5331   -0.1966   -0.1575
       27 H6     2s         0.0655    0.0482   -0.0493   -0.1062   -0.1437   -0.0430    0.1566    0.1857    0.2679    0.2403
       28 H6     2px        0.0000   -0.0000   -0.0000   -0.0000    0.0000   -0.0000    0.0000   -0.0000    0.0000    0.0000
       29 H6     2py        0.0000    0.0000   -0.0000   -0.0000   -0.0000    0.0000   -0.0000   -0.0000   -0.0000   -0.0000
       30 H6     2pz       -0.0062   -0.0009    0.0093    0.0099   -0.0117   -0.0167   -0.0044    0.0087    0.0034    0.0005
       31 H7     1s         0.2283    0.3804    0.3911    0.2440   -0.1975   -0.4422   -0.5545   -0.3888   -0.1795   -0.2231
       32 H7     2s         0.0365    0.0753    0.0986    0.0753   -0.0554   -0.1474   -0.1961   -0.1377    0.2177    0.2965
       33 H7     2px        0.0000   -0.0000   -0.0000   -0.0000    0.0000   -0.0000   -0.0000   -0.0000    0.0000    0.0000
       34 H7     2py        0.0000   -0.0000    0.0000    0.0000   -0.0000    0.0000    0.0000    0.0000    0.0000    0.0000
       35 H7     2pz        0.0010    0.0047    0.0102    0.0107    0.0148    0.0146    0.0037   -0.0039   -0.0024   -0.0036
       36 H8     1s         0.1705    0.3183    0.3947    0.3094    0.3594    0.4958    0.4388    0.2524   -0.1114   -0.1681
       37 H8     2s         0.0316    0.0609    0.0798    0.0665    0.1112    0.1624    0.1496    0.0872    0.2167    0.3791
       38 H8     2px       -0.0000   -0.0000   -0.0000    0.0000    0.0000    0.0000   -0.0000   -0.0000    0.0000   -0.0000
       39 H8     2py       -0.0000   -0.0000   -0.0000   -0.0000   -0.0000   -0.0000    0.0000    0.0000    0.0000   -0.0000
       40 H8     2pz       -0.0061   -0.0102   -0.0106   -0.0068    0.0028    0.0084    0.0128    0.0102    0.0095    0.0138
--
 
 
++    Molecular charges:
      ------------------
 
      Mulliken charges per centre and basis function type
      ---------------------------------------------------
 
                H1      H2      H3      H4      H5      H6      H7      H8    
      1s       0.8805  0.9306  0.9084  0.9133  0.9133  0.9084  0.9306  0.8805
      2s       0.0850  0.0934  0.0846  0.0864  0.0864  0.0846  0.0934  0.0850
      2px      0.0000  0.0000  0.0000  0.0000  0.0000  0.0000  0.0000  0.0000
      2pz      0.0040  0.0046  0.0045  0.0045  0.0045  0.0045  0.0046  0.0040
      2py      0.0000  0.0000  0.0000  0.0000  0.0000  0.0000  0.0000  0.0000
      Total    0.9695  1.0286  0.9976  1.0043  1.0043  0.9976  1.0286  0.9695
 
      N-E      0.0305 -0.0286  0.0024 -0.0043 -0.0043  0.0024 -0.0286  0.0305
 
      Total electronic charge=    8.000000
 
      Total            charge=   -0.000000
--
 
 
  Input file to MOLDEN was generated!
 
 
++    Static properties:
      ------------------
 
 
      LoProp Charges per center
 

                   H1       H2       H3       H4       H5       H6       H7       H8    
      Nuclear      1.0000   1.0000   1.0000   1.0000   1.0000   1.0000   1.0000   1.0000
      Electronic  -0.9809  -1.0162  -0.9987  -1.0042  -1.0042  -0.9987  -1.0162  -0.9809
 
      Total        0.0191  -0.0162   0.0013  -0.0042  -0.0042   0.0013  -0.0162   0.0191
--
 
 
++    Natural Bond Order analysis
      ---------------------------
      Based on LoProp computed density
      -------------------------------------------------------------------------------------
      Atom A       Atom B       Bond Order
      -------------------------------------------------------------------------------------
      NBO located      0.970 non-bonded electrons on atom H1        
      NBO located      1.005 non-bonded electrons on atom H3        
      NBO located      1.011 non-bonded electrons on atom H4        
      NBO located      1.011 non-bonded electrons on atom H5        
      NBO located      1.005 non-bonded electrons on atom H6        
      NBO located      0.970 non-bonded electrons on atom H8        
      The remaining    2.027 electrons are to be considered as diffuse
--
 
 
++    Molecular properties:
      ---------------------
 
      Charge (e):
                      =   -0.0000
      Dipole Moment (Debye):
      Origin of the operator (Ang)=    0.0000    0.0000    0.0000
                   X= -3.6963E-14               Y= -7.3797E-14               Z=  6.0770E-07           Total=  6.0770E-07
      Quadrupole Moment (Debye*Ang):
      Origin of the operator (Ang)=    0.0000    0.0000    8.9727
                  XX= -1.9089E+01              XY= -1.2460E-28              XZ=  2.7546E-13              YY= -1.9089E+01
                  YZ=  6.3017E-13              ZZ=  5.2422E-01
      In traceless form (Debye*Ang)
                  XX= -9.8066E+00              XY= -1.8690E-28              XZ=  4.1319E-13              YY= -9.8066E+00
                  YZ=  9.4526E-13              ZZ=  1.9613E+01
--
 
 
  Input file to MOLDEN was generated!
 
 ###############################################################################
 ###############################################################################
 ###                                                                         ###
 ###                                                                         ###
 ###    RunFile label nBas                                                   ###
 ###    was used       78 times                                              ###
 ###                                                                         ###
 ###                                                                         ###
 ###############################################################################
 ###############################################################################
--- Stop Module: scf at Mon Nov 18 14:49:05 2024 /rc=_RC_ALL_IS_WELL_ ---
*** files: H8_2.56.LprOrb H8_2.56.LoProp.molden H8_2.56.scf.molden H8_2.56.ScfOrb H8_2.56.scf.h5 xmldump
    saved to directory /home/grierjones/DDCASPT2/hydrogen_comps/H8_chain/H8_2.56

>>> COPY /tmp/H8_2.56/H8_2.56.scf.h5 /home/grierjones/DDCASPT2/hydrogen_comps/H8_chain/H8_2.56/

*** symbolic link created: INPORB -> H8_2.56.ScfOrb
--- Start Module: rasscf at Mon Nov 18 14:49:05 2024 ---
 
()()()()()()()()()()()()()()()()()()()()()()()()()()()()()()()()()()()()()()()()()()()()()()()()()()

                                              &RASSCF

                                   only a single process is used
                       available to each process: 2.0 GB of memory, 1 thread?
()()()()()()()()()()()()()()()()()()()()()()()()()()()()()()()()()()()()()()()()()()()()()()()()()()
 
 
 *************** WARNING ****************
 ###############################################################################
 ###############################################################################
 ###                                                                         ###
 ###                                                                         ###
 ###    Too many macro-iterations.                                           ###
 ###                                                                         ###
 ###                                                                         ###
 ###############################################################################
 ###############################################################################
 Too many macro-iterations requested.
 Reset to maximum, new MAXIT=     200
 ****************************************
 
 *************** WARNING ****************
 ###############################################################################
 ###############################################################################
 ###                                                                         ###
 ###                                                                         ###
 ###    Too many SX-iterations.                                              ###
 ###                                                                         ###
 ###                                                                         ###
 ###############################################################################
 ###############################################################################
 Too many SX-iterations requested.
 Reset to maximum, new ITMAX=     100
 ****************************************
 
      Header of the ONEINT file:
      --------------------------
      
      Integrals generated by seward 4.2.0  , Mon Nov 18 14:49:04 2024
 
 
      OrdInt status: non-squared
 
 
      Cartesian coordinates in Angstrom:
      -----------------------------------------------------
      No.  Label        X            Y            Z        
      -----------------------------------------------------
       1   H1         0.00000000   0.00000000   0.00000000
       2   H2         0.00000000   0.00000000   2.56363600
       3   H3         0.00000000   0.00000000   5.12727300
       4   H4         0.00000000   0.00000000   7.69090900
       5   H5         0.00000000   0.00000000  10.25454500
       6   H6         0.00000000   0.00000000  12.81818200
       7   H7         0.00000000   0.00000000  15.38181800
       8   H8         0.00000000   0.00000000  17.94545500
      -----------------------------------------------------
      Nuclear repulsion energy =    2.83675437
 
++    Wave function specifications:
      -----------------------------
 
      Number of closed shell electrons           0
      Number of electrons in active shells       8
      Max number of holes in RAS1 space          0
      Max nr of electrons in RAS3 space          0
      Number of inactive orbitals                0
      Number of active orbitals                  8
      Number of secondary orbitals              32
      Spin quantum number                      0.0
      State symmetry                             1
--
 
++    Orbital specifications:
      -----------------------
 
      Symmetry species                           1
                                                 a
      Frozen orbitals                            0
      Inactive orbitals                          0
      Active orbitals                            8
      RAS1 orbitals                              0
      RAS2 orbitals                              8
      RAS3 orbitals                              0
      Secondary orbitals                        32
      Deleted orbitals                           0
      Number of basis functions                 40
--
 
++    CI expansion specifications:
      ----------------------------
 
      Number of CSFs                          1764
      Number of determinants                  2485
      Number of root(s) required                 1
      Root chosen for geometry opt.              1
      CI root used                               1
         
      highest root included in the CI            1
      max. size of the explicit Hamiltonian    200
--
 
++    Optimization specifications:
      ----------------------------
 
      RASSCF algorithm: Conventional
      Maximum number of macro iterations       200
      Maximum number of SX iterations          100
      Threshold for RASSCF energy            0.100E-07
      Threshold for max MO rotation          0.100E+00
      Threshold for max BLB element          0.100E-03
      Level shift parameter                  0.500E+00
      Make Quasi-Newton update
--
 
      The MO-coefficients are taken from the file:
      /home/grierjones/DDCASPT2/hydrogen_comps/H8_chain/H8_2.54/H8_2.54.RasOrb                                                        
      Title: RASSCF average (pseudo-natural) orbitals                                      
 
      Total molecular charge    0.00
 
      ************************************************************************************************************************
      *                                                                                                                      *
      *                                            Wave function control section                                             *
      *                                                                                                                      *
      ************************************************************************************************************************
 
 
                                         RASSCF iterations: Energy and convergence statistics
                                         ----------------------------------------------------
 
      Iter CI   SX   CI       RASSCF       Energy    max ROT     max BLB   max BLB  Level Ln srch  Step   QN   Walltime
          iter iter root      energy       change     param      element    value   shift minimum  type update hh:mm:ss
 Nr of preliminary CI iterations:   8
        1   1    4    1    -3.99946473    0.00E+00   0.30E-02    7  13 1 -0.18E-02*  0.01   0.00    SX    NO    0:00:00
        2   1    4    1    -3.99948792   -0.23E-04*  0.55E-03    4  12 1 -0.38E-03*  0.01   0.00    SX    NO    0:00:00
        3   1    3    1    -3.99948896   -0.10E-05* -0.19E-03    4  12 1  0.13E-03*  0.01   0.00    SX    NO    0:00:00
        No convergence in the CI section: MAXJT will be increased to 
                    60
        4  48    4    1    -4.00009292   -0.60E-03*  0.21E-02    7  13 1  0.13E-02*  0.01   0.00    SX    NO    0:00:00
        5   3    4    1    -4.00011130   -0.18E-04* -0.28E-03    1  17 1  0.23E-03*  0.01   0.89    QN   YES    0:00:00
        6  10    4    1    -4.00011700   -0.57E-05* -0.17E-03    7  13 1  0.21E-03*  0.01   0.98    QN   YES    0:00:00
        7   9    4    1    -4.00011780   -0.81E-06* -0.43E-03    7  13 1  0.15E-03*  0.01   1.08    QN   YES    0:00:00
        8  36    3    1    -4.00011820   -0.40E-06* -0.15E-03    7  13 1 -0.78E-04   0.01   0.81    QN   YES    0:00:00
        9   4    3    1    -4.00011825   -0.55E-07* -0.32E-04    7  13 1  0.21E-04   0.01   0.82    QN   YES    0:00:00
       10   1    3    1    -4.00011826   -0.29E-08   0.40E-05    7  13 1 -0.30E-05   0.01   0.90    QN   YES    0:00:00
      Convergence after 10 iterations
 
  Dmat in MO in SXCTL bf call to SXHAM                                                                                    
  mat. size =     8x    8
 
        1.3424088215685119
       -0.0000000501096004      1.3014368569839867
        0.0000593520135951     -0.0000000902543537      1.2349349550664153
        0.0000000545606215      0.0000815671943624     -0.0000003955313333      1.1503859765039990
       -0.0000163150472011      0.0000000012907098      0.0001855513605973      0.0000002509842035      0.6970139201423571
       -0.0000001996247451     -0.0000324218441048      0.0000000010849144      0.0002049072157405      0.0000000924372002
        0.7666757955365542
       -0.0000463294557005      0.0000002532504377      0.0000974485225472      0.0000000018043385      0.0001595120701482
       -0.0000003903201330      0.8535117003950897
       -0.0000000007308709      0.0000993812411892      0.0000001985997050      0.0000140320019122      0.0000000626077841
       -0.0000443061130798      0.0000000529726079      0.6536319738030896
       11   1    3    1    -4.00011826   -0.55E-10   0.40E-05    4  10 1 -0.51E-06   0.01   0.90    QN   YES    0:00:00
 
      ************************************************************************************************************************
                                                      Wave function printout:
                       occupation of active orbitals, and spin coupling of open shells (u,d: Spin up or down)
      ************************************************************************************************************************
 
      Note: transformation to natural orbitals
      has been made, which may change the order of the CSFs.
 
      printout of CI-coefficients larger than  0.05 for root  1
      energy=      -4.000118
      conf/sym  11111111     Coeff  Weight
             1  22220000   0.36000 0.12960
            20  22200200  -0.05271 0.00278
            23  22200020  -0.19361 0.03748
            32  22ud0ud0  -0.20793 0.04323
            40  2u2d0200  -0.06570 0.00432
            41  2u2du0d0   0.16925 0.02865
            45  2u2d0u0d  -0.07018 0.00493
            49  u22dud00   0.09498 0.00902
            56  u22d00ud  -0.18779 0.03527
            58  22022000  -0.05354 0.00287
            60  22020200  -0.13171 0.01735
            61  2202u0d0   0.06556 0.00430
            63  22020020  -0.05373 0.00289
            69  2ud2ud00   0.17892 0.03201
            76  2ud200ud  -0.09515 0.00905
            78  u2d22000  -0.05424 0.00294
            81  u2d2u0d0   0.07165 0.00513
            85  u2d20u0d  -0.14578 0.02125
            88  20222000  -0.11077 0.01227
            90  20220200  -0.05479 0.00300
            95  20220u0d  -0.05445 0.00296
           102  ud220ud0  -0.05208 0.00271
           104  ud22u00d   0.14533 0.02112
           108  02222000  -0.05046 0.00255
           117  02220002  -0.11171 0.01248
           120  22uu0dd0  -0.05929 0.00351
           125  2u2ud0d0   0.06036 0.00364
           135  u22u00dd   0.07333 0.00538
           559  22000220   0.12141 0.01474
           578  2ud0ud20  -0.13386 0.01792
           607  u2d00u2d  -0.11829 0.01399
           617  20202020   0.09498 0.00902
           646  ud20u02d   0.09571 0.00916
           673  02200022   0.09038 0.00817
           676  2u0du2d0  -0.11198 0.01254
           704  u20d02ud  -0.09951 0.00990
           715  20ud2ud0   0.09293 0.00864
           743  udududud   0.08984 0.00807
           745  ududuudd   0.10865 0.01180
           772  02ud0ud2   0.08397 0.00705
           783  uuddudud   0.13326 0.01776
           802  u02d20ud  -0.08606 0.00741
           831  0u2du0d2  -0.08718 0.00760
           834  20022200   0.08628 0.00744
           861  ud02u20d   0.08045 0.00647
           890  02020202   0.07312 0.00535
           900  u0d22u0d  -0.08765 0.00768
           929  0ud2ud02  -0.08793 0.00773
           948  00222002   0.06860 0.00471
          1595  20002220  -0.08909 0.00794
          1608  ud00u22d   0.10412 0.01084
          1624  02000222  -0.07109 0.00505
          1627  u0d02u2d  -0.08903 0.00793
          1636  0ud022ud  -0.05152 0.00265
          1643  0ud0ud22   0.09909 0.00982
          1652  00202022  -0.06279 0.00394
          1656  u00d22ud  -0.09743 0.00949
          1663  u00dud22   0.05152 0.00265
          1671  0u0du2d2   0.07955 0.00633
          1680  00ud2ud2  -0.08496 0.00722
          1689  00022202  -0.06678 0.00446
          1764  00002222   0.10402 0.01082
 
      Natural orbitals and occupation numbers for root  1
      sym 1:   1.342409   1.301437   1.234935   1.150386   0.697014   0.766676   0.853512   0.653632
 
      ************************************************************************************************************************
      *                                                                                                                      *
      *                                                    Final results                                                     *
      *                                                                                                                      *
      ************************************************************************************************************************
 
 
++    Wave function specifications:
      -----------------------------
 
      Number of closed shell electrons           0
      Number of electrons in active shells       8
      Max number of holes in RAS1 space          0
      Max nr of electrons in RAS3 space          0
      Number of inactive orbitals                0
      Number of active orbitals                  8
      Number of secondary orbitals              32
      Spin quantum number                      0.0
      State symmetry                             1
--
 
++    Orbital specifications:
      -----------------------
 
      Symmetry species                           1
                                                 a
      Frozen orbitals                            0
      Inactive orbitals                          0
      Active orbitals                            8
      RAS1 orbitals                              0
      RAS2 orbitals                              8
      RAS3 orbitals                              0
      Secondary orbitals                        32
      Deleted orbitals                           0
      Number of basis functions                 40
--
 
++    CI expansion specifications:
      ----------------------------
 
      Number of CSFs                          1764
      Number of determinants                  2485
      Number of root(s) required                 1
      CI root used                               1
      highest root included in the CI            1
      Root passed to geometry opt.               1
--
 
++    Final optimization conditions:
      ------------------------------
 
      Average CI energy                              -4.00011826
      RASSCF energy for state  1                     -4.00011826
      Super-CI energy                                -0.00000000
      RASSCF energy change                            0.00000000
      Max change in MO coefficients              -0.243E-05
      Max non-diagonal density matrix element     0.402E-05
      Maximum BLB matrix element                 -0.514E-06
      (orbital pair   4,  10 in symmetry   1)
      Norm of electronic gradient            0.133E-05
--
 
 
      Final state energy(ies):
      ------------------------
 
::    RASSCF root number  1 Total energy:     -4.00011826
 
++    Molecular orbitals:
      -------------------
 
      Pseudonatural active orbitals and approximate occupation numbers
 
 
 
 
      Molecular orbitals for symmetry species 1: a  
 
 
      Orbital                1         2         3         4         5         6         7         8         9        10
      Energy            0.0000    0.0000    0.0000    0.0000    0.0000    0.0000    0.0000    0.0000    0.3310    0.3437
      Occ. No.          1.3424    1.3014    1.2349    1.1504    0.6970    0.7667    0.8535    0.6536    0.0000    0.0000
 
    1 H1     1s         0.1979   -0.3498    0.4091   -0.3272    0.4209   -0.4705   -0.3570   -0.2458   -0.0812   -0.1131
    2 H1     2s         0.0147   -0.0266    0.0323   -0.0271    0.0523   -0.0535   -0.0370   -0.0326    0.2180    0.3821
    3 H1     2px        0.0000    0.0000   -0.0000   -0.0000    0.0000    0.0000   -0.0000    0.0000    0.0000   -0.0000
    4 H1     2py        0.0000   -0.0000    0.0000   -0.0000   -0.0000   -0.0000   -0.0000    0.0000   -0.0000    0.0000
    5 H1     2pz        0.0010   -0.0014    0.0012   -0.0006    0.0023   -0.0017   -0.0007   -0.0017   -0.0068   -0.0102
    6 H2     1s         0.2704   -0.4185    0.3829   -0.2031   -0.5276    0.4246    0.1830    0.3674   -0.1439   -0.1801
    7 H2     2s         0.0174   -0.0333    0.0408   -0.0305   -0.0803    0.0512    0.0117    0.0625    0.2242    0.3065
    8 H2     2px       -0.0000   -0.0000    0.0000   -0.0000   -0.0000   -0.0000    0.0000    0.0000    0.0000    0.0000
    9 H2     2py        0.0000    0.0000    0.0000   -0.0000   -0.0000    0.0000   -0.0000   -0.0000   -0.0000    0.0000
   10 H2     2pz        0.0007   -0.0001   -0.0013    0.0017    0.0005   -0.0005    0.0003   -0.0001   -0.0002    0.0007
   11 H3     1s         0.3625   -0.2974   -0.1459    0.4408    0.3977    0.1416    0.4701   -0.4822   -0.1587   -0.1183
   12 H3     2s         0.0257   -0.0178   -0.0213    0.0475    0.0667    0.0132    0.0560   -0.0813    0.2723    0.2445
   13 H3     2px        0.0000    0.0000   -0.0000    0.0000    0.0000    0.0000   -0.0000   -0.0000   -0.0000   -0.0000
   14 H3     2py        0.0000   -0.0000    0.0000    0.0000    0.0000   -0.0000    0.0000    0.0000   -0.0000   -0.0000
   15 H3     2pz        0.0001    0.0010   -0.0017    0.0007    0.0002    0.0006    0.0000   -0.0013   -0.0005    0.0008
   16 H4     1s         0.3915   -0.1688   -0.3305    0.3773   -0.1953   -0.4085   -0.3881    0.5274   -0.1718   -0.0490
   17 H4     2s         0.0265   -0.0181   -0.0244    0.0437   -0.0264   -0.0619   -0.0423    0.0906    0.2923    0.0875
   18 H4     2px       -0.0000   -0.0000   -0.0000   -0.0000   -0.0000   -0.0000   -0.0000   -0.0000   -0.0000   -0.0000
   19 H4     2py        0.0000    0.0000   -0.0000    0.0000    0.0000   -0.0000   -0.0000   -0.0000   -0.0000    0.0000
   20 H4     2pz        0.0004    0.0013   -0.0009   -0.0014    0.0012    0.0002    0.0001   -0.0008    0.0001    0.0010
   21 H5     1s         0.3915    0.1688   -0.3305   -0.3773   -0.1953    0.4085   -0.3881   -0.5274   -0.1718    0.0490
   22 H5     2s         0.0265    0.0181   -0.0244   -0.0437   -0.0264    0.0619   -0.0423   -0.0906    0.2923   -0.0875
   23 H5     2px        0.0000   -0.0000   -0.0000   -0.0000    0.0000    0.0000    0.0000   -0.0000   -0.0000   -0.0000
   24 H5     2py       -0.0000    0.0000    0.0000    0.0000    0.0000    0.0000    0.0000    0.0000    0.0000    0.0000
   25 H5     2pz       -0.0004    0.0013    0.0009   -0.0014   -0.0012    0.0002   -0.0001   -0.0008   -0.0001    0.0010
   26 H6     1s         0.3625    0.2974   -0.1459   -0.4408    0.3977   -0.1416    0.4701    0.4822   -0.1587    0.1183
   27 H6     2s         0.0257    0.0178   -0.0213   -0.0475    0.0667   -0.0132    0.0560    0.0813    0.2723   -0.2445
   28 H6     2px        0.0000   -0.0000    0.0000    0.0000    0.0000    0.0000    0.0000   -0.0000   -0.0000   -0.0000
   29 H6     2py        0.0000   -0.0000   -0.0000    0.0000    0.0000   -0.0000    0.0000   -0.0000   -0.0000   -0.0000
   30 H6     2pz       -0.0001    0.0010    0.0017    0.0007   -0.0002    0.0006   -0.0000   -0.0013    0.0005    0.0008
   31 H7     1s         0.2704    0.4185    0.3829    0.2031   -0.5276   -0.4246    0.1830   -0.3674   -0.1439    0.1801
   32 H7     2s         0.0174    0.0333    0.0408    0.0305   -0.0803   -0.0512    0.0117   -0.0625    0.2242   -0.3065
   33 H7     2px       -0.0000    0.0000   -0.0000   -0.0000    0.0000   -0.0000   -0.0000   -0.0000    0.0000   -0.0000
   34 H7     2py        0.0000   -0.0000    0.0000   -0.0000    0.0000   -0.0000    0.0000    0.0000   -0.0000   -0.0000
   35 H7     2pz       -0.0007   -0.0001    0.0013    0.0017   -0.0005   -0.0005   -0.0003   -0.0001    0.0002    0.0007
   36 H8     1s         0.1979    0.3498    0.4091    0.3272    0.4209    0.4705   -0.3570    0.2458   -0.0812    0.1131
   37 H8     2s         0.0147    0.0266    0.0323    0.0271    0.0523    0.0535   -0.0370    0.0326    0.2180   -0.3821
   38 H8     2px        0.0000   -0.0000   -0.0000   -0.0000   -0.0000    0.0000    0.0000   -0.0000    0.0000   -0.0000
   39 H8     2py       -0.0000   -0.0000   -0.0000   -0.0000    0.0000    0.0000   -0.0000    0.0000    0.0000   -0.0000
   40 H8     2pz       -0.0010   -0.0014   -0.0012   -0.0006   -0.0023   -0.0017    0.0007   -0.0017    0.0068   -0.0102
 
 
      Orbital               11        12        13        14        15        16        17        18        19        20
      Energy            0.3684    0.4089    0.4676    0.5518    0.6488    0.7417    0.7551    0.8562    0.8562    0.8722
      Occ. No.          0.0000    0.0000    0.0000    0.0000    0.0000    0.0000    0.0000    0.0000    0.0000    0.0000
 
    1 H1     1s         0.0801   -0.0008    0.0892    0.1570    0.1639   -0.1382   -0.0998   -0.0000   -0.0000   -0.0000
    2 H1     2s        -0.4792    0.5249    0.5189    0.4626    0.3450   -0.2244   -0.1526    0.0000   -0.0000   -0.0000
    3 H1     2px        0.0000   -0.0000   -0.0000    0.0000   -0.0000   -0.0000    0.0000    0.1151   -0.0989    0.2008
    4 H1     2py       -0.0000   -0.0000   -0.0000    0.0000    0.0000   -0.0000   -0.0000    0.0989    0.1151    0.2069
    5 H1     2pz        0.0110   -0.0145   -0.0290   -0.0682   -0.1397    0.3307    0.3052   -0.0000    0.0000    0.0000
    6 H2     1s         0.1046   -0.0156   -0.0175   -0.1275   -0.2138    0.1562    0.0874    0.0000   -0.0000    0.0000
    7 H2     2s        -0.1927   -0.0823   -0.4194   -0.6969   -0.7001    0.4172    0.2378    0.0000   -0.0000    0.0000
    8 H2     2px        0.0000   -0.0000    0.0000   -0.0000   -0.0000   -0.0000    0.0000    0.2191   -0.1883    0.3120
    9 H2     2py        0.0000    0.0000   -0.0000    0.0000    0.0000   -0.0000   -0.0000    0.1883    0.2191    0.3215
   10 H2     2pz        0.0029   -0.0192   -0.0433   -0.0437    0.0392   -0.3417   -0.3477    0.0000   -0.0000   -0.0000
   11 H3     1s        -0.0462    0.0953    0.0041    0.0167    0.1997   -0.1752   -0.0655   -0.0000    0.0000    0.0000
   12 H3     2s         0.0972   -0.4487   -0.4159    0.1334    0.6780   -0.4664   -0.1826   -0.0000    0.0000   -0.0000
   13 H3     2px       -0.0000    0.0000   -0.0000   -0.0000   -0.0000    0.0000    0.0000    0.2965   -0.2548    0.2754
   14 H3     2py       -0.0000    0.0000    0.0000   -0.0000   -0.0000    0.0000    0.0000    0.2548    0.2965    0.2838
   15 H3     2pz        0.0016   -0.0011    0.0379    0.1316    0.1444    0.2280    0.3077   -0.0000    0.0000   -0.0000
   16 H4     1s        -0.1287    0.0581   -0.0026    0.0988   -0.0832    0.1780    0.0245    0.0000   -0.0000   -0.0000
   17 H4     2s         0.3475   -0.2548    0.4133    0.6107   -0.2748    0.4600    0.0651    0.0000   -0.0000   -0.0000
   18 H4     2px       -0.0000   -0.0000   -0.0000   -0.0000    0.0000    0.0000   -0.0000    0.3374   -0.2900    0.1094
   19 H4     2py       -0.0000    0.0000   -0.0000   -0.0000   -0.0000    0.0000   -0.0000    0.2900    0.3374    0.1127
   20 H4     2pz        0.0021    0.0122    0.0348   -0.0725   -0.2798   -0.0775   -0.2706   -0.0000   -0.0000    0.0000
   21 H5     1s        -0.1287   -0.0581   -0.0026   -0.0988   -0.0832   -0.1780    0.0245   -0.0000    0.0000   -0.0000
   22 H5     2s         0.3475    0.2548    0.4133   -0.6107   -0.2748   -0.4600    0.0651   -0.0000    0.0000    0.0000
   23 H5     2px        0.0000   -0.0000    0.0000    0.0000   -0.0000    0.0000    0.0000    0.3374   -0.2900   -0.1094
   24 H5     2py        0.0000    0.0000    0.0000    0.0000   -0.0000    0.0000    0.0000    0.2900    0.3374   -0.1127
   25 H5     2pz       -0.0021    0.0122   -0.0348   -0.0725    0.2798   -0.0775    0.2706    0.0000   -0.0000   -0.0000
   26 H6     1s        -0.0462   -0.0953    0.0041   -0.0167    0.1997    0.1752   -0.0655   -0.0000   -0.0000    0.0000
   27 H6     2s         0.0972    0.4487   -0.4159   -0.1334    0.6780    0.4664   -0.1826    0.0000   -0.0000   -0.0000
   28 H6     2px        0.0000    0.0000    0.0000    0.0000   -0.0000    0.0000    0.0000    0.2965   -0.2548   -0.2754
   29 H6     2py       -0.0000    0.0000    0.0000   -0.0000   -0.0000   -0.0000    0.0000    0.2548    0.2965   -0.2838
   30 H6     2pz       -0.0016   -0.0011   -0.0379    0.1316   -0.1444    0.2280   -0.3077   -0.0000    0.0000    0.0000
   31 H7     1s         0.1046    0.0156   -0.0175    0.1275   -0.2138   -0.1562    0.0874   -0.0000    0.0000   -0.0000
   32 H7     2s        -0.1927    0.0823   -0.4194    0.6969   -0.7001   -0.4172    0.2378   -0.0000    0.0000   -0.0000
   33 H7     2px       -0.0000   -0.0000   -0.0000   -0.0000   -0.0000    0.0000    0.0000    0.2191   -0.1883   -0.3120
   34 H7     2py        0.0000   -0.0000    0.0000   -0.0000   -0.0000   -0.0000   -0.0000    0.1883    0.2191   -0.3215
   35 H7     2pz       -0.0029   -0.0192    0.0433   -0.0437   -0.0392   -0.3417    0.3477    0.0000   -0.0000   -0.0000
   36 H8     1s         0.0801    0.0008    0.0892   -0.1570    0.1639    0.1382   -0.0998   -0.0000   -0.0000   -0.0000
   37 H8     2s        -0.4792   -0.5249    0.5189   -0.4626    0.3450    0.2244   -0.1526    0.0000    0.0000    0.0000
   38 H8     2px       -0.0000   -0.0000    0.0000    0.0000    0.0000    0.0000   -0.0000    0.1151   -0.0989   -0.2008
   39 H8     2py       -0.0000   -0.0000   -0.0000    0.0000    0.0000   -0.0000   -0.0000    0.0989    0.1151   -0.2069
   40 H8     2pz       -0.0110   -0.0145    0.0290   -0.0682    0.1397    0.3307   -0.3052   -0.0000    0.0000    0.0000
 
 
      Orbital               21        22        23        24        25        26        27        28        29        30
      Energy            0.8722    0.8974    0.8974    0.9294    0.9294    0.9655    0.9655    1.0006    1.0006    1.0304
      Occ. No.          0.0000    0.0000    0.0000    0.0000    0.0000    0.0000    0.0000    0.0000    0.0000    0.0000
 
    1 H1     1s         0.0000    0.0000   -0.0000    0.0000   -0.0000   -0.0000   -0.0000   -0.0000    0.0000    0.0000
    2 H1     2s         0.0000    0.0000    0.0000   -0.0000   -0.0000   -0.0000   -0.0000    0.0000   -0.0000   -0.0000
    3 H1     2px        0.2069   -0.2773   -0.2815    0.3482    0.2964    0.3715    0.2854    0.3045    0.2943    0.2562
    4 H1     2py       -0.2008   -0.2815    0.2773    0.2964   -0.3482    0.2854   -0.3715    0.2943   -0.3045    0.1922
    5 H1     2pz       -0.0000   -0.0000    0.0000   -0.0000   -0.0000    0.0000   -0.0000    0.0000   -0.0000   -0.0000
    6 H2     1s        -0.0000    0.0000   -0.0000   -0.0000    0.0000   -0.0000   -0.0000   -0.0000    0.0000    0.0000
    7 H2     2s        -0.0000    0.0000   -0.0000    0.0000    0.0000   -0.0000    0.0000   -0.0000   -0.0000    0.0000
    8 H2     2px        0.3215   -0.2825   -0.2868    0.1277    0.1087   -0.1239   -0.0952   -0.2983   -0.2883   -0.3857
    9 H2     2py       -0.3120   -0.2868    0.2825    0.1087   -0.1277   -0.0952    0.1239   -0.2883    0.2983   -0.2894
   10 H2     2pz       -0.0000    0.0000    0.0000   -0.0000   -0.0000   -0.0000   -0.0000   -0.0000   -0.0000    0.0000
   11 H3     1s         0.0000   -0.0000    0.0000   -0.0000   -0.0000    0.0000   -0.0000    0.0000    0.0000   -0.0000
   12 H3     2s         0.0000   -0.0000   -0.0000    0.0000    0.0000    0.0000    0.0000    0.0000    0.0000   -0.0000
   13 H3     2px        0.2838   -0.0014   -0.0015   -0.3073   -0.2617   -0.3287   -0.2525   -0.0037   -0.0036    0.3373
   14 H3     2py       -0.2754   -0.0015    0.0014   -0.2617    0.3073   -0.2525    0.3287   -0.0036    0.0037    0.2530
   15 H3     2pz        0.0000   -0.0000   -0.0000    0.0000    0.0000    0.0000    0.0000    0.0000    0.0000    0.0000
   16 H4     1s        -0.0000    0.0000    0.0000    0.0000    0.0000   -0.0000    0.0000   -0.0000   -0.0000    0.0000
   17 H4     2s        -0.0000    0.0000    0.0000   -0.0000   -0.0000   -0.0000   -0.0000   -0.0000   -0.0000    0.0000
   18 H4     2px        0.1127    0.2794    0.2837   -0.2306   -0.1964    0.2423    0.1861    0.3005    0.2904   -0.1334
   19 H4     2py       -0.1094    0.2837   -0.2794   -0.1964    0.2306    0.1861   -0.2423    0.2904   -0.3005   -0.1001
   20 H4     2pz       -0.0000    0.0000    0.0000   -0.0000   -0.0000   -0.0000   -0.0000   -0.0000   -0.0000   -0.0000
   21 H5     1s         0.0000   -0.0000   -0.0000    0.0000    0.0000   -0.0000    0.0000    0.0000    0.0000   -0.0000
   22 H5     2s         0.0000   -0.0000   -0.0000    0.0000    0.0000    0.0000    0.0000    0.0000    0.0000    0.0000
   23 H5     2px       -0.1127    0.2794    0.2837    0.2306    0.1964    0.2423    0.1861   -0.3005   -0.2904   -0.1334
   24 H5     2py        0.1094    0.2837   -0.2794    0.1964   -0.2306    0.1861   -0.2423   -0.2904    0.3005   -0.1001
   25 H5     2pz        0.0000    0.0000   -0.0000    0.0000    0.0000   -0.0000    0.0000   -0.0000    0.0000    0.0000
   26 H6     1s        -0.0000    0.0000    0.0000   -0.0000   -0.0000   -0.0000   -0.0000   -0.0000    0.0000   -0.0000
   27 H6     2s        -0.0000    0.0000    0.0000   -0.0000   -0.0000   -0.0000   -0.0000   -0.0000   -0.0000   -0.0000
   28 H6     2px       -0.2838   -0.0014   -0.0015    0.3073    0.2617   -0.3287   -0.2525    0.0037    0.0036    0.3373
   29 H6     2py        0.2754   -0.0015    0.0014    0.2617   -0.3073   -0.2525    0.3287    0.0036   -0.0037    0.2530
   30 H6     2pz        0.0000   -0.0000   -0.0000   -0.0000    0.0000    0.0000    0.0000    0.0000    0.0000   -0.0000
   31 H7     1s         0.0000   -0.0000   -0.0000    0.0000    0.0000    0.0000   -0.0000    0.0000    0.0000    0.0000
   32 H7     2s         0.0000   -0.0000   -0.0000    0.0000    0.0000    0.0000    0.0000    0.0000    0.0000    0.0000
   33 H7     2px       -0.3215   -0.2825   -0.2868   -0.1277   -0.1087   -0.1239   -0.0952    0.2983    0.2883   -0.3857
   34 H7     2py        0.3120   -0.2868    0.2825   -0.1087    0.1277   -0.0952    0.1239    0.2883   -0.2983   -0.2894
   35 H7     2pz       -0.0000    0.0000    0.0000   -0.0000   -0.0000   -0.0000   -0.0000   -0.0000   -0.0000   -0.0000
   36 H8     1s        -0.0000   -0.0000    0.0000   -0.0000   -0.0000    0.0000    0.0000   -0.0000   -0.0000   -0.0000
   37 H8     2s         0.0000    0.0000    0.0000    0.0000    0.0000   -0.0000   -0.0000   -0.0000   -0.0000   -0.0000
   38 H8     2px       -0.2069   -0.2773   -0.2815   -0.3482   -0.2964    0.3715    0.2854   -0.3045   -0.2943    0.2562
   39 H8     2py        0.2008   -0.2815    0.2773   -0.2964    0.3482    0.2854   -0.3715   -0.2943    0.3045    0.1922
   40 H8     2pz        0.0000   -0.0000   -0.0000    0.0000    0.0000    0.0000    0.0000    0.0000    0.0000    0.0000
 
 
      Orbital               31        32        33        34        35        36        37        38        39        40
      Energy            1.0304    1.0505    1.0505    1.0592    1.0618    1.0986    1.1611    1.2353    1.3062    1.3577
      Occ. No.          0.0000    0.0000    0.0000    0.0000    0.0000    0.0000    0.0000    0.0000    0.0000    0.0000
 
    1 H1     1s         0.0000    0.0000   -0.0000   -0.0833   -0.1236    0.1300   -0.1138    0.1000   -0.0776    0.0435
    2 H1     2s        -0.0000    0.0000   -0.0000   -0.1554   -0.2576    0.2811   -0.2356    0.1807   -0.1194    0.0592
    3 H1     2px        0.1922   -0.0234    0.1707    0.0000   -0.0000   -0.0000   -0.0000    0.0000   -0.0000    0.0000
    4 H1     2py       -0.2562    0.1707    0.0234    0.0000   -0.0000   -0.0000    0.0000   -0.0000    0.0000   -0.0000
    5 H1     2pz       -0.0000    0.0000   -0.0000   -0.1298   -0.3158    0.4389   -0.4718    0.4379   -0.3359    0.1824
    6 H2     1s        -0.0000   -0.0000    0.0000    0.2557    0.3226   -0.2845    0.1733   -0.0804    0.0099    0.0139
    7 H2     2s         0.0000   -0.0000    0.0000    0.5240    0.6738   -0.5634    0.3040   -0.1303    0.0320   -0.0000
    8 H2     2px       -0.2894    0.0433   -0.3157    0.0000    0.0000   -0.0000    0.0000   -0.0000    0.0000   -0.0000
    9 H2     2py        0.3857   -0.3157   -0.0433   -0.0000    0.0000   -0.0000   -0.0000    0.0000   -0.0000    0.0000
   10 H2     2pz       -0.0000   -0.0000    0.0000    0.2544    0.2959   -0.1156   -0.2233    0.4916   -0.5569    0.3658
   11 H3     1s        -0.0000    0.0000   -0.0000   -0.4728   -0.3742    0.1706    0.0325   -0.0670    0.0196    0.0207
   12 H3     2s        -0.0000    0.0000   -0.0000   -0.9796   -0.7848    0.3364    0.0434   -0.0722    0.0098    0.0246
   13 H3     2px        0.2530   -0.0581    0.4240   -0.0000   -0.0000    0.0000   -0.0000    0.0000   -0.0000    0.0000
   14 H3     2py       -0.3373    0.4240    0.0581    0.0000   -0.0000    0.0000    0.0000   -0.0000    0.0000   -0.0000
   15 H3     2pz        0.0000    0.0000   -0.0000   -0.2605    0.0798   -0.4540    0.4667   -0.0027   -0.4785    0.4882
   16 H4     1s         0.0000   -0.0000    0.0000    0.6234    0.1677    0.0654   -0.0840   -0.0578    0.0593    0.0028
   17 H4     2s        -0.0000   -0.0000    0.0000    1.2980    0.3508    0.1252   -0.1340   -0.0799    0.0631   -0.0018
   18 H4     2px       -0.1001    0.0660   -0.4815    0.0000    0.0000   -0.0000    0.0000   -0.0000   -0.0000   -0.0000
   19 H4     2py        0.1334   -0.4815   -0.0660   -0.0000    0.0000    0.0000   -0.0000   -0.0000    0.0000   -0.0000
   20 H4     2pz        0.0000   -0.0000   -0.0000    0.1120   -0.4465    0.3221    0.3259   -0.4637   -0.1959    0.5599
   21 H5     1s        -0.0000    0.0000   -0.0000   -0.6235    0.1677   -0.0654   -0.0840    0.0578    0.0593   -0.0028
   22 H5     2s         0.0000    0.0000   -0.0000   -1.2980    0.3507   -0.1252   -0.1340    0.0799    0.0631    0.0018
   23 H5     2px       -0.1001   -0.0660    0.4815   -0.0000   -0.0000    0.0000   -0.0000    0.0000    0.0000   -0.0000
   24 H5     2py        0.1334    0.4815    0.0660    0.0000   -0.0000   -0.0000    0.0000    0.0000   -0.0000    0.0000
   25 H5     2pz        0.0000   -0.0000    0.0000    0.1120    0.4465    0.3221   -0.3259   -0.4637    0.1959    0.5599
   26 H6     1s         0.0000   -0.0000   -0.0000    0.4728   -0.3742   -0.1706    0.0325    0.0670    0.0196   -0.0207
   27 H6     2s        -0.0000   -0.0000    0.0000    0.9797   -0.7848   -0.3364    0.0434    0.0722    0.0098   -0.0246
   28 H6     2px        0.2530    0.0581   -0.4240    0.0000    0.0000   -0.0000    0.0000    0.0000   -0.0000   -0.0000
   29 H6     2py       -0.3373   -0.4240   -0.0581   -0.0000    0.0000    0.0000   -0.0000    0.0000    0.0000   -0.0000
   30 H6     2pz       -0.0000    0.0000   -0.0000   -0.2605   -0.0798   -0.4540   -0.4667   -0.0027    0.4785    0.4882
   31 H7     1s         0.0000    0.0000    0.0000   -0.2557    0.3226    0.2845    0.1733    0.0804    0.0099   -0.0139
   32 H7     2s         0.0000    0.0000    0.0000   -0.5240    0.6738    0.5634    0.3040    0.1303    0.0320    0.0000
   33 H7     2px       -0.2894   -0.0433    0.3157   -0.0000   -0.0000    0.0000   -0.0000   -0.0000   -0.0000    0.0000
   34 H7     2py        0.3857    0.3157    0.0433    0.0000   -0.0000   -0.0000   -0.0000   -0.0000   -0.0000   -0.0000
   35 H7     2pz       -0.0000   -0.0000   -0.0000    0.2544   -0.2959   -0.1156    0.2233    0.4916    0.5569    0.3658
   36 H8     1s        -0.0000   -0.0000   -0.0000    0.0833   -0.1236   -0.1300   -0.1138   -0.1000   -0.0776   -0.0435
   37 H8     2s         0.0000   -0.0000   -0.0000    0.1555   -0.2576   -0.2811   -0.2356   -0.1807   -0.1194   -0.0592
   38 H8     2px        0.1922    0.0234   -0.1707    0.0000    0.0000   -0.0000    0.0000    0.0000   -0.0000   -0.0000
   39 H8     2py       -0.2562   -0.1707   -0.0234   -0.0000    0.0000   -0.0000    0.0000    0.0000   -0.0000    0.0000
   40 H8     2pz        0.0000    0.0000    0.0000   -0.1298    0.3158    0.4389    0.4718    0.4379    0.3359    0.1824
--
 
      Von Neumann Entropy (Root  1) =  3.78970
 

      Mulliken population analysis for root number:  1
      -----------------------------------------------
 
 
++    Molecular charges:
      ------------------
 
      Mulliken charges per centre and basis function type
      ---------------------------------------------------
 
                H1      H2      H3      H4      H5      H6      H7      H8    
      1s       0.9921  1.0014  1.0019  1.0016  1.0016  1.0019  1.0014  0.9921
      2s       0.0060  0.0002 -0.0023 -0.0019 -0.0019 -0.0023  0.0002  0.0060
      2px      0.0000  0.0000  0.0000  0.0000  0.0000  0.0000  0.0000  0.0000
      2pz     -0.0000  0.0003  0.0003  0.0003  0.0003  0.0003  0.0003 -0.0000
      2py      0.0000  0.0000  0.0000  0.0000  0.0000  0.0000  0.0000  0.0000
      Total    0.9981  1.0019  0.9999  1.0000  1.0000  0.9999  1.0019  0.9981
 
      N-E      0.0019 -0.0019  0.0001  0.0000  0.0000  0.0001 -0.0019  0.0019
 
      Total electronic charge=    8.000000
 
      Total            charge=   -0.000000
--
 
 

      Expectation values of various properties for root number:  1
      -----------------------------------------------------------
 
 
++    Molecular properties:
      ---------------------
 
      Charge (e):
                      =   -0.0000
      Dipole Moment (Debye):
      Origin of the operator (Ang)=    0.0000    0.0000    0.0000
                   X= -2.1219E-13               Y= -8.6075E-13               Z= -5.9692E-09           Total=  5.9692E-09
      Quadrupole Moment (Debye*Ang):
      Origin of the operator (Ang)=    0.0000    0.0000    8.9727
                  XX= -1.2160E+01              XY= -1.9205E-26              XZ=  4.0057E-12              YY= -1.2160E+01
                  YZ=  2.8984E-12              ZZ= -1.1748E+01
      In traceless form (Debye*Ang)
                  XX= -2.0598E-01              XY= -2.8808E-26              XZ=  6.0086E-12              YY= -2.0598E-01
                  YZ=  4.3476E-12              ZZ=  4.1195E-01
--
 

      LoProp population analysis for root number:  1
      -----------------------------------------------
 
 
++    LoProp analysis:
      ----------------
 
 
 
  Input file to MOLDEN was generated!
 
 
++    Static properties:
      ------------------
 
 
      LoProp Charges per center
 

                   H1       H2       H3       H4       H5       H6       H7       H8    
      Nuclear      1.0000   1.0000   1.0000   1.0000   1.0000   1.0000   1.0000   1.0000
      Electronic  -1.0001  -0.9999  -1.0000  -1.0000  -1.0000  -1.0000  -0.9999  -1.0001
 
      Total       -0.0001   0.0001   0.0000  -0.0000  -0.0000   0.0000   0.0001  -0.0001
--
 
 
      Natural Bond Order analysis for root number:  1
 
++    Natural Bond Order analysis
      ---------------------------
      Based on LoProp computed density
      -------------------------------------------------------------------------------------
      Atom A       Atom B       Bond Order
      -------------------------------------------------------------------------------------
      The remaining    8.000 electrons are to be considered as diffuse
--
 
--
 
 
  Input file to MOLDEN was generated!
 
      Average orbitals are written to the RASORB file
      Natural orbitals for root   1 are written to the RASORB.1 file
      Spin density orbitals for root   1 are written to the SPDORB.1 file
 
--- Stop Module: rasscf at Mon Nov 18 14:49:06 2024 /rc=_RC_ALL_IS_WELL_ ---
*** files: H8_2.56.LprOrb H8_2.56.rasscf.molden H8_2.56.LoProp.molden H8_2.56.RasOrb H8_2.56.RasOrb.1 H8_2.56.rasscf.h5 H8_2.56.SpdOrb.1 xmldump
    saved to directory /home/grierjones/DDCASPT2/hydrogen_comps/H8_chain/H8_2.56

>>> COPY /tmp/H8_2.56/H8_2.56.rasscf.h5 /home/grierjones/DDCASPT2/hydrogen_comps/H8_chain/H8_2.56/

>>> COPY /tmp/H8_2.56/GMJ_Fock_MO.csv /home/grierjones/DDCASPT2/hydrogen_comps/H8_chain/H8_2.56/H8_2.56.GMJ_Fock_MO.csv

>>> COPY /tmp/H8_2.56/GMJ_PT2_Fock_MO.csv /home/grierjones/DDCASPT2/hydrogen_comps/H8_chain/H8_2.56/H8_2.56.GMJ_PT2_Fock_MO.csv

*** symbolic link created: INPORB -> H8_2.56.RasOrb
--- Start Module: motra at Mon Nov 18 14:49:06 2024 ---
 
()()()()()()()()()()()()()()()()()()()()()()()()()()()()()()()()()()()()()()()()()()()()()()()()()()

                                               &MOTRA

                                   only a single process is used
                       available to each process: 2.0 GB of memory, 1 thread?
()()()()()()()()()()()()()()()()()()()()()()()()()()()()()()()()()()()()()()()()()()()()()()()()()()
 
 
      *** WARNING: Default frozen orbitals is overwritten by user input.
      *** Default values:   0
 
      Header of the integral files:
      
       Integrals generated by seward 4.2.0  , Mon Nov 18 14:49:04 2024
 
 
      Header of MO coefficients source file:
      * RASSCF average (pseudo-natural) orbitals                                      
 
 
      Cartesian coordinates in Angstrom:
      -----------------------------------------------------
      No.  Label        X            Y            Z        
      -----------------------------------------------------
       1   H1         0.00000000   0.00000000   0.00000000
       2   H2         0.00000000   0.00000000   2.56363600
       3   H3         0.00000000   0.00000000   5.12727300
       4   H4         0.00000000   0.00000000   7.69090900
       5   H5         0.00000000   0.00000000  10.25454500
       6   H6         0.00000000   0.00000000  12.81818200
       7   H7         0.00000000   0.00000000  15.38181800
       8   H8         0.00000000   0.00000000  17.94545500
      -----------------------------------------------------
      Nuclear repulsion energy =    2.83675437
 
      Orbital specifications:
      -----------------------
 
      Symmetry species:              1
      Number of basis functions:    40
      Frozen orbitals:               0
      Deleted orbitals:              0
      Number of orbitals used:      40

       SYMMETRY  BASIS FUNCTIONS       ORBITALS      INTEGRALS   CPU(SEC)  I/O(SEC)
 
        1 1 1 1   40  40  40  40    40  40  40  40      336610       0.00      0.00

       TOTAL CPU TIME(SEC)    0.17TOTAL I/O TIME(SEC)    0.44
 
--- Stop Module: motra at Mon Nov 18 14:49:06 2024 /rc=_RC_ALL_IS_WELL_ ---
*** files: xmldump
    saved to directory /home/grierjones/DDCASPT2/hydrogen_comps/H8_chain/H8_2.56

>>> COPY /tmp/H8_2.56/GMJ_one_int_indx.csv /home/grierjones/DDCASPT2/hydrogen_comps/H8_chain/H8_2.56/H8_2.56.GMJ_one_int_indx.csv

>>> COPY /tmp/H8_2.56/GMJ_one_int.csv /home/grierjones/DDCASPT2/hydrogen_comps/H8_chain/H8_2.56/H8_2.56.GMJ_one_int.csv

>>> COPY /tmp/H8_2.56/GMJ_two_int_indx.csv /home/grierjones/DDCASPT2/hydrogen_comps/H8_chain/H8_2.56/H8_2.56.GMJ_two_int_indx.csv

>>> COPY /tmp/H8_2.56/GMJ_two_int.csv /home/grierjones/DDCASPT2/hydrogen_comps/H8_chain/H8_2.56/H8_2.56.GMJ_two_int.csv

*** symbolic link created: INPORB -> H8_2.56.RasOrb
--- Start Module: caspt2 at Mon Nov 18 14:49:06 2024 ---
 
()()()()()()()()()()()()()()()()()()()()()()()()()()()()()()()()()()()()()()()()()()()()()()()()()()

                                              &CASPT2

                                   only a single process is used
                       available to each process: 2.0 GB of memory, 1 thread?
()()()()()()()()()()()()()()()()()()()()()()()()()()()()()()()()()()()()()()()()()()()()()()()()()()
 
 Cholesky algorithm in CASPT2 =    1
 
 ###############################################################################
 ###############################################################################
 ###                                                                         ###
 ###                                                                         ###
 ###    User changed nr of frozen orbitals.                                  ###
 ###                                                                         ###
 ###                                                                         ###
 ###############################################################################
 ###############################################################################
 
++    Wave function specifications:
      -----------------------------
 
      Number of closed shell electrons           0
      Number of electrons in active shells       8
      Max number of holes in RAS1 space          0
      Max number of electrons in RAS3 space      0
      Number of inactive orbitals                0
      Number of active orbitals                  8
      Number of secondary orbitals              32
      Spin quantum number                      0.0
      State symmetry                             1
      Number of CSFs                          1764
      Number of root(s) available                1
      Root passed to geometry opt.               1
      A file JOBMIX will be created.
      This is a CASSCF or RASSCF reference function
--
 
++    Orbital specifications:
      -----------------------
 
      Symmetry species                           1
                                                 a
      Frozen orbitals                            0
      Inactive orbitals                          0
      Active orbitals                            8
      Secondary orbitals                        32
      Deleted orbitals                           0
      Number of basis functions                 40
--
 
      Type of Fock operator: STANDARD
      Type of 0-order Hamiltonian: STANDARD WITH DEFAULT IPEA
        "IP-EA" denominator shift =      0.25
      The input orbitals and the CI vector will be transformed.
 
--------------------------------------------------------------------------------
 Estimated memory requirements:
  POLY3 :                   450746
  RHS:                      417296
  SIGMA :                   326032
  PRPCTL:                        0
 Available workspace:    230388092
 
++ CASPT2 computation for group   1
 
********************************************************************************
 Multi-State initialization phase begins for group   1
--------------------------------------------------------------------------------
********************************************************************************
 Compute H0 matrices for state    1
--------------------------------------------------------------------------------
--------------------------------------------------------------------------------
 H0 matrices have been computed.
 
********************************************************************************
  CASPT2 EQUATION SOLUTION
--------------------------------------------------------------------------------
 
  Total nr of CASPT2 parameters:
   Before reduction:       49280
   After  reduction:       48704
 
 The contributions to the second order correlation energy in atomic units.
-----------------------------------------------------------------------------------------------------------------------------
  IT.      VJTU        VJTI        ATVX        AIVX        VJAI        BVAT        BJAT        BJAI        TOTAL       RNORM  
-----------------------------------------------------------------------------------------------------------------------------
   1     0.000000    0.000000   -0.000750    0.000000    0.000000   -0.002027    0.000000    0.000000   -0.002777    0.000626
   2     0.000000    0.000000   -0.000758    0.000000    0.000000   -0.002029    0.000000    0.000000   -0.002787    0.000107
   3     0.000000    0.000000   -0.000759    0.000000    0.000000   -0.002029    0.000000    0.000000   -0.002788    0.000028
   4     0.000000    0.000000   -0.000759    0.000000    0.000000   -0.002029    0.000000    0.000000   -0.002788    0.000005
-------------------------------------------------------------------------------------------------------------------
 
  FINAL CASPT2 RESULT:
 
  Correlation energy /Case, /Symm, and sums:
 VJTU      0.00000000  0.00000000
 VJTIP     0.00000000  0.00000000
 VJTIM     0.00000000  0.00000000
 ATVX     -0.00075860 -0.00075860
 AIVX      0.00000000  0.00000000
 VJAIP     0.00000000  0.00000000
 VJAIM     0.00000000  0.00000000
 BVATP    -0.00183206 -0.00183206
 BVATM    -0.00019741 -0.00019741
 BJATP     0.00000000  0.00000000
 BJATM     0.00000000  0.00000000
 BJAIP     0.00000000  0.00000000
 BJAIM     0.00000000  0.00000000
 Summed:  -0.00278808 -0.00278808
 
      Reference energy:          -4.0001182565
      E2 (Non-variational):      -0.0027880816
      E2 (Variational):          -0.0027880905
      Total energy:              -4.0029063470
      Residual norm:              0.0000008526
      Reference weight:           0.99820
 
      Contributions to the CASPT2 correlation energy
      Active & Virtual Only:         -0.0027880816
      One Inactive Excited:           0.0000000000
      Two Inactive Excited:           0.0000000000
 
 
++ Denominators, etc.
----------------------------------------------------------------------------------------------------
 Report on small energy denominators, large coefficients, and large energy contributions.
CASE  SYMM ACTIVE-MIX  NON-ACTIVE INDICES          DENOMINATOR     RHS VALUE       COEFFICIENT     CONTRIBUTION
--
 
   (Skipping property calculation,
    use PROP keyword to activate)
--
 
  Total CASPT2 energies:
::    CASPT2 Root  1     Total energy:     -4.00290635
 
  A NEW JOBIPH FILE NAMED 'JOBMIX' IS PREPARED.
********************************************************************************
--- Stop Module: caspt2 at Mon Nov 18 14:49:07 2024 /rc=_RC_ALL_IS_WELL_ ---
*** files: xmldump
    saved to directory /home/grierjones/DDCASPT2/hydrogen_comps/H8_chain/H8_2.56

>>> EXPORT i = B

>>> EXPORT j = P

>>> IF (-FILE GMJ_e2_${i}_${j}.csv)
(Skipped)

>>> END FOREACH

>>> EXPORT j = M

>>> IF (-FILE GMJ_e2_${i}_${j}.csv)
(Skipped)

>>> END FOREACH

>>> END FOREACH

>>> EXPORT i = E

>>> EXPORT j = P

>>> IF (-FILE GMJ_e2_${i}_${j}.csv)
(Skipped)

>>> END FOREACH

>>> EXPORT j = M

>>> IF (-FILE GMJ_e2_${i}_${j}.csv)
(Skipped)

>>> END FOREACH

>>> END FOREACH

>>> EXPORT i = F

>>> EXPORT j = P

>>> IF (-FILE GMJ_e2_${i}_${j}.csv)

>>> COPY /tmp/H8_2.56/GMJ_RHS_F_P.csv /home/grierjones/DDCASPT2/hydrogen_comps/H8_chain/H8_2.56/GMJ_RHS_F_P.csv

>>> COPY /tmp/H8_2.56/GMJ_IVECW_F_P.csv /home/grierjones/DDCASPT2/hydrogen_comps/H8_chain/H8_2.56/GMJ_IVECW_F_P.csv

>>> COPY /tmp/H8_2.56/GMJ_IVECX_F_P.csv /home/grierjones/DDCASPT2/hydrogen_comps/H8_chain/H8_2.56/GMJ_IVECX_F_P.csv

>>> COPY /tmp/H8_2.56/GMJ_IVECC2_F_P.csv /home/grierjones/DDCASPT2/hydrogen_comps/H8_chain/H8_2.56/GMJ_IVECC2_F_P.csv

>>> COPY /tmp/H8_2.56/GMJ_e2_F_P.csv /home/grierjones/DDCASPT2/hydrogen_comps/H8_chain/H8_2.56/GMJ_e2_F_P.csv

>>> END FOREACH

>>> EXPORT j = M

>>> IF (-FILE GMJ_e2_${i}_${j}.csv)

>>> COPY /tmp/H8_2.56/GMJ_RHS_F_M.csv /home/grierjones/DDCASPT2/hydrogen_comps/H8_chain/H8_2.56/GMJ_RHS_F_M.csv

>>> COPY /tmp/H8_2.56/GMJ_IVECW_F_M.csv /home/grierjones/DDCASPT2/hydrogen_comps/H8_chain/H8_2.56/GMJ_IVECW_F_M.csv

>>> COPY /tmp/H8_2.56/GMJ_IVECX_F_M.csv /home/grierjones/DDCASPT2/hydrogen_comps/H8_chain/H8_2.56/GMJ_IVECX_F_M.csv

>>> COPY /tmp/H8_2.56/GMJ_IVECC2_F_M.csv /home/grierjones/DDCASPT2/hydrogen_comps/H8_chain/H8_2.56/GMJ_IVECC2_F_M.csv

>>> COPY /tmp/H8_2.56/GMJ_e2_F_M.csv /home/grierjones/DDCASPT2/hydrogen_comps/H8_chain/H8_2.56/GMJ_e2_F_M.csv

>>> END FOREACH

>>> END FOREACH

>>> EXPORT i = G

>>> EXPORT j = P

>>> IF (-FILE GMJ_e2_${i}_${j}.csv)
(Skipped)

>>> END FOREACH

>>> EXPORT j = M

>>> IF (-FILE GMJ_e2_${i}_${j}.csv)
(Skipped)

>>> END FOREACH

>>> END FOREACH

>>> EXPORT i = H

>>> EXPORT j = P

>>> IF (-FILE GMJ_e2_${i}_${j}.csv)
(Skipped)

>>> END FOREACH

>>> EXPORT j = M

>>> IF (-FILE GMJ_e2_${i}_${j}.csv)
(Skipped)

>>> END FOREACH

>>> END FOREACH

>>> EXPORT i = A

>>> IF (-FILE GMJ_e2_$i.csv)
(Skipped)

>>> END FOREACH

>>> EXPORT i = C

>>> IF (-FILE GMJ_e2_$i.csv)

>>> COPY /tmp/H8_2.56/GMJ_RHS_C.csv /home/grierjones/DDCASPT2/hydrogen_comps/H8_chain/H8_2.56/GMJ_RHS_C.csv

>>> COPY /tmp/H8_2.56/GMJ_IVECW_C.csv /home/grierjones/DDCASPT2/hydrogen_comps/H8_chain/H8_2.56/GMJ_IVECW_C.csv

>>> COPY /tmp/H8_2.56/GMJ_IVECX_C.csv /home/grierjones/DDCASPT2/hydrogen_comps/H8_chain/H8_2.56/GMJ_IVECX_C.csv

>>> COPY /tmp/H8_2.56/GMJ_IVECC2_C.csv /home/grierjones/DDCASPT2/hydrogen_comps/H8_chain/H8_2.56/GMJ_IVECC2_C.csv

>>> COPY /tmp/H8_2.56/GMJ_e2_C.csv /home/grierjones/DDCASPT2/hydrogen_comps/H8_chain/H8_2.56/GMJ_e2_C.csv

>>> END FOREACH

>>> EXPORT i = D

>>> IF (-FILE GMJ_e2_$i.csv)
(Skipped)

>>> END FOREACH

.########################.
.# Non-zero return code #.
.########################.

    Timing: Wall=2.53 User=1.77 System=0.74
***************************************
*** WorkDir at /tmp/H8_2.56 cleaned ***
***************************************
