[Molden Format]
[N_Atoms]
                     2
[Atoms] (AU)
O1          1      8           0.00000000      0.00000000      0.00000000
O2          2      8           0.00000000      0.00000000      5.29123315
[Charge] (Mulliken)
   1.00049927876298     
  0.999500721236982     
[GTO] (AU)
   1
   s  14
  1.053749500E+05  1.238600013E-04
  1.567924000E+04  5.120100053E-04
  3.534544700E+03  2.152910022E-03
  9.873651600E+02  8.528440089E-03
  3.159787500E+02  3.018049031E-02
  1.116542800E+02  9.099702095E-02
  4.269945100E+01  2.177936423E-01
  1.739559600E+01  3.686245738E-01
  7.438309000E+00  3.366707335E-01
  3.222862000E+00  9.657630101E-02
  1.253877000E+00  2.144520022E-03
  4.951550000E-01  1.194350012E-03
  1.916650000E-01  5.390200056E-04
  6.708300000E-02  2.103400022E-04
   s  14
  1.053749500E+05 -2.815000008E-05
  1.567924000E+04 -1.163000003E-04
  3.534544700E+03 -4.909200013E-04
  9.873651600E+02 -1.946160005E-03
  3.159787500E+02 -7.005300019E-03
  1.116542800E+02 -2.167814006E-02
  4.269945100E+01 -5.641213015E-02
  1.739559600E+01 -1.127053003E-01
  7.438309000E+00 -1.589119704E-01
  3.222862000E+00 -3.355083009E-02
  1.253877000E+00  3.531902810E-01
  4.951550000E-01  5.534199315E-01
  1.916650000E-01  2.301839106E-01
  6.708300000E-02  1.127267003E-02
   p   9
  2.000000000E+02  9.173000030E-04
  4.653336700E+01  7.377140024E-03
  1.462180900E+01  3.483515011E-02
  5.313064000E+00  1.144397004E-01
  2.102525000E+00  2.554966408E-01
  8.502230000E-01  3.722557412E-01
  3.375970000E-01  3.323314911E-01
  1.288920000E-01  1.400847905E-01
  4.511200000E-02  2.395784008E-02
 
   2
   s  14
  1.053749500E+05  1.238600013E-04
  1.567924000E+04  5.120100053E-04
  3.534544700E+03  2.152910022E-03
  9.873651600E+02  8.528440089E-03
  3.159787500E+02  3.018049031E-02
  1.116542800E+02  9.099702095E-02
  4.269945100E+01  2.177936423E-01
  1.739559600E+01  3.686245738E-01
  7.438309000E+00  3.366707335E-01
  3.222862000E+00  9.657630101E-02
  1.253877000E+00  2.144520022E-03
  4.951550000E-01  1.194350012E-03
  1.916650000E-01  5.390200056E-04
  6.708300000E-02  2.103400022E-04
   s  14
  1.053749500E+05 -2.815000008E-05
  1.567924000E+04 -1.163000003E-04
  3.534544700E+03 -4.909200013E-04
  9.873651600E+02 -1.946160005E-03
  3.159787500E+02 -7.005300019E-03
  1.116542800E+02 -2.167814006E-02
  4.269945100E+01 -5.641213015E-02
  1.739559600E+01 -1.127053003E-01
  7.438309000E+00 -1.589119704E-01
  3.222862000E+00 -3.355083009E-02
  1.253877000E+00  3.531902810E-01
  4.951550000E-01  5.534199315E-01
  1.916650000E-01  2.301839106E-01
  6.708300000E-02  1.127267003E-02
   p   9
  2.000000000E+02  9.173000030E-04
  4.653336700E+01  7.377140024E-03
  1.462180900E+01  3.483515011E-02
  5.313064000E+00  1.144397004E-01
  2.102525000E+00  2.554966408E-01
  8.502230000E-01  3.722557412E-01
  3.375970000E-01  3.323314911E-01
  1.288920000E-01  1.400847905E-01
  4.511200000E-02  2.395784008E-02
 
[MO]
Sym=     1a  
Ene=   -22.0100
Spin= Alpha
Occup=    2.00000
   1         0.01002082
   2        -0.00016272
   3         0.00000000
   4         0.00000000
   5         0.00004039
   6         0.99994769
   7        -0.00199040
   8         0.00000000
   9         0.00000000
  10        -0.00011702
Sym=     2a  
Ene=   -22.0070
Spin= Alpha
Occup=    2.00000
   1        -0.99982919
   2         0.01542455
   3        -0.00000000
   4        -0.00000000
   5        -0.00050200
   6         0.01002314
   7        -0.00013541
   8        -0.00000000
   9        -0.00000000
  10         0.00065346
Sym=     3a  
Ene=    -2.1536
Spin= Alpha
Occup=    2.00000
   1         0.00036390
   2         0.00037245
   3        -0.00000000
   4        -0.00000000
   5        -0.00911955
   6        -0.00196396
   7        -0.99926436
   8         0.00000000
   9         0.00000000
  10         0.02588251
Sym=     4a  
Ene=    -1.4835
Spin= Alpha
Occup=    2.00000
   1         0.00000000
   2        -0.00000000
   3         0.84577262
   4        -0.53368835
   5        -0.00000000
   6         0.00000000
   7         0.00000000
   8        -0.00476031
   9         0.00300371
  10         0.00000000
Sym=     5a  
Ene=    -1.4833
Spin= Alpha
Occup=    2.00000
   1         0.00000000
   2         0.00000000
   3        -0.00294772
   4        -0.00467157
   5        -0.00000001
   6         0.00000000
   7         0.00000001
   8         0.53368776
   9         0.84577163
  10         0.00000021
Sym=     6a  
Ene=    -1.3036
Spin= Alpha
Occup=    2.00000
   1         0.00161942
   2        -0.03227111
   3        -0.00000002
   4        -0.00000003
   5        -0.68701272
   6         0.00186142
   7         0.05203963
   8        -0.00000008
   9        -0.00000013
  10         0.68598083
Sym=     7a  
Ene=    -2.1444
Spin= Alpha
Occup=    1.97509
   1        -0.01554519
   2        -1.00002590
   3         0.00000000
   4         0.00000000
   5         0.03160009
   6         0.00024477
   7         0.00964376
   8         0.00000000
   9         0.00000000
  10        -0.04838918
Sym=     8a  
Ene=    -0.0000
Spin= Alpha
Occup=    0.02491
   1         0.00000000
   2        -0.00000000
   3        -0.53371202
   4        -0.84581013
   5         0.00000006
   6        -0.00000000
   7        -0.00000000
   8         0.00588277
   9         0.00932284
  10         0.00000001
Sym=     9a  
Ene=    -1.0751
Spin= Alpha
Occup=    0.00000
   1         0.00173051
   2         0.01663487
   3         0.00000002
   4         0.00000004
   5         0.72924881
   6        -0.00172993
   7        -0.01654250
   8        -0.00000008
   9        -0.00000012
  10         0.72889693
Sym=    10a  
Ene=    -0.8828
Spin= Alpha
Occup=    0.00000
   1        -0.00000000
   2         0.00000000
   3        -0.00923410
   4         0.00582678
   5         0.00000000
   6        -0.00000000
   7         0.00000000
   8         0.84580962
   9        -0.53371173
  10         0.00000000
