[Molden Format]
[N_Atoms]
                     2
[Atoms] (AU)
O1          1      8           0.00000000      0.00000000      0.00000000
O2          2      8           0.00000000      0.00000000      5.29123315
[Charge] (Mulliken)
  4.775068061729115E-003
 -4.775068061764642E-003
[GTO] (AU)
   1
   s  14
  1.053749500E+05  1.238600013E-04
  1.567924000E+04  5.120100053E-04
  3.534544700E+03  2.152910022E-03
  9.873651600E+02  8.528440089E-03
  3.159787500E+02  3.018049031E-02
  1.116542800E+02  9.099702095E-02
  4.269945100E+01  2.177936423E-01
  1.739559600E+01  3.686245738E-01
  7.438309000E+00  3.366707335E-01
  3.222862000E+00  9.657630101E-02
  1.253877000E+00  2.144520022E-03
  4.951550000E-01  1.194350012E-03
  1.916650000E-01  5.390200056E-04
  6.708300000E-02  2.103400022E-04
   s  14
  1.053749500E+05 -2.815000008E-05
  1.567924000E+04 -1.163000003E-04
  3.534544700E+03 -4.909200013E-04
  9.873651600E+02 -1.946160005E-03
  3.159787500E+02 -7.005300019E-03
  1.116542800E+02 -2.167814006E-02
  4.269945100E+01 -5.641213015E-02
  1.739559600E+01 -1.127053003E-01
  7.438309000E+00 -1.589119704E-01
  3.222862000E+00 -3.355083009E-02
  1.253877000E+00  3.531902810E-01
  4.951550000E-01  5.534199315E-01
  1.916650000E-01  2.301839106E-01
  6.708300000E-02  1.127267003E-02
   p   9
  2.000000000E+02  9.173000030E-04
  4.653336700E+01  7.377140024E-03
  1.462180900E+01  3.483515011E-02
  5.313064000E+00  1.144397004E-01
  2.102525000E+00  2.554966408E-01
  8.502230000E-01  3.722557412E-01
  3.375970000E-01  3.323314911E-01
  1.288920000E-01  1.400847905E-01
  4.511200000E-02  2.395784008E-02
 
   2
   s  14
  1.053749500E+05  1.238600013E-04
  1.567924000E+04  5.120100053E-04
  3.534544700E+03  2.152910022E-03
  9.873651600E+02  8.528440089E-03
  3.159787500E+02  3.018049031E-02
  1.116542800E+02  9.099702095E-02
  4.269945100E+01  2.177936423E-01
  1.739559600E+01  3.686245738E-01
  7.438309000E+00  3.366707335E-01
  3.222862000E+00  9.657630101E-02
  1.253877000E+00  2.144520022E-03
  4.951550000E-01  1.194350012E-03
  1.916650000E-01  5.390200056E-04
  6.708300000E-02  2.103400022E-04
   s  14
  1.053749500E+05 -2.815000008E-05
  1.567924000E+04 -1.163000003E-04
  3.534544700E+03 -4.909200013E-04
  9.873651600E+02 -1.946160005E-03
  3.159787500E+02 -7.005300019E-03
  1.116542800E+02 -2.167814006E-02
  4.269945100E+01 -5.641213015E-02
  1.739559600E+01 -1.127053003E-01
  7.438309000E+00 -1.589119704E-01
  3.222862000E+00 -3.355083009E-02
  1.253877000E+00  3.531902810E-01
  4.951550000E-01  5.534199315E-01
  1.916650000E-01  2.301839106E-01
  6.708300000E-02  1.127267003E-02
   p   9
  2.000000000E+02  9.173000030E-04
  4.653336700E+01  7.377140024E-03
  1.462180900E+01  3.483515011E-02
  5.313064000E+00  1.144397004E-01
  2.102525000E+00  2.554966408E-01
  8.502230000E-01  3.722557412E-01
  3.375970000E-01  3.323314911E-01
  1.288920000E-01  1.400847905E-01
  4.511200000E-02  2.395784008E-02
 
[MO]
Sym=     1a  
Ene=   -20.7390
Spin= Alpha
Occup=    2.00000
   1        -1.00000007
   2         0.00029962
   3         0.00000000
   4         0.00000000
   5        -0.00002615
   6        -0.00000105
   7         0.00003615
   8        -0.00000000
   9        -0.00000000
  10        -0.00004377
Sym=     2a  
Ene=   -20.7150
Spin= Alpha
Occup=    2.00000
   1        -0.00000618
   2        -0.00003884
   3        -0.00000000
   4         0.00000000
   5        -0.00005704
   6         1.00000011
   7        -0.00028709
   8         0.00000000
   9         0.00000000
  10        -0.00001350
Sym=     3a  
Ene=    -1.2798
Spin= Alpha
Occup=    2.00000
   1        -0.00023242
   2        -0.97803257
   3        -0.00000000
   4        -0.00000000
   5        -0.00724320
   6         0.00024758
   7        -0.19647233
   8         0.00000000
   9         0.00000000
  10         0.00175234
Sym=     4a  
Ene=    -1.2579
Spin= Alpha
Occup=    2.00000
   1        -0.00034885
   2        -0.20830789
   3        -0.00000000
   4        -0.00000000
   5         0.00474010
   6         0.00033381
   7         0.98032425
   8         0.00000000
   9         0.00000000
  10         0.00201413
Sym=     5a  
Ene=    -0.6034
Spin= Alpha
Occup=    2.00000
   1         0.00007884
   2         0.00689154
   3         0.00000000
   4         0.00000000
   5        -0.99867146
   6         0.00240703
   7         0.04404782
   8         0.00000000
   9         0.00000000
  10         0.02803465
Sym=     6a  
Ene=    -0.5824
Spin= Alpha
Occup=    2.00000
   1         0.00000000
   2         0.00000000
   3         0.00459025
   4         0.00009263
   5         0.00000000
   6        -0.00000000
   7        -0.00000000
   8         0.99970998
   9         0.02017351
  10         0.00000000
Sym=     7a  
Ene=    -0.5824
Spin= Alpha
Occup=    2.00000
   1         0.00000000
   2         0.00000000
   3        -0.00009263
   4         0.00459025
   5         0.00000000
   6        -0.00000000
   7        -0.00000000
   8        -0.02017351
   9         0.99970998
  10         0.00000000
Sym=     8a  
Ene=    -0.3013
Spin= Alpha
Occup=    1.00000
   1        -0.00000000
   2         0.00000000
   3         0.22068975
   4        -0.97547361
   5        -0.00000000
   6         0.00000000
   7         0.00000000
   8        -0.00466422
   9         0.02061639
  10         0.00000000
Sym=     9a  
Ene=     0.0000
Spin= Alpha
Occup=    1.00000
   1         0.00000000
   2         0.00000000
   3        -0.97547361
   4        -0.22068975
   5        -0.00000000
   6         0.00000000
   7         0.00000000
   8         0.02061639
   9         0.00466422
  10         0.00000000
Sym=    10a  
Ene=     0.0209
Spin= Alpha
Occup=    0.00000
   1         0.00242955
   2         0.04025611
   3         0.00000000
   4         0.00000000
   5         0.08632883
   6        -0.00021184
   7        -0.00554335
   8        -0.00000000
   9        -0.00000000
  10         1.00203753
