[Molden Format]
[N_Atoms]
                     2
[Atoms] (AU)
O1          1      8           0.00000000      0.00000000      0.00000000
O2          2      8           0.00000000      0.00000000      5.29123315
[Charge] (Mulliken)
 -5.338627317996725E-010
  5.338502973017967E-010
[GTO] (AU)
   1
   s  14
  1.053749500E+05  1.238600013E-04
  1.567924000E+04  5.120100053E-04
  3.534544700E+03  2.152910022E-03
  9.873651600E+02  8.528440089E-03
  3.159787500E+02  3.018049031E-02
  1.116542800E+02  9.099702095E-02
  4.269945100E+01  2.177936423E-01
  1.739559600E+01  3.686245738E-01
  7.438309000E+00  3.366707335E-01
  3.222862000E+00  9.657630101E-02
  1.253877000E+00  2.144520022E-03
  4.951550000E-01  1.194350012E-03
  1.916650000E-01  5.390200056E-04
  6.708300000E-02  2.103400022E-04
   s  14
  1.053749500E+05 -2.815000008E-05
  1.567924000E+04 -1.163000003E-04
  3.534544700E+03 -4.909200013E-04
  9.873651600E+02 -1.946160005E-03
  3.159787500E+02 -7.005300019E-03
  1.116542800E+02 -2.167814006E-02
  4.269945100E+01 -5.641213015E-02
  1.739559600E+01 -1.127053003E-01
  7.438309000E+00 -1.589119704E-01
  3.222862000E+00 -3.355083009E-02
  1.253877000E+00  3.531902810E-01
  4.951550000E-01  5.534199315E-01
  1.916650000E-01  2.301839106E-01
  6.708300000E-02  1.127267003E-02
   p   9
  2.000000000E+02  9.173000030E-04
  4.653336700E+01  7.377140024E-03
  1.462180900E+01  3.483515011E-02
  5.313064000E+00  1.144397004E-01
  2.102525000E+00  2.554966408E-01
  8.502230000E-01  3.722557412E-01
  3.375970000E-01  3.323314911E-01
  1.288920000E-01  1.400847905E-01
  4.511200000E-02  2.395784008E-02
 
   2
   s  14
  1.053749500E+05  1.238600013E-04
  1.567924000E+04  5.120100053E-04
  3.534544700E+03  2.152910022E-03
  9.873651600E+02  8.528440089E-03
  3.159787500E+02  3.018049031E-02
  1.116542800E+02  9.099702095E-02
  4.269945100E+01  2.177936423E-01
  1.739559600E+01  3.686245738E-01
  7.438309000E+00  3.366707335E-01
  3.222862000E+00  9.657630101E-02
  1.253877000E+00  2.144520022E-03
  4.951550000E-01  1.194350012E-03
  1.916650000E-01  5.390200056E-04
  6.708300000E-02  2.103400022E-04
   s  14
  1.053749500E+05 -2.815000008E-05
  1.567924000E+04 -1.163000003E-04
  3.534544700E+03 -4.909200013E-04
  9.873651600E+02 -1.946160005E-03
  3.159787500E+02 -7.005300019E-03
  1.116542800E+02 -2.167814006E-02
  4.269945100E+01 -5.641213015E-02
  1.739559600E+01 -1.127053003E-01
  7.438309000E+00 -1.589119704E-01
  3.222862000E+00 -3.355083009E-02
  1.253877000E+00  3.531902810E-01
  4.951550000E-01  5.534199315E-01
  1.916650000E-01  2.301839106E-01
  6.708300000E-02  1.127267003E-02
   p   9
  2.000000000E+02  9.173000030E-04
  4.653336700E+01  7.377140024E-03
  1.462180900E+01  3.483515011E-02
  5.313064000E+00  1.144397004E-01
  2.102525000E+00  2.554966408E-01
  8.502230000E-01  3.722557412E-01
  3.375970000E-01  3.323314911E-01
  1.288920000E-01  1.400847905E-01
  4.511200000E-02  2.395784008E-02
 
[MO]
Sym=     1a  
Ene=   -20.7630
Spin= Alpha
Occup=    1.00000
   1         0.70710527
   2        -0.00029149
   3         0.00000000
   4        -0.00000000
   5         0.00008797
   6         0.70710424
   7        -0.00029149
   8        -0.00000000
   9         0.00000000
  10        -0.00008797
Sym=     1a  
Ene=   -20.7630
Spin= Beta
Occup=    1.00000
   1         0.70710527
   2        -0.00029149
   3         0.00000000
   4        -0.00000000
   5         0.00008797
   6         0.70710424
   7        -0.00029149
   8        -0.00000000
   9         0.00000000
  10        -0.00008797
Sym=     2a  
Ene=   -20.7630
Spin= Alpha
Occup=    1.00000
   1        -0.70710818
   2         0.00026349
   3         0.00000000
   4        -0.00000000
   5        -0.00008749
   6         0.70710921
   7        -0.00026349
   8        -0.00000000
   9         0.00000000
  10        -0.00008749
Sym=     2a  
Ene=   -20.7630
Spin= Beta
Occup=    1.00000
   1        -0.70710818
   2         0.00026349
   3         0.00000000
   4        -0.00000000
   5        -0.00008749
   6         0.70710921
   7        -0.00026349
   8        -0.00000000
   9         0.00000000
  10        -0.00008749
Sym=     3a  
Ene=    -1.2925
Spin= Alpha
Occup=    1.00000
   1         0.00003031
   2         0.70254232
   3        -0.00000000
   4         0.00000000
   5         0.00922809
   6         0.00003031
   7         0.70254232
   8        -0.00000000
   9        -0.00000000
  10        -0.00922809
Sym=     3a  
Ene=    -1.2925
Spin= Beta
Occup=    1.00000
   1         0.00003031
   2         0.70254232
   3        -0.00000000
   4         0.00000000
   5         0.00922809
   6         0.00003031
   7         0.70254232
   8        -0.00000000
   9        -0.00000000
  10        -0.00922809
Sym=     4a  
Ene=    -1.2753
Spin= Alpha
Occup=    1.00000
   1        -0.00046951
   2        -0.71063575
   3         0.00000000
   4         0.00000000
   5         0.01445820
   6         0.00046951
   7         0.71063576
   8         0.00000000
   9         0.00000000
  10         0.01445820
Sym=     4a  
Ene=    -1.2753
Spin= Beta
Occup=    1.00000
   1        -0.00046951
   2        -0.71063575
   3         0.00000000
   4         0.00000000
   5         0.01445820
   6         0.00046951
   7         0.71063576
   8         0.00000000
   9         0.00000000
  10         0.01445820
Sym=     5a  
Ene=    -0.6108
Spin= Alpha
Occup=    1.00000
   1        -0.00000000
   2        -0.00000000
   3        -0.47675489
   4         0.51436080
   5        -0.00000000
   6         0.00000000
   7        -0.00000000
   8        -0.47675489
   9         0.51436079
  10         0.00000000
Sym=     5a  
Ene=    -0.6108
Spin= Beta
Occup=    1.00000
   1        -0.00000000
   2        -0.00000000
   3        -0.47675489
   4         0.51436080
   5        -0.00000000
   6         0.00000000
   7        -0.00000000
   8        -0.47675489
   9         0.51436079
  10         0.00000000
Sym=     6a  
Ene=    -0.6031
Spin= Alpha
Occup=    1.00000
   1        -0.00000000
   2         0.00000000
   3         0.48470903
   4        -0.52294235
   5        -0.00000000
   6        -0.00000000
   7         0.00000000
   8        -0.48470904
   9         0.52294236
  10        -0.00000000
Sym=     6a  
Ene=    -0.6031
Spin= Beta
Occup=    1.00000
   1        -0.00000000
   2         0.00000000
   3         0.48470903
   4        -0.52294235
   5        -0.00000000
   6        -0.00000000
   7         0.00000000
   8        -0.48470904
   9         0.52294236
  10        -0.00000000
Sym=     7a  
Ene=    -0.4264
Spin= Alpha
Occup=    1.00000
   1         0.00177891
   2         0.03538310
   3        -0.00000000
   4        -0.00000000
   5        -0.68782184
   6         0.00177891
   7         0.03538310
   8         0.00000000
   9         0.00000000
  10         0.68782184
Sym=     7a  
Ene=    -0.4264
Spin= Beta
Occup=    1.00000
   1         0.00177891
   2         0.03538310
   3        -0.00000000
   4        -0.00000000
   5        -0.68782184
   6         0.00177891
   7         0.03538310
   8         0.00000000
   9         0.00000000
  10         0.68782184
Sym=     8a  
Ene=    -0.4027
Spin= Alpha
Occup=    1.00000
   1         0.00000000
   2         0.00000000
   3         0.51436079
   4         0.47675489
   5         0.00000000
   6        -0.00000000
   7        -0.00000000
   8         0.51436079
   9         0.47675489
  10         0.00000000
Sym=     8a  
Ene=    -0.4027
Spin= Beta
Occup=    1.00000
   1         0.00000000
   2         0.00000000
   3         0.51436079
   4         0.47675489
   5         0.00000000
   6        -0.00000000
   7        -0.00000000
   8         0.51436079
   9         0.47675489
  10         0.00000000
Sym=     9a  
Ene=    -0.2082
Spin= Alpha
Occup=    0.00000
   1        -0.00000000
   2        -0.00000000
   3        -0.52294235
   4        -0.48470903
   5         0.00000000
   6        -0.00000000
   7        -0.00000000
   8         0.52294235
   9         0.48470903
  10        -0.00000000
Sym=     9a  
Ene=    -0.2082
Spin= Beta
Occup=    0.00000
   1        -0.00000000
   2        -0.00000000
   3        -0.52294235
   4        -0.48470903
   5         0.00000000
   6        -0.00000000
   7        -0.00000000
   8         0.52294235
   9         0.48470903
  10        -0.00000000
Sym=    10a  
Ene=    -0.1781
Spin= Alpha
Occup=    0.00000
   1         0.00173272
   2         0.04227320
   3        -0.00000000
   4        -0.00000000
   5         0.72902619
   6        -0.00173272
   7        -0.04227320
   8        -0.00000000
   9        -0.00000000
  10         0.72902619
Sym=    10a  
Ene=    -0.1781
Spin= Beta
Occup=    0.00000
   1         0.00173272
   2         0.04227320
   3        -0.00000000
   4        -0.00000000
   5         0.72902619
   6        -0.00173272
   7        -0.04227320
   8        -0.00000000
   9        -0.00000000
  10         0.72902619
