[Molden Format]
[N_Atoms]
                     2
[Atoms] (AU)
C1          1      6           0.00000000      0.00000000      0.00000000
N2          2      7           0.00000000      0.00000000      2.26767135
[Charge] (Mulliken)
  0.161336061251526     
 -0.161336061251545     
[GTO] (AU)
   1
   s  14
  5.055750100E+04  1.128874000E-04
  7.524785600E+03  5.295373000E-04
  1.694327600E+03  2.450038300E-03
  4.728227900E+02  1.005398470E-02
  1.517107500E+02  3.545398060E-02
  5.391874600E+01  1.044071086E-01
  2.065931100E+01  2.412894918E-01
  8.383976000E+00  3.834225483E-01
  3.577015000E+00  3.078514393E-01
  1.547118000E+00  6.872442990E-02
  6.130130000E-01  2.224445000E-04
  2.460680000E-01  1.976748900E-03
  9.908700000E-02  2.057859400E-03
  3.468000000E-02  4.182020000E-04
   s  14
  5.055750100E+04 -2.507420000E-05
  7.524785600E+03 -1.175945000E-04
  1.694327600E+03 -5.456275000E-04
  4.728227900E+02 -2.245077100E-03
  1.517107500E+02 -8.043471800E-03
  5.391874600E+01 -2.442588710E-02
  2.065931100E+01 -6.136791180E-02
  8.383976000E+00 -1.177767835E-01
  3.577015000E+00 -1.550487783E-01
  1.547118000E+00 -1.933316860E-02
  6.130130000E-01  3.996930678E-01
  2.460680000E-01  5.589420949E-01
  9.908700000E-02  1.711195023E-01
  3.468000000E-02  7.456244600E-03
   p   9
  8.333315500E+01  1.344656000E-03
  1.955761100E+01  1.023555500E-02
  6.080365000E+00  4.520067100E-02
  2.179317000E+00  1.410756198E-01
  8.651500000E-01  3.047388085E-01
  3.619440000E-01  3.995281011E-01
  1.547400000E-01  2.719163432E-01
  6.542900000E-02  5.857669330E-02
  2.290000000E-02 -1.263813000E-04
 
   2
   s  14
  7.476171500E+04  1.182599996E-04
  1.112365400E+04  5.172899983E-04
  2.512685700E+03  2.266659992E-03
  7.037772900E+02  9.145289970E-03
  2.254787900E+02  3.239342989E-02
  7.961581000E+01  9.770792967E-02
  3.023728300E+01  2.317036792E-01
  1.226362200E+01  3.768898887E-01
  5.265086000E+00  3.177420689E-01
  2.333471000E+00  8.211308973E-02
  9.018560000E-01  3.312089989E-03
  3.583360000E-01  3.720819988E-03
  1.410930000E-01  3.165419989E-03
  4.938300000E-02  4.595799985E-04
   s  14
  7.476171500E+04 -2.707000010E-05
  1.112365400E+04 -1.183700004E-04
  2.512685700E+03 -5.203800020E-04
  7.037772900E+02 -2.102930008E-03
  2.254787900E+02 -7.568200028E-03
  7.961581000E+01 -2.346767009E-02
  3.023728300E+01 -6.042901023E-02
  1.226362200E+01 -1.170549104E-01
  5.265086000E+00 -1.555321506E-01
  2.333471000E+00 -2.468935009E-02
  9.018560000E-01  3.625054514E-01
  3.583360000E-01  5.550845021E-01
  1.410930000E-01  2.148376908E-01
  4.938300000E-02  8.983850034E-03
   p   9
  1.266665700E+02  1.233630000E-03
  2.983738900E+01  9.493409996E-03
  9.394038000E+00  4.293961998E-02
  3.405104000E+00  1.362925399E-01
  1.350000000E+00  2.921362499E-01
  5.576960000E-01  3.887887598E-01
  2.324490000E-01  2.946801399E-01
  9.426400000E-02  8.012875997E-02
  3.299200000E-02  5.405199998E-04
 
[MO]
Sym=     1a  
Ene=   -15.6620
Spin= Alpha
Occup=    1.00000
   1        -0.00035529
   2        -0.00227715
   3         0.00000000
   4        -0.00000000
   5        -0.00096375
   6         1.00019784
   7        -0.00502176
   8         0.00000000
   9         0.00000000
  10        -0.00343269
Sym=     1a  
Ene=   -15.6970
Spin= Beta
Occup=    1.00000
   1        -0.00067559
   2        -0.00340656
   3         0.00000000
   4         0.00000000
   5        -0.00197041
   6         1.00036939
   7        -0.00182029
   8         0.00000000
   9         0.00000000
  10        -0.00423724
Sym=     2a  
Ene=   -11.4650
Spin= Alpha
Occup=    1.00000
   1         1.00003390
   2         0.00086704
   3        -0.00000000
   4        -0.00000000
   5         0.00161595
   6        -0.00086885
   7        -0.00131223
   8        -0.00000000
   9        -0.00000000
  10        -0.00041433
Sym=     2a  
Ene=   -11.4040
Spin= Beta
Occup=    1.00000
   1         0.99995871
   2        -0.00322972
   3        -0.00000000
   4         0.00000000
   5         0.00172530
   6        -0.00059683
   7        -0.00046611
   8        -0.00000000
   9         0.00000000
  10        -0.00061955
Sym=     3a  
Ene=    -1.2586
Spin= Alpha
Occup=    1.00000
   1        -0.05495179
   2         0.46802399
   3         0.00000000
   4         0.00000000
   5         0.20344709
   6        -0.04155354
   7         0.49826950
   8         0.00000000
   9         0.00000000
  10        -0.25418393
Sym=     3a  
Ene=    -1.2880
Spin= Beta
Occup=    1.00000
   1        -0.06230814
   2         0.24645841
   3         0.00000000
   4         0.00000000
   5         0.20467548
   6        -0.03019665
   7         0.69695625
   8         0.00000000
   9         0.00000000
  10        -0.23160762
Sym=     4a  
Ene=    -0.7621
Spin= Alpha
Occup=    1.00000
   1        -0.02043652
   2        -0.75544990
   3         0.00000000
   4         0.00000000
   5         0.51299060
   6        -0.00381106
   7         0.46851968
   8         0.00000000
   9         0.00000000
  10         0.06799360
Sym=     4a  
Ene=    -0.6266
Spin= Beta
Occup=    1.00000
   1         0.02405214
   2        -0.42223824
   3         0.00000000
   4        -0.00000000
   5        -0.17485579
   6         0.04400716
   7         0.68951431
   8         0.00000000
   9        -0.00000000
  10         0.64551282
Sym=     5a  
Ene=    -0.5605
Spin= Alpha
Occup=    1.00000
   1         0.03599223
   2         0.11655562
   3        -0.00000000
   4         0.00000000
   5        -0.48981316
   6         0.04501864
   7         0.62210444
   8        -0.00000000
   9         0.00000000
  10         0.70686492
Sym=     5a  
Ene=    -0.5707
Spin= Beta
Occup=    1.00000
   1         0.00000000
   2        -0.00000000
   3        -0.02187625
   4         0.33854503
   5        -0.00000000
   6         0.00000000
   7         0.00000000
   8        -0.05401551
   9         0.83591481
  10         0.00000000
Sym=     6a  
Ene=    -0.5558
Spin= Alpha
Occup=    1.00000
   1        -0.00000000
   2        -0.00000000
   3         0.03558119
   4         0.81340246
   5         0.00000000
   6        -0.00000000
   7        -0.00000000
   8         0.01637503
   9         0.37434085
  10        -0.00000000
Sym=     6a  
Ene=    -0.5707
Spin= Beta
Occup=    1.00000
   1         0.00000000
   2        -0.00000000
   3         0.33854503
   4         0.02187625
   5        -0.00000000
   6         0.00000000
   7        -0.00000000
   8         0.83591481
   9         0.05401551
  10         0.00000000
Sym=     7a  
Ene=    -0.5558
Spin= Alpha
Occup=    1.00000
   1         0.00000000
   2         0.00000000
   3         0.81340246
   4        -0.03558119
   5        -0.00000000
   6         0.00000000
   7         0.00000000
   8         0.37434085
   9        -0.01637503
  10         0.00000000
Sym=     7a  
Ene=     0.0123
Spin= Beta
Occup=    0.00000
   1         0.04491766
   2         0.81765116
   3        -0.00000000
   4         0.00000000
   5        -0.58686442
   6         0.01115642
   7        -0.04297151
   8         0.00000000
   9         0.00000000
  10         0.39004871
Sym=     8a  
Ene=     0.2203
Spin= Alpha
Occup=    0.00000
   1         0.00000000
   2         0.00000000
   3        -0.67248347
   4        -0.02959633
   5         0.00000000
   6        -0.00000000
   7         0.00000000
   8         0.98676964
   9         0.04342821
  10         0.00000000
Sym=     8a  
Ene=     0.2344
Spin= Beta
Occup=    0.00000
   1        -0.00000000
   2        -0.00000000
   3        -0.79049765
   4        -0.61320608
   5         0.00000000
   6        -0.00000000
   7        -0.00000000
   8         0.50859930
   9         0.39453145
  10        -0.00000000
Sym=     9a  
Ene=     0.2203
Spin= Alpha
Occup=    0.00000
   1        -0.00000000
   2        -0.00000000
   3         0.02959633
   4        -0.67248347
   5         0.00000000
   6        -0.00000000
   7        -0.00000000
   8        -0.04342821
   9         0.98676964
  10        -0.00000000
Sym=     9a  
Ene=     0.2344
Spin= Beta
Occup=    0.00000
   1         0.00000000
   2         0.00000000
   3         0.61320608
   4        -0.79049765
   5        -0.00000000
   6        -0.00000000
   7         0.00000000
   8        -0.39453145
   9         0.50859930
  10         0.00000000
Sym=    10a  
Ene=     0.8765
Spin= Alpha
Occup=    0.00000
   1         0.17759650
   2         1.16284974
   3         0.00000000
   4         0.00000000
   5         1.16877272
   6        -0.17765649
   7        -1.22415052
   8        -0.00000000
   9         0.00000000
  10         1.06976903
Sym=    10a  
Ene=     0.9237
Spin= Beta
Occup=    0.00000
   1         0.17304611
   2         1.11712101
   3        -0.00000000
   4         0.00000000
   5         1.22213621
   6        -0.17892459
   7        -1.17912700
   8         0.00000000
   9         0.00000000
  10         1.04442478
