****************************************************************************************************
*** WorkDir at /lustre/isaac/scratch/gjones39/scpfiles/ANO-RCC-VTZP/ozone_141.50/3252801 cleaned ***
****************************************************************************************************
   This run of MOLCAS is using the pymolcas driver

                             OPE
                             OPE          NMOL  CASOP  ENMOLC A   SO
                 OPE        NMOLC        AS  OP EN  MO LC     AS  OP
                OPENM       OL CA        SO  PE NM  OL CA     SOP EN
                OP EN      MO   LC       AS  OP ENMOL  CASO   PENMOL
                OP  EN     MO   LC       AS  OP EN     MO     LC ASO
               OP   E  NMOL  C  AS       OP  EN MO     LC     AS  OP
               OP  E   NMO   LC AS        OPEN  MO     LCASOP EN   M
               O  PEN   MO  LCA  SO
            OPE   NMO   L   CAS    OP
        OPENMOL  CASOP     ENMOL   CASOPE
     OPENMOLCA   SOPENMOLCASOPEN   MOLCASOPE
    OPENMOLCAS   OP           EN   MOL    CAS
    OPENMOLCAS       OP  ENM        O     LCA
    OPENMOLCAS    OPEN  MOLCASO     P  E  NMO
    OPENMOLCAS     OP               E  N  MOL
    OPENMOLCA   SO           PENM   O  L  CAS    OPEN    MO    LCAS
    OPENMOLCA   SOP           ENM   O  L  CAS   OP  EN  MOLC  AS   O
    OPENMOLCA   SOPE           NM      O  LCA   S      OP  EN MO
    OPENMOLC                AS         O  PEN   M      OL  CA  SOPE
    OPENMO        LCASOPE  NMOL        C  ASO   P      ENMOLC     AS
    OPE     NMO      LCA  SO     P     E   NM   OL  CA SO  PE N   MO
          OPENMOLCA            SOPE   NMO        LCAS  O    P  ENMO
     OPENMOLCASOPENMOLCASOPENMOLCASOPENMOLCA
        OPENMOLCASOPENMOLCASOPENMOLCASOPE
            OPENMOLCASOPENMOLCASOPENM
               OPENMOLCASOPENMOLCA        version: f37762c57-dirty
                   OPENMOLCASO
                       OPE                tag:

 OpenMolcas is free software; you can redistribute it and/or modify it
 under the terms of the GNU Lesser General Public License version 2.1.
 OpenMolcas is distributed in the hope that it will be useful, but it
 is provided "as is" and without any express or implied warranties.
 For more details see the full text of the license in the file
 LICENSE or in <http://www.gnu.org/licenses/>.

                 Copyright (C) The OpenMolcas Authors
           For the author list and the recommended citation,
                   consult the file CONTRIBUTORS.md

           *************************************************
           * pymolcas version py2.05                       *
           *   build c53fbf9a0f911de0c7c16766b0715e61      *
           *   (after the EMIL interpreter by V. Veryazov) *
           *************************************************

configuration info
------------------
C Compiler ID: GNU
C flags: -std=gnu99
Fortran Compiler ID: Intel
Fortran flags: -fpp -i8 -r8 -heap-arrays
Definitions: _MOLCAS_;_I8_;_LINUX_
Parallel: OFF (GA=OFF)


   ------------------------------------------------------------------------------------------------
  |
  |              Project: ozone_141.50
  |       Submitted from: /lustre/isaac/scratch/gjones39/scpfiles/ANO-RCC-VTZP/ozone_141.50
  |         Scratch area: /lustre/isaac/scratch/gjones39/scpfiles/ANO-RCC-VTZP/ozone_141.50/3252801
  |      Save outputs to: /lustre/isaac/scratch/gjones39/scpfiles/ANO-RCC-VTZP/ozone_141.50
  |               Molcas: /lustre/isaac/proj/UTK0022/Grier2025/Test/build
  |
  | Scratch area is empty
  |
  |       MOLCAS_DRIVER = /nfs/home/gjones39/bin/pymolcas
  | MOLCAS_KEEP_WORKDIR = NO
  |      MOLCAS_MAXITER = 100
  |  MOLCAS_NEW_WORKDIR = YES
  |       MOLCAS_NPROCS = 1
  |       MOLCAS_SOURCE = /lustre/isaac/proj/UTK0022/Grier2025/Test
  |    MOLCAS_STRUCTURE = 0
  |
   ------------------------------------------------------------------------------------------------

++ ---------   Input file   ---------

&GATEWAY
coord=ozone_141.50.xyz
Basis = ANO-RCC-VTZP
Group = nosymm
End of Input

&SEWARD
End of Input

&SCF
FileOrb
/lustre/isaac/scratch/gjones39/scpfiles/ANO-RCC-VTZP/ozone_141.25/ozone_141.25.ScfOrb

>>> COPY $WorkDir/ozone_141.50.scf.h5 $CurrDir/

&RASSCF
Title= RASSCF
ITERation
200 100
CIMX
200
SDAV
500
FileOrb
/lustre/isaac/scratch/gjones39/scpfiles/ANO-RCC-VTZP/ozone_141.25/ozone_141.25.RasOrb
CIROOT
3 3 1
NACTEL
12 0 0
Inactive
6
RAS2
9
Symmetry
1
Spin
1
orblisting
all

>>> COPY $WorkDir/ozone_141.50.rasscf.h5 $CurrDir/

>>> COPY $WorkDir/GMJ_Fock_MO.csv $CurrDir/ozone_141.50.GMJ_Fock_MO.csv

&MOTRA
Frozen=0
LUMORB

>>> COPY $WorkDir/GMJ_one_int_indx.csv $CurrDir/ozone_141.50.GMJ_one_int_indx.csv

>>> COPY $WorkDir/GMJ_one_int.csv $CurrDir/ozone_141.50.GMJ_one_int.csv

>>> COPY $WorkDir/GMJ_two_int_indx.csv $CurrDir/ozone_141.50.GMJ_two_int_indx.csv

>>> COPY $WorkDir/GMJ_two_int.csv $CurrDir/ozone_141.50.GMJ_two_int.csv

&CASPT2

Multistate
ALL

Frozen
0

MAXITER
50

>>> FOREACH k IN (1,2,3)

  >>> FOREACH i IN (B,E,F,G,H)

    >>> FOREACH j IN (P,M)

      >>> IF (-FILE GMJ_e2_${i}_${j}_${k}_.csv)

        >>> COPY $WorkDir/GMJ_RHS_${i}_${j}_${k}_.csv $CurrDir/GMJ_RHS_${i}_${j}_${k}_.csv

        >>> COPY $WorkDir/GMJ_IVECW_${i}_${j}_${k}_.csv $CurrDir/GMJ_IVECW_${i}_${j}_${k}_.csv

        >>> COPY $WorkDir/GMJ_IVECX_${i}_${j}_${k}_.csv $CurrDir/GMJ_IVECX_${i}_${j}_${k}_.csv

        >>> COPY $WorkDir/GMJ_IVECC2_${i}_${j}_${k}_.csv $CurrDir/GMJ_IVECC2_${i}_${j}_${k}_.csv

        >>> COPY $WorkDir/GMJ_e2_${i}_${j}_${k}_.csv $CurrDir/GMJ_e2_${i}_${j}_${k}_.csv

      >>> END IF

    >>> END FOREACH

  >>> END FOREACH

>>> END FOREACH

>>> FOREACH j IN (1,2,3)

  >>> FOREACH i IN (A,C,D)

    >>> IF (-FILE GMJ_e2_${i}_${j}_.csv)

      >>> COPY $WorkDir/GMJ_RHS_${i}_${j}_.csv $CurrDir/GMJ_RHS_${i}_${j}_.csv

      >>> COPY $WorkDir/GMJ_IVECW_${i}_${j}_.csv $CurrDir/GMJ_IVECW_${i}_${j}_.csv

      >>> COPY $WorkDir/GMJ_IVECX_${i}_${j}_.csv $CurrDir/GMJ_IVECX_${i}_${j}_.csv

      >>> COPY $WorkDir/GMJ_IVECC2_${i}_${j}_.csv $CurrDir/GMJ_IVECC2_${i}_${j}_.csv

      >>> COPY $WorkDir/GMJ_e2_${i}_${j}_.csv $CurrDir/GMJ_e2_${i}_${j}_.csv

    >>> END IF

  >>> END FOREACH

>>> END FOREACH

-- ----------------------------------

--- Start Module: gateway at Mon May 12 23:35:30 2025 ---
 
()()()()()()()()()()()()()()()()()()()()()()()()()()()()()()()()()()()()()()()()()()()()()()()()()()

                                              &GATEWAY

                                   only a single process is used
                       available to each process: 62 GB of memory, 1 thread?
()()()()()()()()()()()()()()()()()()()()()()()()()()()()()()()()()()()()()()()()()()()()()()()()()()
 
 
++    Symmetry information:
      ---------------------
 
                    Character Table for C1 
 
                             E  
                    a        1  x, y, xy, Rz, z, xz, Ry, yz, Rx, I
--
 
 
++    Basis set information:
      ----------------------
 
 
      Basis set label: O.ANO-RCC...4S3P2D1F.
 
      Electronic valence basis set:
      ------------------
      Associated Effective Charge   8.000000 au
      Associated Actual Charge      8.000000 au
      Nuclear Model: Point charge
 
      Shell  nPrim  nBasis  Cartesian Spherical Contaminant
         s      14       4        X                  
         p       9       3        X                  
         d       4       2                 X         
         f       3       1                 X         
--
 
 
++    Molecular structure info:
      -------------------------
 
                    ************************************************ 
                    **** Cartesian Coordinates / Bohr, Angstrom **** 
                    ************************************************ 
 
     Center  Label                x              y              z                     x              y              z
        1      O1               0.796227       2.280041       0.000000              0.421345       1.206546       0.000000
        2      O2               0.000000       0.000000       0.000000              0.000000       0.000000       0.000000
        3      O3               0.796227      -2.280041       0.000000              0.421345      -1.206546       0.000000
 
                    *************************************** 
                    *    InterNuclear Distances / Bohr    * 
                    *************************************** 
 
               1 O1            2 O2            3 O3    
    1 O1       0.000000
    2 O2       2.415071        0.000000
    3 O3       4.560083        2.415071        0.000000
 
                    ******************************************* 
                    *    InterNuclear Distances / Angstrom    * 
                    ******************************************* 
 
               1 O1            2 O2            3 O3    
    1 O1       0.000000
    2 O2       1.278000        0.000000
    3 O3       2.413092        1.278000        0.000000
 
                    ************************************** 
                    *    Valence Bond Angles / Degree    * 
                    ************************************** 
                          Atom centers                 Phi
                      1 O1       2 O2       3 O3       141.50
--
 
 
            Nuclear Potential Energy             67.03535274 au
 
--- Stop Module: gateway at Mon May 12 23:35:34 2025 /rc=_RC_ALL_IS_WELL_ ---
*** files: xmldump
    saved to directory /lustre/isaac/scratch/gjones39/scpfiles/ANO-RCC-VTZP/ozone_141.50
--- Module gateway spent 3 seconds ---

--- Start Module: seward at Mon May 12 23:35:34 2025 ---
 
()()()()()()()()()()()()()()()()()()()()()()()()()()()()()()()()()()()()()()()()()()()()()()()()()()

                                              &SEWARD

                                   only a single process is used
                       available to each process: 62 GB of memory, 1 thread?
()()()()()()()()()()()()()()()()()()()()()()()()()()()()()()()()()()()()()()()()()()()()()()()()()()
 
               SEWARD will generate:
                  Multipole Moment integrals up to order  2
                  Kinetic Energy integrals
                  Nuclear Attraction integrals (point charge)
                  One-Electron Hamiltonian integrals
                  Velocity integrals
                  Relativistic Douglas-Kroll-Hess integrals:
                    - Parametrization         : EXP
                    - DKH order of Hamiltonian: 2
                    - DKH order of Properties : 0
                         - multipole moment operators
                         - electric potential operators
                         - contact operators
                  Atomic mean-field integrals
                  Two-Electron Repulsion integrals
 
                   Integrals are discarded if absolute value <: 0.10E-13
                   Integral cutoff threshold is set to       <: 0.10E-15
 
            Nuclear Potential Energy             67.03535274 au
 
 
      Basis set specifications :
      Symmetry species         a  
      Basis functions           90
 
 
  Input file to MOLDEN was generated!
 
--- Stop Module: seward at Mon May 12 23:35:43 2025 /rc=_RC_ALL_IS_WELL_ ---
*** files: ozone_141.50.GssOrb ozone_141.50.guessorb.h5 ozone_141.50.guessorb.molden xmldump
    saved to directory /lustre/isaac/scratch/gjones39/scpfiles/ANO-RCC-VTZP/ozone_141.50
--- Module seward spent 9 seconds ---

*** symbolic link created: INPORB -> ozone_141.50.GssOrb
--- Start Module: scf at Mon May 12 23:35:43 2025 ---
 
()()()()()()()()()()()()()()()()()()()()()()()()()()()()()()()()()()()()()()()()()()()()()()()()()()

                                                &SCF

                                   only a single process is used
                       available to each process: 62 GB of memory, 1 thread?
()()()()()()()()()()()()()()()()()()()()()()()()()()()()()()()()()()()()()()()()()()()()()()()()()()
 
++    Input section:
      --------------
 
      Header of the integral files:
      
       Integrals generated by seward 4.2.0  , Mon May 12 23:35:34 2025
 
 
      Cartesian coordinates in Angstrom:
      -----------------------------------------------------
      No.  Label        X            Y            Z        
      -----------------------------------------------------
       1   O1         0.42134500   1.20654600   0.00000000
       2   O2         0.00000000   0.00000000   0.00000000
       3   O3         0.42134500  -1.20654600   0.00000000
      -----------------------------------------------------
      Nuclear repulsion energy =   67.03535274
--
 
++    Orbital specifications:
      -----------------------
 
      Symmetry species               1
                                     a
      Frozen orbitals                0
      Occupied orbitals             12
      Secondary orbitals            78
      Deleted orbitals               0
      Total number of orbitals      90
      Number of basis functions     90
--
 
      Molecular charge                           0.000
 
++    Optimization specifications:
      ----------------------------
 
      SCF Algorithm: Conventional
      Minimized density differences are used
      Number of density matrices in core                5
      Maximum number of NDDO SCF iterations           400
      Maximum number of HF SCF iterations             400
      Threshold for SCF energy change            0.10E-08
      Threshold for density matrix               0.10E-03
      Threshold for Fock matrix                  0.15E-03
      Threshold for linear dependence            0.10E-08
      Threshold at which DIIS is turned on       0.15E+00
      Threshold at which QNR/C2DIIS is turned on 0.75E-01
      Threshold for Norm(delta) (QNR/C2DIIS)     0.20E-04
      DIIS extrapolation of the SCF procedure
      All orbitals punched on: SCFORB
--
 
      Input vectors read from INPORB
      Orbital file label: * SCF orbitals
 
 
++ Convergence information
                                   SCF        iterations: Energy and convergence statistics
 
Iter     Tot. SCF        One-elec.       Two-elec.     Energy      Max Dij or  Max Fij      DNorm      TNorm      AccCon     Time
         Energy          Energy          Energy        Change      Delta Norm                                                in Sec.
   1  -224.480970757  -441.701384197   150.185060704   0.00E+00    0.12E-02*   0.65E-03*    0.75E+01   0.11E+03   None         0.
   2  -224.480976067  -441.700984414   150.184655610  -0.53E-05*   0.55E-03*   0.30E-03*    0.70E-02   0.11E+03   EDIIS        0.
   3  -224.480977044  -441.701702252   150.185372471  -0.98E-06*   0.32E-03*   0.26E-03*    0.94E-03   0.11E+03   c2DIIS       0.
   4  -224.480977387  -441.701101141   150.184771017  -0.34E-06*   0.17E-03*   0.73E-04     0.10E-02   0.11E+03   QNRc2DIIS    0.
   5  -224.480977400  -441.702046060   150.185715923  -0.12E-07*   0.90E-04*   0.96E-04     0.61E-03   0.11E+03   QNRc2DIIS    0.
   6  -224.480977439  -441.701615740   150.185285564  -0.39E-07*   0.73E-04*   0.13E-04     0.57E-04   0.11E+03   QNRc2DIIS    0.
   7  -224.480977443  -441.701527406   150.185197226  -0.40E-08*   0.64E-05    0.13E-05     0.51E-04   0.11E+03   QNRc2DIIS    0.
   8  -224.480977443  -441.701578932   150.185248752  -0.25E-10    0.24E-05    0.16E-05     0.27E-03   0.11E+03   QNRc2DIIS    0.
 
       Convergence after  8 Macro Iterations
--
 
 *****************************************************************************************************************************
 *                                                                                                                           *
 *                                             SCF/KS-DFT Program, Final results                                             *
 *                                                                                                                           *
 *                                                                                                                           *
 *                                                                                                                           *
 *                                                       Final Results                                                       *
 *                                                                                                                           *
 *****************************************************************************************************************************
 
::    Total SCF energy                               -224.4809774432
      One-electron energy                            -441.7015789319
      Two-electron energy                             150.1852487519
      Nuclear repulsion energy                         67.0353527368
      Kinetic energy (interpolated)                   225.0759497685
      Virial theorem                                    0.9973565709
      Total spin, S(S+1)                                0.0000000000
      Total spin, S                                     0.0000000000
      Max non-diagonal density matrix element           0.0000034606
      Max non-diagonal Fock matrix element              0.0000007869
 
 
      All orbitals with orbital energies smaller than  E(LUMO)+0.5 are printed
 
++    Molecular orbitals:
      -------------------
 
      Title: SCF orbitals

      Molecular orbitals for symmetry species 1: a  
 
          Orbital            1         2         3         4         5         6         7         8         9        10    
          Energy          -20.9113  -20.7372  -20.7372   -1.7278   -1.4584   -1.0773   -0.8323   -0.8024   -0.7693   -0.5940
          Occ. No.          2.0000    2.0000    2.0000    2.0000    2.0000    2.0000    2.0000    2.0000    2.0000    2.0000
 
        1 O1     1s         0.0023   -0.7758    0.6292   -0.0129    0.0122    0.0123   -0.0081   -0.0235    0.0000    0.0077
        2 O1     2s         0.0025    0.0060   -0.0050    0.3404   -0.5620    0.6300   -0.1751   -0.4341    0.0000    0.0799
        3 O1     3s         0.0014    0.0043   -0.0035   -0.0086    0.0203    0.0206   -0.0134   -0.0516   -0.0000    0.0171
        4 O1     4s         0.0003    0.0009   -0.0007   -0.0002    0.0040    0.0034   -0.0028   -0.0109   -0.0000    0.0039
        5 O1     2px       -0.0005   -0.0011    0.0008   -0.0324    0.0439    0.0826    0.2629   -0.2629    0.0000   -0.6221
        6 O1     3px       -0.0005   -0.0011    0.0006    0.0108   -0.0063   -0.0141   -0.0169    0.0227   -0.0000   -0.0016
        7 O1     4px       -0.0001    0.0004   -0.0005    0.0022    0.0004    0.0005   -0.0009    0.0011   -0.0000    0.0049
        8 O1     2py       -0.0016   -0.0025    0.0025   -0.1145    0.0834    0.1380   -0.2508   -0.3308    0.0000    0.3343
        9 O1     3py       -0.0009   -0.0025    0.0024    0.0128   -0.0178   -0.0229    0.0227    0.0439   -0.0000   -0.0056
       10 O1     4py        0.0004    0.0017   -0.0014    0.0010   -0.0037    0.0010    0.0036    0.0038   -0.0000   -0.0027
       11 O1     2pz       -0.0000   -0.0000   -0.0000   -0.0000    0.0000    0.0000   -0.0000    0.0000    0.3960   -0.0000
       12 O1     3pz        0.0000   -0.0000   -0.0000   -0.0000   -0.0000    0.0000    0.0000    0.0000   -0.0161   -0.0000
       13 O1     4pz        0.0000   -0.0000   -0.0000    0.0000    0.0000   -0.0000   -0.0000    0.0000   -0.0067    0.0000
       14 O1     3d2-       0.0001    0.0007   -0.0006    0.0101   -0.0108   -0.0101   -0.0103    0.0206   -0.0000    0.0070
       15 O1     4d2-       0.0000    0.0004   -0.0003    0.0007   -0.0013   -0.0006   -0.0010    0.0015   -0.0000    0.0013
       16 O1     3d1-      -0.0000   -0.0000    0.0000   -0.0000   -0.0000   -0.0000    0.0000   -0.0000   -0.0306    0.0000
       17 O1     4d1-      -0.0000   -0.0000   -0.0000   -0.0000   -0.0000    0.0000   -0.0000   -0.0000   -0.0052    0.0000
       18 O1     3d0       -0.0002   -0.0006    0.0005   -0.0104    0.0091    0.0055   -0.0074   -0.0145    0.0000    0.0054
       19 O1     4d0       -0.0001   -0.0004    0.0004   -0.0007    0.0009    0.0001   -0.0008   -0.0008    0.0000    0.0008
       20 O1     3d1+      -0.0000   -0.0000   -0.0000    0.0000    0.0000   -0.0000   -0.0000   -0.0000   -0.0101   -0.0000
       21 O1     4d1+       0.0000   -0.0000    0.0000   -0.0000   -0.0000    0.0000   -0.0000   -0.0000   -0.0020    0.0000
       22 O1     3d2+      -0.0004   -0.0011    0.0009   -0.0173    0.0119    0.0098   -0.0233   -0.0198    0.0000    0.0166
       23 O1     4d2+      -0.0002   -0.0005    0.0005   -0.0025    0.0015    0.0012   -0.0025   -0.0014    0.0000    0.0024
       24 O1     4f3-       0.0001    0.0001   -0.0001    0.0036   -0.0029   -0.0007    0.0072    0.0028   -0.0000   -0.0055
       25 O1     4f2-      -0.0000    0.0000    0.0000   -0.0000   -0.0000    0.0000   -0.0000    0.0000    0.0038   -0.0000
       26 O1     4f1-       0.0000    0.0002   -0.0001    0.0033   -0.0030   -0.0014    0.0019    0.0036   -0.0000   -0.0012
       27 O1     4f0        0.0000   -0.0000   -0.0000    0.0000    0.0000   -0.0000    0.0000   -0.0000   -0.0038    0.0000
       28 O1     4f1+       0.0000    0.0001   -0.0001    0.0010   -0.0010   -0.0006   -0.0001    0.0011   -0.0000   -0.0009
       29 O1     4f2+      -0.0000    0.0000    0.0000    0.0000   -0.0000   -0.0000    0.0000   -0.0000   -0.0060    0.0000
       30 O1     4f3+       0.0000    0.0002   -0.0001    0.0042   -0.0046   -0.0029   -0.0024    0.0064   -0.0000    0.0019
       31 O2     1s         0.9993    0.0001   -0.0010   -0.0279   -0.0000   -0.0162   -0.0064   -0.0000    0.0000   -0.0000
       32 O2     2s        -0.0050   -0.0012    0.0115    0.6232    0.0000   -0.6439   -0.0684   -0.0000    0.0000   -0.0000
       33 O2     3s        -0.0036   -0.0007    0.0066   -0.0695   -0.0000   -0.0183   -0.0116   -0.0000   -0.0000   -0.0000
       34 O2     4s        -0.0008   -0.0001    0.0011   -0.0127   -0.0000   -0.0044   -0.0041   -0.0000   -0.0000   -0.0000
       35 O2     2px       -0.0002   -0.0003    0.0027    0.0726    0.0000    0.1712    0.7003   -0.0000   -0.0000    0.0000
       36 O2     3px       -0.0011   -0.0002    0.0017   -0.0318   -0.0000   -0.0222   -0.0742    0.0000   -0.0000   -0.0000
       37 O2     4px        0.0014    0.0001   -0.0005   -0.0040   -0.0000    0.0015   -0.0099    0.0000    0.0000   -0.0000
       38 O2     2py        0.0000   -0.0065   -0.0007    0.0000   -0.3347   -0.0000    0.0000    0.5467   -0.0000   -0.1410
       39 O2     3py       -0.0000   -0.0043   -0.0005   -0.0000    0.0650    0.0000   -0.0000   -0.0561    0.0000   -0.0064
       40 O2     4py        0.0000    0.0012    0.0001    0.0000   -0.0018    0.0000   -0.0000   -0.0097   -0.0000    0.0003
       41 O2     2pz       -0.0000    0.0000    0.0000   -0.0000    0.0000    0.0000    0.0000    0.0000    0.6630   -0.0000
       42 O2     3pz       -0.0000    0.0000    0.0000    0.0000    0.0000    0.0000    0.0000   -0.0000   -0.0455    0.0000
       43 O2     4pz       -0.0000    0.0000    0.0000   -0.0000   -0.0000   -0.0000   -0.0000    0.0000   -0.0174    0.0000
       44 O2     3d2-      -0.0000   -0.0011   -0.0001    0.0000   -0.0315   -0.0000    0.0000    0.0219   -0.0000   -0.0443
       45 O2     4d2-      -0.0000   -0.0006   -0.0001    0.0000   -0.0034   -0.0000    0.0000    0.0019    0.0000   -0.0076
       46 O2     3d1-       0.0000   -0.0000   -0.0000   -0.0000   -0.0000    0.0000    0.0000   -0.0000    0.0000   -0.0000
       47 O2     4d1-      -0.0000   -0.0000   -0.0000    0.0000    0.0000    0.0000    0.0000   -0.0000    0.0000   -0.0000
       48 O2     3d0        0.0003    0.0001   -0.0011   -0.0148   -0.0000   -0.0041   -0.0130    0.0000   -0.0000   -0.0000
       49 O2     4d0        0.0004    0.0001   -0.0006    0.0008    0.0000    0.0000   -0.0009    0.0000   -0.0000   -0.0000
       50 O2     3d1+      -0.0000    0.0000    0.0000   -0.0000    0.0000    0.0000   -0.0000    0.0000    0.0248   -0.0000
       51 O2     4d1+      -0.0000    0.0000    0.0000   -0.0000    0.0000    0.0000    0.0000   -0.0000    0.0036   -0.0000
       52 O2     3d2+       0.0006    0.0001   -0.0014   -0.0198   -0.0000   -0.0034    0.0148   -0.0000   -0.0000   -0.0000
       53 O2     4d2+       0.0003    0.0001   -0.0007   -0.0016   -0.0000   -0.0005    0.0009   -0.0000   -0.0000   -0.0000
       54 O2     4f3-       0.0000    0.0001    0.0000   -0.0000    0.0057    0.0000   -0.0000   -0.0071    0.0000   -0.0071
       55 O2     4f2-       0.0000   -0.0000   -0.0000    0.0000    0.0000   -0.0000    0.0000    0.0000    0.0000   -0.0000
       56 O2     4f1-       0.0000    0.0001    0.0000   -0.0000    0.0054    0.0000   -0.0000   -0.0045    0.0000    0.0010
       57 O2     4f0       -0.0000    0.0000   -0.0000   -0.0000   -0.0000    0.0000   -0.0000   -0.0000   -0.0058   -0.0000
       58 O2     4f1+       0.0001    0.0000   -0.0001   -0.0020   -0.0000    0.0000   -0.0011    0.0000   -0.0000    0.0000
       59 O2     4f2+      -0.0000    0.0000   -0.0000   -0.0000   -0.0000   -0.0000    0.0000   -0.0000   -0.0087   -0.0000
       60 O2     4f3+       0.0001    0.0000   -0.0002   -0.0089   -0.0000   -0.0012   -0.0084    0.0000    0.0000   -0.0000
       61 O3     1s         0.0023    0.6292    0.7758   -0.0129   -0.0122    0.0123   -0.0081    0.0235   -0.0000   -0.0077
       62 O3     2s         0.0025   -0.0048   -0.0062    0.3404    0.5620    0.6300   -0.1751    0.4341   -0.0000   -0.0799
       63 O3     3s         0.0014   -0.0034   -0.0043   -0.0086   -0.0203    0.0206   -0.0134    0.0516    0.0000   -0.0171
       64 O3     4s         0.0003   -0.0007   -0.0008   -0.0002   -0.0040    0.0034   -0.0028    0.0109    0.0000   -0.0039
       65 O3     2px       -0.0005    0.0009    0.0010   -0.0324   -0.0439    0.0826    0.2629    0.2629   -0.0000    0.6220
       66 O3     3px       -0.0005    0.0009    0.0008    0.0108    0.0063   -0.0141   -0.0169   -0.0227    0.0000    0.0016
       67 O3     4px       -0.0001   -0.0003   -0.0005    0.0022   -0.0004    0.0005   -0.0009   -0.0011    0.0000   -0.0049
       68 O3     2py        0.0016   -0.0020   -0.0030    0.1145    0.0834   -0.1379    0.2507   -0.3309    0.0000    0.3343
       69 O3     3py        0.0009   -0.0020   -0.0029   -0.0128   -0.0178    0.0229   -0.0227    0.0439    0.0000   -0.0056
       70 O3     4py       -0.0004    0.0014    0.0017   -0.0010   -0.0037   -0.0010   -0.0036    0.0038    0.0000   -0.0027
       71 O3     2pz        0.0000   -0.0000   -0.0000   -0.0000   -0.0000    0.0000   -0.0000    0.0000    0.3960    0.0000
       72 O3     3pz        0.0000   -0.0000   -0.0000   -0.0000   -0.0000   -0.0000   -0.0000   -0.0000   -0.0161   -0.0000
       73 O3     4pz        0.0000    0.0000    0.0000    0.0000    0.0000   -0.0000   -0.0000   -0.0000   -0.0067    0.0000
       74 O3     3d2-      -0.0001    0.0006    0.0008   -0.0101   -0.0108    0.0101    0.0103    0.0206   -0.0000    0.0070
       75 O3     4d2-      -0.0000    0.0004    0.0004   -0.0007   -0.0013    0.0006    0.0010    0.0015    0.0000    0.0013
       76 O3     3d1-      -0.0000   -0.0000   -0.0000   -0.0000   -0.0000    0.0000    0.0000    0.0000    0.0306    0.0000
       77 O3     4d1-       0.0000   -0.0000   -0.0000   -0.0000   -0.0000    0.0000   -0.0000    0.0000    0.0052    0.0000
       78 O3     3d0       -0.0002    0.0004    0.0006   -0.0104   -0.0091    0.0055   -0.0074    0.0145   -0.0000   -0.0054
       79 O3     4d0       -0.0001    0.0003    0.0005   -0.0007   -0.0009    0.0001   -0.0008    0.0008   -0.0000   -0.0008
       80 O3     3d1+       0.0000    0.0000    0.0000   -0.0000   -0.0000    0.0000   -0.0000   -0.0000   -0.0101    0.0000
       81 O3     4d1+      -0.0000    0.0000    0.0000   -0.0000    0.0000    0.0000   -0.0000   -0.0000   -0.0020   -0.0000
       82 O3     3d2+      -0.0004    0.0008    0.0011   -0.0173   -0.0119    0.0098   -0.0233    0.0198   -0.0000   -0.0166
       83 O3     4d2+      -0.0002    0.0004    0.0006   -0.0025   -0.0015    0.0012   -0.0025    0.0014   -0.0000   -0.0024
       84 O3     4f3-      -0.0001    0.0001    0.0001   -0.0036   -0.0029    0.0007   -0.0072    0.0028   -0.0000   -0.0055
       85 O3     4f2-       0.0000   -0.0000   -0.0000    0.0000   -0.0000   -0.0000   -0.0000   -0.0000   -0.0038    0.0000
       86 O3     4f1-      -0.0000    0.0001    0.0002   -0.0033   -0.0030    0.0014   -0.0019    0.0036   -0.0000   -0.0012
       87 O3     4f0        0.0000    0.0000    0.0000    0.0000    0.0000   -0.0000    0.0000   -0.0000   -0.0038    0.0000
       88 O3     4f1+       0.0000   -0.0000   -0.0001    0.0010    0.0010   -0.0006   -0.0001   -0.0011    0.0000    0.0009
       89 O3     4f2+       0.0000   -0.0000   -0.0000   -0.0000    0.0000   -0.0000   -0.0000   -0.0000   -0.0060   -0.0000
       90 O3     4f3+       0.0000   -0.0001   -0.0002    0.0042    0.0046   -0.0029   -0.0024   -0.0064    0.0000   -0.0019
 
          Orbital           11        12        13        14        15        16        17        18        19        20    
          Energy           -0.5152   -0.5032   -0.0397    0.1722    0.1779    0.2350    0.2351    0.3161    0.3559    0.3735
          Occ. No.          2.0000    2.0000    0.0000    0.0000    0.0000    0.0000    0.0000    0.0000    0.0000    0.0000
 
        1 O1     1s         0.0031    0.0000    0.0000   -0.2121    0.1018   -0.0425    0.0000    0.0766   -0.0184    0.0000
        2 O1     2s         0.0103    0.0000    0.0000   -1.5481    0.8267   -0.2320    0.0000    0.4711   -0.0586    0.0000
        3 O1     3s         0.0152    0.0000   -0.0000   -0.9107    0.3695   -0.2523    0.0000    0.5518   -0.0286    0.0000
        4 O1     4s         0.0048    0.0000   -0.0000   -0.2051    0.0685   -0.0655    0.0000    0.1510   -0.0006    0.0000
        5 O1     2px        0.6678   -0.0000   -0.0000    0.3250   -0.1114   -0.0321    0.0000   -0.1094   -0.1950   -0.0000
        6 O1     3px        0.0218   -0.0000   -0.0000    0.3289   -0.1524    0.3679   -0.0000    0.1210   -0.8014    0.0000
        7 O1     4px       -0.0030    0.0000   -0.0000    0.0403   -0.0345    0.1677   -0.0000    0.0954   -0.3193    0.0000
        8 O1     2py        0.0208   -0.0000   -0.0000    0.6020   -0.9701   -0.0954    0.0000   -0.2116   -0.2150   -0.0000
        9 O1     3py       -0.0145   -0.0000   -0.0000    0.7559   -0.6655    0.0874   -0.0000   -0.8713   -0.1439   -0.0000
       10 O1     4py       -0.0022    0.0000   -0.0000    0.1064   -0.0949   -0.0239    0.0000   -0.2117   -0.0286   -0.0000
       11 O1     2pz       -0.0000   -0.6981    0.6693    0.0000   -0.0000   -0.0000   -0.1338    0.0000   -0.0000   -0.1566
       12 O1     3pz       -0.0000   -0.0293    0.1686   -0.0000    0.0000    0.0000    0.3574    0.0000   -0.0000   -0.8945
       13 O1     4pz        0.0000    0.0070    0.0267   -0.0000    0.0000    0.0000    0.1992    0.0000   -0.0000   -0.3602
       14 O1     3d2-      -0.0071   -0.0000    0.0000   -0.0593    0.0321   -0.0137    0.0000    0.0247    0.0048    0.0000
       15 O1     4d2-      -0.0009    0.0000   -0.0000   -0.0394    0.0195   -0.0113    0.0000    0.0176    0.0148    0.0000
       16 O1     3d1-       0.0000    0.0246    0.0112    0.0000    0.0000    0.0000    0.0083   -0.0000    0.0000    0.0055
       17 O1     4d1-       0.0000    0.0059    0.0008    0.0000    0.0000    0.0000    0.0005   -0.0000    0.0000    0.0115
       18 O1     3d0        0.0046   -0.0000    0.0000    0.0519   -0.0300    0.0274   -0.0000   -0.0495   -0.0071   -0.0000
       19 O1     4d0        0.0003   -0.0000    0.0000    0.0329   -0.0215    0.0160   -0.0000   -0.0325   -0.0100   -0.0000
       20 O1     3d1+       0.0000    0.0075    0.0046    0.0000   -0.0000    0.0000    0.0031   -0.0000    0.0000    0.0125
       21 O1     4d1+      -0.0000    0.0017    0.0003   -0.0000   -0.0000    0.0000    0.0001    0.0000    0.0000    0.0104
       22 O1     3d2+       0.0065    0.0000   -0.0000    0.0693   -0.0329    0.0517   -0.0000   -0.0990    0.0046   -0.0000
       23 O1     4d2+      -0.0004    0.0000   -0.0000    0.0413   -0.0277    0.0270   -0.0000   -0.0657   -0.0007   -0.0000
       24 O1     4f3-      -0.0003    0.0000   -0.0000   -0.0062    0.0025    0.0012   -0.0000    0.0101   -0.0021    0.0000
       25 O1     4f2-      -0.0000   -0.0029   -0.0002    0.0000    0.0000    0.0000    0.0013    0.0000   -0.0000   -0.0054
       26 O1     4f1-      -0.0014    0.0000   -0.0000   -0.0053    0.0040   -0.0025    0.0000    0.0097    0.0050   -0.0000
       27 O1     4f0       -0.0000    0.0017    0.0015    0.0000   -0.0000   -0.0000   -0.0019   -0.0000    0.0000    0.0060
       28 O1     4f1+       0.0007    0.0000    0.0000   -0.0011    0.0019   -0.0016    0.0000    0.0019    0.0040   -0.0000
       29 O1     4f2+      -0.0000    0.0046   -0.0005    0.0000   -0.0000   -0.0000   -0.0017   -0.0000    0.0000    0.0043
       30 O1     4f3+      -0.0033    0.0000   -0.0000   -0.0062    0.0055   -0.0029    0.0000    0.0060    0.0091   -0.0000
       31 O2     1s         0.0226   -0.0000    0.0000    0.0000   -0.2786    0.0719   -0.0000   -0.2413   -0.0000   -0.0000
       32 O2     2s         0.2702   -0.0000    0.0000    0.0001   -2.1232    0.3747   -0.0000   -1.4437   -0.0000   -0.0000
       33 O2     3s         0.0569   -0.0000    0.0000    0.0001   -1.0553    0.3498   -0.0000   -0.9173   -0.0000   -0.0000
       34 O2     4s         0.0140   -0.0000    0.0000    0.0000   -0.2277    0.0687   -0.0000   -0.1634    0.0000   -0.0000
       35 O2     2px       -0.5729    0.0000    0.0000    0.0000   -0.6472   -0.1326    0.0000   -0.1635    0.0000   -0.0000
       36 O2     3px       -0.0183    0.0000    0.0000    0.0000   -0.4350    0.3860   -0.0000   -0.4521    0.0000    0.0000
       37 O2     4px       -0.0028    0.0000    0.0000    0.0000   -0.0622    0.1664   -0.0000   -0.0267    0.0000    0.0000
       38 O2     2py       -0.0000   -0.0000   -0.0000    1.4955    0.0001    0.0000    0.0000    0.0000   -0.0807   -0.0000
       39 O2     3py       -0.0000   -0.0000   -0.0000    1.5101    0.0001    0.0000    0.0000    0.0000    0.3688   -0.0000
       40 O2     4py       -0.0000    0.0000   -0.0000    0.1529    0.0000    0.0000    0.0000   -0.0000    0.1783   -0.0000
       41 O2     2pz        0.0000    0.0000   -0.8828   -0.0000   -0.0000   -0.0000   -0.0203   -0.0000   -0.0000    0.0000
       42 O2     3pz       -0.0000   -0.0000   -0.1934   -0.0000    0.0000    0.0000    0.3164   -0.0000   -0.0000    0.0000
       43 O2     4pz       -0.0000   -0.0000   -0.0209   -0.0000    0.0000    0.0000    0.1865   -0.0000    0.0000    0.0000
       44 O2     3d2-      -0.0000   -0.0000    0.0000    0.1148    0.0000    0.0000    0.0000   -0.0000    0.0899   -0.0000
       45 O2     4d2-      -0.0000   -0.0000   -0.0000    0.0705    0.0000    0.0000    0.0000   -0.0000    0.0635   -0.0000
       46 O2     3d1-      -0.0000   -0.0612   -0.0000    0.0000   -0.0000   -0.0000   -0.0000   -0.0000    0.0000    0.1090
       47 O2     4d1-      -0.0000   -0.0142   -0.0000    0.0000   -0.0000   -0.0000   -0.0000   -0.0000    0.0000    0.0656
       48 O2     3d0        0.0189   -0.0000   -0.0000   -0.0000    0.0220   -0.0682    0.0000    0.1370    0.0000    0.0000
       49 O2     4d0        0.0022   -0.0000   -0.0000   -0.0000    0.0218   -0.0340    0.0000    0.0638    0.0000    0.0000
       50 O2     3d1+      -0.0000    0.0000   -0.0002    0.0000   -0.0000   -0.0000   -0.0215    0.0000    0.0000   -0.0000
       51 O2     4d1+      -0.0000    0.0000    0.0003    0.0000   -0.0000   -0.0000   -0.0091    0.0000    0.0000    0.0000
       52 O2     3d2+       0.0355   -0.0000   -0.0000   -0.0000    0.0233   -0.1129    0.0000    0.1182    0.0000    0.0000
       53 O2     4d2+       0.0068   -0.0000   -0.0000   -0.0000    0.0259   -0.0493    0.0000    0.0383    0.0000    0.0000
       54 O2     4f3-      -0.0000    0.0000   -0.0000   -0.0108   -0.0000   -0.0000   -0.0000   -0.0000   -0.0013    0.0000
       55 O2     4f2-      -0.0000   -0.0066   -0.0000   -0.0000    0.0000   -0.0000   -0.0000   -0.0000    0.0000    0.0054
       56 O2     4f1-       0.0000    0.0000   -0.0000   -0.0101   -0.0000   -0.0000   -0.0000    0.0000   -0.0090    0.0000
       57 O2     4f0       -0.0000   -0.0000   -0.0021    0.0000    0.0000   -0.0000   -0.0014    0.0000    0.0000   -0.0000
       58 O2     4f1+      -0.0011    0.0000   -0.0000   -0.0000    0.0005   -0.0039    0.0000    0.0061    0.0000    0.0000
       59 O2     4f2+       0.0000   -0.0000    0.0012    0.0000   -0.0000   -0.0000   -0.0019    0.0000    0.0000   -0.0000
       60 O2     4f3+       0.0035   -0.0000   -0.0000   -0.0000    0.0043   -0.0091    0.0000    0.0115   -0.0000    0.0000
       61 O3     1s         0.0031   -0.0000   -0.0000    0.2121    0.1018   -0.0425    0.0000    0.0766    0.0184   -0.0000
       62 O3     2s         0.0103   -0.0000   -0.0000    1.5481    0.8269   -0.2320    0.0000    0.4711    0.0586    0.0000
       63 O3     3s         0.0152   -0.0000   -0.0000    0.9106    0.3696   -0.2523    0.0000    0.5518    0.0286    0.0000
       64 O3     4s         0.0048   -0.0000   -0.0000    0.2051    0.0685   -0.0655    0.0000    0.1510    0.0006   -0.0000
       65 O3     2px        0.6678   -0.0000    0.0000   -0.3250   -0.1115   -0.0321    0.0000   -0.1094    0.1950   -0.0000
       66 O3     3px        0.0218   -0.0000    0.0000   -0.3289   -0.1525    0.3679   -0.0000    0.1210    0.8014   -0.0000
       67 O3     4px       -0.0030   -0.0000   -0.0000   -0.0403   -0.0345    0.1677   -0.0000    0.0954    0.3193   -0.0000
       68 O3     2py       -0.0208   -0.0000   -0.0000    0.6019    0.9702    0.0954   -0.0000    0.2116   -0.2150    0.0000
       69 O3     3py        0.0145   -0.0000   -0.0000    0.7558    0.6656   -0.0874    0.0000    0.8713   -0.1439    0.0000
       70 O3     4py        0.0022    0.0000    0.0000    0.1064    0.0949    0.0239   -0.0000    0.2117   -0.0286    0.0000
       71 O3     2pz        0.0000    0.6981    0.6693    0.0000   -0.0000   -0.0000   -0.1338    0.0000    0.0000    0.1566
       72 O3     3pz        0.0000    0.0293    0.1686   -0.0000    0.0000    0.0000    0.3574   -0.0000    0.0000    0.8944
       73 O3     4pz       -0.0000   -0.0070    0.0267   -0.0000    0.0000    0.0000    0.1992   -0.0000    0.0000    0.3602
       74 O3     3d2-       0.0071   -0.0000    0.0000   -0.0593   -0.0321    0.0137   -0.0000   -0.0247    0.0048   -0.0000
       75 O3     4d2-       0.0009   -0.0000    0.0000   -0.0394   -0.0195    0.0113   -0.0000   -0.0176    0.0148   -0.0000
       76 O3     3d1-       0.0000    0.0246   -0.0112    0.0000   -0.0000   -0.0000   -0.0083    0.0000    0.0000    0.0055
       77 O3     4d1-       0.0000    0.0059   -0.0008    0.0000    0.0000   -0.0000   -0.0005   -0.0000    0.0000    0.0115
       78 O3     3d0        0.0046    0.0000    0.0000   -0.0519   -0.0300    0.0274   -0.0000   -0.0495    0.0071   -0.0000
       79 O3     4d0        0.0003    0.0000   -0.0000   -0.0329   -0.0215    0.0160   -0.0000   -0.0325    0.0100   -0.0000
       80 O3     3d1+      -0.0000   -0.0075    0.0046   -0.0000    0.0000    0.0000    0.0031    0.0000   -0.0000   -0.0125
       81 O3     4d1+      -0.0000   -0.0017    0.0003   -0.0000   -0.0000    0.0000    0.0001    0.0000   -0.0000   -0.0104
       82 O3     3d2+       0.0065    0.0000    0.0000   -0.0693   -0.0329    0.0517   -0.0000   -0.0990   -0.0046   -0.0000
       83 O3     4d2+      -0.0004    0.0000    0.0000   -0.0413   -0.0277    0.0270   -0.0000   -0.0657    0.0007   -0.0000
       84 O3     4f3-       0.0003    0.0000   -0.0000   -0.0062   -0.0025   -0.0012    0.0000   -0.0101   -0.0021   -0.0000
       85 O3     4f2-      -0.0000   -0.0029    0.0002    0.0000   -0.0000   -0.0000   -0.0013    0.0000   -0.0000   -0.0054
       86 O3     4f1-       0.0014   -0.0000   -0.0000   -0.0053   -0.0040    0.0025   -0.0000   -0.0097    0.0050   -0.0000
       87 O3     4f0       -0.0000   -0.0017    0.0015    0.0000   -0.0000   -0.0000   -0.0019    0.0000   -0.0000   -0.0060
       88 O3     4f1+       0.0007   -0.0000   -0.0000    0.0011    0.0019   -0.0016    0.0000    0.0019   -0.0040    0.0000
       89 O3     4f2+      -0.0000   -0.0046   -0.0005    0.0000   -0.0000   -0.0000   -0.0017    0.0000   -0.0000   -0.0043
       90 O3     4f3+      -0.0033    0.0000   -0.0000    0.0062    0.0055   -0.0029    0.0000    0.0060   -0.0091    0.0000
 
          Orbital           21    
          Energy            0.4427
          Occ. No.          0.0000
 
        1 O1     1s        -0.0341
        2 O1     2s        -0.1962
        3 O1     3s         0.2239
        4 O1     4s         0.1349
        5 O1     2px        0.2240
        6 O1     3px        0.4971
        7 O1     4px        0.1251
        8 O1     2py       -0.0262
        9 O1     3py        0.4422
       10 O1     4py        0.1188
       11 O1     2pz        0.0000
       12 O1     3pz       -0.0000
       13 O1     4pz       -0.0000
       14 O1     3d2-      -0.0922
       15 O1     4d2-      -0.0599
       16 O1     3d1-      -0.0000
       17 O1     4d1-      -0.0000
       18 O1     3d0        0.0497
       19 O1     4d0        0.0305
       20 O1     3d1+       0.0000
       21 O1     4d1+      -0.0000
       22 O1     3d2+       0.0593
       23 O1     4d2+       0.0333
       24 O1     4f3-      -0.0002
       25 O1     4f2-      -0.0000
       26 O1     4f1-      -0.0041
       27 O1     4f0        0.0000
       28 O1     4f1+      -0.0029
       29 O1     4f2+       0.0000
       30 O1     4f3+      -0.0086
       31 O2     1s         0.0919
       32 O2     2s         0.5296
       33 O2     3s         0.8380
       34 O2     4s         0.2524
       35 O2     2px       -0.3367
       36 O2     3px       -0.7174
       37 O2     4px       -0.2485
       38 O2     2py       -0.0000
       39 O2     3py        0.0000
       40 O2     4py        0.0000
       41 O2     2pz       -0.0000
       42 O2     3pz        0.0000
       43 O2     4pz        0.0000
       44 O2     3d2-       0.0000
       45 O2     4d2-       0.0000
       46 O2     3d1-       0.0000
       47 O2     4d1-       0.0000
       48 O2     3d0       -0.0298
       49 O2     4d0       -0.0054
       50 O2     3d1+      -0.0000
       51 O2     4d1+      -0.0000
       52 O2     3d2+      -0.0677
       53 O2     4d2+      -0.0313
       54 O2     4f3-      -0.0000
       55 O2     4f2-       0.0000
       56 O2     4f1-      -0.0000
       57 O2     4f0        0.0000
       58 O2     4f1+       0.0008
       59 O2     4f2+       0.0000
       60 O2     4f3+      -0.0017
       61 O3     1s        -0.0341
       62 O3     2s        -0.1962
       63 O3     3s         0.2239
       64 O3     4s         0.1349
       65 O3     2px        0.2240
       66 O3     3px        0.4971
       67 O3     4px        0.1251
       68 O3     2py        0.0262
       69 O3     3py       -0.4423
       70 O3     4py       -0.1188
       71 O3     2pz        0.0000
       72 O3     3pz        0.0000
       73 O3     4pz        0.0000
       74 O3     3d2-       0.0922
       75 O3     4d2-       0.0599
       76 O3     3d1-      -0.0000
       77 O3     4d1-      -0.0000
       78 O3     3d0        0.0497
       79 O3     4d0        0.0305
       80 O3     3d1+      -0.0000
       81 O3     4d1+      -0.0000
       82 O3     3d2+       0.0593
       83 O3     4d2+       0.0333
       84 O3     4f3-       0.0002
       85 O3     4f2-      -0.0000
       86 O3     4f1-       0.0041
       87 O3     4f0       -0.0000
       88 O3     4f1+      -0.0029
       89 O3     4f2+      -0.0000
       90 O3     4f3+      -0.0086
--
 
 
++    Molecular charges:
      ------------------
 
      Mulliken charges per centre and basis function type
      ---------------------------------------------------
 
                O1      O2      O3    
      1s       1.9978  1.9986  1.9978
      2s       1.9509  1.6785  1.9509
      2px      1.9098  1.6766  1.9098
      2pz      1.3945  1.1205  1.3945
      2py      0.8848  1.0329  0.8848
      3s      -0.0040 -0.0299 -0.0040
      3px     -0.0138 -0.0274 -0.0138
      3pz     -0.0082 -0.0146 -0.0082
      3py      0.0019  0.0053  0.0019
      4s       0.0040  0.0018  0.0040
      3d2+     0.0187  0.0338  0.0187
      3d1+     0.0016  0.0050  0.0016
      3d0      0.0058  0.0072  0.0058
      3d1-     0.0136  0.0519  0.0136
      3d2-     0.0111  0.0401  0.0111
      4px      0.0005  0.0013  0.0005
      4pz      0.0012  0.0018  0.0012
      4py      0.0028  0.0037  0.0028
      4d2+     0.0013  0.0047  0.0013
      4d1+     0.0003  0.0007  0.0003
      4d0      0.0001 -0.0002  0.0001
      4d1-     0.0019  0.0131  0.0019
      4d2-     0.0004  0.0056  0.0004
      4f3+     0.0024  0.0029  0.0024
      4f2+     0.0014  0.0024  0.0014
      4f1+     0.0002  0.0003  0.0002
      4f0      0.0008  0.0016  0.0008
      4f1-     0.0011  0.0013  0.0011
      4f2-     0.0007  0.0023  0.0007
      4f3-     0.0027  0.0060  0.0027
      Total    8.1862  7.6276  8.1862
 
      N-E     -0.1862  0.3724 -0.1862
 
      Total electronic charge=   24.000000
 
      Total            charge=   -0.000000
--
 
 
  Input file to MOLDEN was generated!
 
 
++    Static properties:
      ------------------
 
 
      LoProp Charges per center
 

                   O1       O2       O3    
      Nuclear      8.0000   8.0000   8.0000
      Electronic  -8.1956  -7.6089  -8.1956
 
      Total       -0.1956   0.3911  -0.1956
--
 
 
++    Natural Bond Order analysis
      ---------------------------
      Based on LoProp computed density
      -------------------------------------------------------------------------------------
      Atom A       Atom B       Bond Order | Atom A       Atom B       Bond Order
        O1           O2             1.996  |   O2           O3             1.996
      -------------------------------------------------------------------------------------
      NBO located     11.999 core electrons.
      NBO located      3.947 lone pair electrons.
      NBO located      7.984 electrons involved in    2 bonds.
      The remaining    0.070 electrons are to be considered as diffuse
--
 
 
++    Molecular properties:
      ---------------------
 
      Charge (e):
                      =   -0.0000
      Dipole Moment (Debye):
      Origin of the operator (Ang)=    0.0000    0.0000    0.0000
                   X= -3.3684E-01               Y= -5.2912E-06               Z=  9.4857E-14           Total=  3.3684E-01
      Quadrupole Moment (Debye*Ang):
      Origin of the operator (Ang)=    0.2809    0.0000    0.0000
                  XX= -1.6196E+01              XY= -7.0185E-07              XZ=  2.6182E-14              YY= -1.7033E+01
                  YZ=  1.3190E-13              ZZ= -1.4920E+01
      In traceless form (Debye*Ang)
                  XX= -2.1962E-01              XY= -1.0528E-06              XZ=  3.9273E-14              YY= -1.4749E+00
                  YZ=  1.9786E-13              ZZ=  1.6945E+00
--
 
 
  Input file to MOLDEN was generated!
 
 ###############################################################################
 ###############################################################################
 ###                                                                         ###
 ###                                                                         ###
 ###    RunFile label nBas                                                   ###
 ###    was used       78 times                                              ###
 ###                                                                         ###
 ###                                                                         ###
 ###############################################################################
 ###############################################################################
--- Stop Module: scf at Mon May 12 23:35:45 2025 /rc=_RC_ALL_IS_WELL_ ---
*** files: ozone_141.50.LprOrb ozone_141.50.LoProp.molden ozone_141.50.scf.molden ozone_141.50.ScfOrb ozone_141.50.scf.h5 xmldump
    saved to directory /lustre/isaac/scratch/gjones39/scpfiles/ANO-RCC-VTZP/ozone_141.50
--- Module scf spent 2 seconds ---

>>> COPY /lustre/isaac/scratch/gjones39/scpfiles/ANO-RCC-VTZP/ozone_141.50/3252801/ozone_141.50.scf.h5 /lustre/isaac/scratch/gjones39/scpfiles/ANO-RCC-VTZP/ozone_141.50/

*** symbolic link created: INPORB -> ozone_141.50.ScfOrb
--- Start Module: rasscf at Mon May 12 23:35:45 2025 ---
 
()()()()()()()()()()()()()()()()()()()()()()()()()()()()()()()()()()()()()()()()()()()()()()()()()()

                                              &RASSCF

                                   only a single process is used
                       available to each process: 62 GB of memory, 1 thread?
()()()()()()()()()()()()()()()()()()()()()()()()()()()()()()()()()()()()()()()()()()()()()()()()()()
 
 
      Header of the ONEINT file:
      --------------------------
      
      Integrals generated by seward 4.2.0  , Mon May 12 23:35:34 2025
 
 
      OrdInt status: non-squared
 
 
      Cartesian coordinates in Angstrom:
      -----------------------------------------------------
      No.  Label        X            Y            Z        
      -----------------------------------------------------
       1   O1         0.42134500   1.20654600   0.00000000
       2   O2         0.00000000   0.00000000   0.00000000
       3   O3         0.42134500  -1.20654600   0.00000000
      -----------------------------------------------------
      Nuclear repulsion energy =   67.03535274
 
++    Wave function specifications:
      -----------------------------
 
      Number of closed shell electrons          12
      Number of electrons in active shells      12
      Max number of holes in RAS1 space          0
      Max nr of electrons in RAS3 space          0
      Number of inactive orbitals                6
      Number of active orbitals                  9
      Number of secondary orbitals              75
      Spin quantum number                      0.0
      State symmetry                             1
--
 
++    Orbital specifications:
      -----------------------
 
      Symmetry species                           1
                                                 a
      Frozen orbitals                            0
      Inactive orbitals                          6
      Active orbitals                            9
      RAS1 orbitals                              0
      RAS2 orbitals                              9
      RAS3 orbitals                              0
      Secondary orbitals                        75
      Deleted orbitals                           0
      Number of basis functions                 90
--
 
++    CI expansion specifications:
      ----------------------------
 
      Number of CSFs                          2520
      Number of determinants                  3570
      Number of root(s) required                 3
      Root chosen for geometry opt.              3
      CI roots used                              1     2     3
      weights                                0.333 0.333 0.333
      highest root included in the CI            3
      max. size of the explicit Hamiltonian    500
--
 
++    Optimization specifications:
      ----------------------------
 
      RASSCF algorithm: Conventional
      Maximum number of macro iterations       200
      Maximum number of SX iterations          100
      Threshold for RASSCF energy            0.100E-07
      Threshold for max MO rotation          0.100E+00
      Threshold for max BLB element          0.100E-03
      Level shift parameter                  0.500E+00
      Make Quasi-Newton update
--
 
      The MO-coefficients are taken from the file:
      /lustre/isaac/scratch/gjones39/scpfiles/ANO-RCC-VTZP/ozone_141.25/ozone_141.25.RasOrb                                           
      Title: RASSCF average (pseudo-natural) orbitals                                      
 
      Total molecular charge    0.00
 
      ************************************************************************************************************************
      *                                                                                                                      *
      *                                            Wave function control section                                             *
      *                                                                                                                      *
      ************************************************************************************************************************
 
 
                                         RASSCF iterations: Energy and convergence statistics
                                         ----------------------------------------------------
 
      Iter CI   SX   CI       RASSCF       Energy    max ROT     max BLB   max BLB  Level Ln srch  Step   QN   Walltime
          iter iter root      energy       change     param      element    value   shift minimum  type update hh:mm:ss
 Nr of preliminary CI iterations:   6
        1   1    6    0  -224.64286904    0.00E+00   0.30E-03    4  14 1  0.11E-02*  0.00   0.00    SX    NO    0:00:01
        2   1    6    0  -224.64287132   -0.23E-05* -0.16E-03    4  14 1  0.19E-03*  0.00   0.00    SX    NO    0:00:00
        3   1    5    0  -224.64287140   -0.85E-07* -0.10E-03    6  14 1 -0.55E-04   0.00   0.00    SX    NO    0:00:00
        4   7    6    0  -224.64287371   -0.23E-05*  0.17E-03    4  14 1  0.18E-03*  0.00   0.00    SX    NO    0:00:00
        5   3    5    0  -224.64287383   -0.12E-06* -0.65E-04    6  22 1  0.64E-04   0.00   1.28    QN   YES    0:00:00
        6   4    5    0  -224.64287385   -0.22E-07* -0.39E-04    6  22 1  0.15E-04   0.00   0.98    QN   YES    0:00:00
        7   1    4    0  -224.64287386   -0.19E-08  -0.11E-03    6  22 1  0.23E-04   0.00   1.36    QN   YES    0:00:00
      Convergence after  7 iterations
 
  Dmat in MO in SXCTL bf call to SXHAM                                                                                    
  mat. size =     9x    9
 
        1.9606551842353719
        0.0000000142617517      1.9486625825916062
       -0.0000000284633425     -0.0000000000057481      1.9735369081402270
        0.0006740348762730     -0.0000000197750338      0.0000015213222083      1.6121898467504547
       -0.0000001510947596     -0.0003867797770152     -0.0000000010564315      0.0000000111501476      1.6973681885469991
       -0.0000000001804878      0.0000001514685364      0.0000000281660460     -0.0000000004228839      0.0000004682634198
        1.8096986666667683
       -0.0000001090377469     -0.0000000003313293      0.0002290454042155     -0.0000005807140204      0.0000000004212933
        0.0000001367283000      0.8819926377161239
        0.0014896930505919      0.0000000956737426      0.0000000539485954      0.0019644647764697     -0.0000000220415017
       -0.0000000000532874      0.0000007939461863      0.0725923395644542
        0.0000000096331125     -0.0000285388109805      0.0000000000158618     -0.0000000680165956     -0.0021656483154307
       -0.0000001064650731     -0.0000000001002369     -0.0000000287936306      0.0433036457879920
        8   3    4    0  -224.64287386    0.14E-08  -0.11E-03    6  22 1 -0.33E-04   0.00   1.36    QN   YES    0:00:00
 
      ************************************************************************************************************************
                                                      Wave function printout:
                       occupation of active orbitals, and spin coupling of open shells (u,d: Spin up or down)
      ************************************************************************************************************************
 
      Note: transformation to natural orbitals
      has been made, which may change the order of the CSFs.
 
      printout of CI-coefficients larger than  0.05 for root  1
      energy=    -224.700831
      conf/sym  111111111     Coeff  Weight
             1  222222000  -0.90551 0.81995
             4  222220200   0.28397 0.08064
            10  2222udud0   0.06126 0.00375
            12  2222uudd0   0.06526 0.00426
            72  222u2du0d  -0.05681 0.00323
            74  222u2ud0d  -0.05826 0.00339
           126  22u222d00  -0.06392 0.00409
           205  2u222dud0   0.07369 0.00543
           207  2u222udd0   0.07163 0.00513
           551  220222200   0.07822 0.00612
           611  2ud222u0d   0.06298 0.00397
           652  u2d222ud0  -0.06597 0.00435
           731  202222002   0.05861 0.00344
           764  ud22220ud  -0.06798 0.00462
           805  022222020   0.06798 0.00462
           992  2uu222d0d   0.06535 0.00427
          1031  u2u222dd0  -0.05478 0.00300
 
      printout of CI-coefficients larger than  0.05 for root  2
      energy=    -224.632696
      conf/sym  111111111     Coeff  Weight
             5  2222ud200   0.31565 0.09963
            11  222202ud0   0.05632 0.00317
            51  222u22d00  -0.90474 0.81855
            61  222uud2d0  -0.05040 0.00254
           202  2u222d200  -0.07141 0.00510
           208  2u22u2dd0   0.06468 0.00418
           897  2u2u2d2d0   0.05549 0.00308
          1285  2udu2220d   0.05214 0.00272
          1381  202u22d02   0.06037 0.00365
          1406  ud2u22dud  -0.07319 0.00536
          1442  022u22d20   0.07566 0.00572
          1485  2uud2220d   0.05988 0.00359
          1521  u2ud222d0  -0.05560 0.00309
 
      printout of CI-coefficients larger than  0.05 for root  3
      energy=    -224.595095
      conf/sym  111111111     Coeff  Weight
             3  2222u2d00   0.83738 0.70120
            52  222u2d200  -0.46934 0.22028
           277  u2222d200   0.05809 0.00337
           281  u222d2ud0   0.05020 0.00252
           361  222022u0d   0.05534 0.00306
           466  2u2du2dud   0.05072 0.00257
           654  u2d2u22d0   0.05482 0.00300
           733  2022u2d02  -0.05654 0.00320
           766  ud22u2dud   0.06961 0.00485
           807  0222u2d20  -0.07203 0.00519
           994  2uu2d220d  -0.05354 0.00287
          1033  u2u2d22d0   0.05303 0.00281
          1407  ud2u2d2ud  -0.05095 0.00260
 
      Natural orbitals and occupation numbers for root  1
      sym 1:   1.953834   1.941627   1.959524   1.988400   1.990364   1.792137   0.250151   0.076654   0.047309
 
      Natural orbitals and occupation numbers for root  2
      sym 1:   1.963621   1.947083   1.983434   1.122630   1.858475   1.878071   1.135389   0.070907   0.040391
 
      Natural orbitals and occupation numbers for root  3
      sym 1:   1.957153   1.953470   1.982939   1.734011   1.248528   1.758888   1.255153   0.069103   0.040755
 
      ************************************************************************************************************************
      *                                                                                                                      *
      *                                                    Final results                                                     *
      *                                                                                                                      *
      ************************************************************************************************************************
 
 
++    Wave function specifications:
      -----------------------------
 
      Number of closed shell electrons          12
      Number of electrons in active shells      12
      Max number of holes in RAS1 space          0
      Max nr of electrons in RAS3 space          0
      Number of inactive orbitals                6
      Number of active orbitals                  9
      Number of secondary orbitals              75
      Spin quantum number                      0.0
      State symmetry                             1
--
 
++    Orbital specifications:
      -----------------------
 
      Symmetry species                           1
                                                 a
      Frozen orbitals                            0
      Inactive orbitals                          6
      Active orbitals                            9
      RAS1 orbitals                              0
      RAS2 orbitals                              9
      RAS3 orbitals                              0
      Secondary orbitals                        75
      Deleted orbitals                           0
      Number of basis functions                 90
--
 
++    CI expansion specifications:
      ----------------------------
 
      Number of CSFs                          2520
      Number of determinants                  3570
      Number of root(s) required                 3
      CI roots used                              1     2     3
      weights                                0.333 0.333 0.333
      highest root included in the CI            3
      Root passed to geometry opt.               3
--
 
++    Final optimization conditions:
      ------------------------------
 
      Average CI energy                            -224.64287386
      RASSCF energy for state  3                   -224.59509509
      Super-CI energy                                -0.00000000
      RASSCF energy change                            0.00000000
      Max change in MO coefficients               0.102E-03
      Max non-diagonal density matrix element    -0.110E-03
      Maximum BLB matrix element                 -0.334E-04
      (orbital pair   6,  22 in symmetry   1)
      Norm of electronic gradient            0.767E-01
--
 
 
      Final state energy(ies):
      ------------------------
 
::    RASSCF root number  1 Total energy:   -224.70083088
::    RASSCF root number  2 Total energy:   -224.63269560
::    RASSCF root number  3 Total energy:   -224.59509509
 
++    Molecular orbitals:
      -------------------
 
      Pseudonatural active orbitals and approximate occupation numbers
 
 
 
 
      Molecular orbitals for symmetry species 1: a  
 
 
      Orbital                1         2         3         4         5         6         7         8         9        10
      Energy          -20.7862  -20.7064  -20.7064   -1.5205   -1.3187   -1.0249    0.0000    0.0000    0.0000    0.0000
      Occ. No.          2.0000    2.0000    2.0000    2.0000    2.0000    2.0000    1.9607    1.9487    1.9735    1.6122
 
    1 O1     1s         0.0042   -0.7023    0.7105   -0.0066    0.0002    0.0121   -0.0144   -0.0252    0.0000   -0.0010
    2 O1     2s         0.0031    0.0047   -0.0050    0.4913   -0.7007    0.5395   -0.1162   -0.1300    0.0000   -0.0554
    3 O1     3s         0.0017    0.0035   -0.0036    0.0009   -0.0063    0.0203   -0.0219   -0.0553    0.0000    0.0113
    4 O1     4s         0.0003    0.0006   -0.0006    0.0012   -0.0008    0.0023   -0.0036   -0.0110    0.0000    0.0044
    5 O1     2px       -0.0005   -0.0008    0.0008   -0.0539   -0.0349    0.1064    0.1228   -0.1801    0.0000    0.7078
    6 O1     3px       -0.0005   -0.0009    0.0006    0.0156    0.0030   -0.0208   -0.0085    0.0220    0.0000    0.0167
    7 O1     4px       -0.0001    0.0003   -0.0004    0.0024    0.0008   -0.0008   -0.0013    0.0001   -0.0000   -0.0043
    8 O1     2py       -0.0018   -0.0017    0.0022    0.0314   -0.0866    0.0614   -0.3355   -0.4040    0.0000    0.0668
    9 O1     3py       -0.0011   -0.0020    0.0024   -0.0003    0.0025   -0.0179    0.0338    0.0518   -0.0000   -0.0124
   10 O1     4py        0.0005    0.0013   -0.0014   -0.0014   -0.0014    0.0030    0.0035    0.0041   -0.0000   -0.0022
   11 O1     2pz        0.0000   -0.0000    0.0000   -0.0000    0.0000   -0.0000    0.0000   -0.0000    0.3536   -0.0000
   12 O1     3pz       -0.0000    0.0000   -0.0000    0.0000   -0.0000   -0.0000   -0.0000   -0.0000   -0.0246    0.0000
   13 O1     4pz       -0.0000   -0.0000    0.0000    0.0000    0.0000   -0.0000   -0.0000    0.0000   -0.0046    0.0000
   14 O1     3d2-       0.0002    0.0005   -0.0006    0.0108   -0.0014   -0.0131   -0.0042    0.0200   -0.0000   -0.0085
   15 O1     4d2-       0.0001    0.0004   -0.0004    0.0009   -0.0004   -0.0010   -0.0012    0.0014    0.0000   -0.0007
   16 O1     3d1-      -0.0000   -0.0000    0.0000    0.0000    0.0000    0.0000   -0.0000    0.0000   -0.0256    0.0000
   17 O1     4d1-      -0.0000   -0.0000   -0.0000    0.0000    0.0000    0.0000   -0.0000    0.0000   -0.0034    0.0000
   18 O1     3d0       -0.0003   -0.0005    0.0006   -0.0054    0.0017    0.0048   -0.0124   -0.0169    0.0000    0.0029
   19 O1     4d0       -0.0002   -0.0003    0.0004   -0.0005    0.0006    0.0001   -0.0010   -0.0010   -0.0000   -0.0005
   20 O1     3d1+      -0.0000   -0.0000    0.0000    0.0000   -0.0000    0.0000   -0.0000    0.0000   -0.0076    0.0000
   21 O1     4d1+      -0.0000   -0.0000   -0.0000    0.0000   -0.0000   -0.0000   -0.0000    0.0000   -0.0009    0.0000
   22 O1     3d2+      -0.0005   -0.0008    0.0009   -0.0041    0.0020    0.0031   -0.0290   -0.0228    0.0000    0.0023
   23 O1     4d2+      -0.0002   -0.0004    0.0005   -0.0009    0.0007    0.0003   -0.0031   -0.0017    0.0000   -0.0010
   24 O1     4f3-       0.0001    0.0001   -0.0001    0.0003   -0.0011    0.0009    0.0071    0.0038   -0.0000    0.0001
   25 O1     4f2-       0.0000    0.0000   -0.0000   -0.0000    0.0000   -0.0000    0.0000   -0.0000    0.0030   -0.0000
   26 O1     4f1-       0.0001    0.0001   -0.0001    0.0021   -0.0013   -0.0010    0.0039    0.0049   -0.0000   -0.0012
   27 O1     4f0       -0.0000   -0.0000    0.0000    0.0000    0.0000    0.0000   -0.0000    0.0000   -0.0043    0.0000
   28 O1     4f1+       0.0000    0.0000   -0.0001    0.0012   -0.0004   -0.0010   -0.0001    0.0017   -0.0000   -0.0008
   29 O1     4f2+      -0.0000   -0.0000    0.0000    0.0000    0.0000    0.0000   -0.0000    0.0000   -0.0050    0.0000
   30 O1     4f3+       0.0000    0.0001   -0.0001    0.0035   -0.0014   -0.0033    0.0002    0.0063   -0.0000   -0.0028
   31 O2     1s         0.9991   -0.0000   -0.0037   -0.0222    0.0000   -0.0187   -0.0197    0.0000    0.0000    0.0304
   32 O2     2s        -0.0058    0.0001    0.0104    0.4968   -0.0000   -0.7366    0.2684    0.0000    0.0000    0.3130
   33 O2     3s        -0.0044    0.0000    0.0058   -0.0441    0.0000   -0.0370   -0.0510    0.0000    0.0000    0.0825
   34 O2     4s        -0.0006    0.0000    0.0009   -0.0082    0.0000   -0.0074   -0.0107    0.0000    0.0000    0.0181
   35 O2     2px       -0.0008    0.0000    0.0029   -0.2162    0.0000    0.3600    0.6411   -0.0000   -0.0000   -0.4092
   36 O2     3px       -0.0012    0.0000    0.0015   -0.0120    0.0000   -0.0239   -0.0572    0.0000   -0.0000   -0.0378
   37 O2     4px        0.0016   -0.0000   -0.0005    0.0009   -0.0000   -0.0020   -0.0106   -0.0000    0.0000   -0.0044
   38 O2     2py        0.0000   -0.0060    0.0000   -0.0000   -0.0513    0.0000    0.0000    0.6047    0.0000   -0.0000
   39 O2     3py        0.0000   -0.0037    0.0000    0.0000    0.0355   -0.0000   -0.0000   -0.0776   -0.0000    0.0000
   40 O2     4py       -0.0000    0.0010   -0.0000    0.0000   -0.0054    0.0000   -0.0000   -0.0044    0.0000    0.0000
   41 O2     2pz        0.0000    0.0000    0.0000   -0.0000    0.0000   -0.0000    0.0000   -0.0000    0.7235   -0.0000
   42 O2     3pz       -0.0000   -0.0000   -0.0000    0.0000   -0.0000    0.0000   -0.0000    0.0000   -0.0501    0.0000
   43 O2     4pz        0.0000    0.0000   -0.0000    0.0000   -0.0000   -0.0000   -0.0000    0.0000   -0.0135    0.0000
   44 O2     3d2-       0.0000   -0.0010    0.0000   -0.0000   -0.0150    0.0000    0.0000    0.0368    0.0000   -0.0000
   45 O2     4d2-       0.0000   -0.0005    0.0000   -0.0000   -0.0013   -0.0000    0.0000    0.0030    0.0000   -0.0000
   46 O2     3d1-      -0.0000   -0.0000    0.0000   -0.0000   -0.0000    0.0000    0.0000   -0.0000    0.0000   -0.0000
   47 O2     4d1-       0.0000   -0.0000    0.0000   -0.0000   -0.0000    0.0000    0.0000   -0.0000    0.0000    0.0000
   48 O2     3d0        0.0007   -0.0000   -0.0010   -0.0067   -0.0000   -0.0098   -0.0200   -0.0000    0.0000    0.0193
   49 O2     4d0        0.0005   -0.0000   -0.0005    0.0010   -0.0000   -0.0009   -0.0010   -0.0000    0.0000    0.0022
   50 O2     3d1+      -0.0000   -0.0000    0.0000   -0.0000    0.0000    0.0000    0.0000   -0.0000    0.0235   -0.0000
   51 O2     4d1+       0.0000    0.0000    0.0000    0.0000   -0.0000    0.0000    0.0000   -0.0000    0.0026   -0.0000
   52 O2     3d2+       0.0008   -0.0000   -0.0012   -0.0206    0.0000    0.0028    0.0055   -0.0000    0.0000    0.0374
   53 O2     4d2+       0.0005   -0.0000   -0.0006   -0.0013   -0.0000    0.0008    0.0007   -0.0000    0.0000    0.0058
   54 O2     4f3-      -0.0000    0.0001   -0.0000   -0.0000    0.0022   -0.0000   -0.0000   -0.0071    0.0000   -0.0000
   55 O2     4f2-       0.0000   -0.0000    0.0000   -0.0000   -0.0000    0.0000    0.0000   -0.0000    0.0000   -0.0000
   56 O2     4f1-      -0.0000    0.0001   -0.0000    0.0000    0.0036   -0.0000   -0.0000   -0.0084   -0.0000    0.0000
   57 O2     4f0       -0.0000   -0.0000   -0.0000    0.0000   -0.0000   -0.0000   -0.0000    0.0000   -0.0075    0.0000
   58 O2     4f1+       0.0001   -0.0000   -0.0001   -0.0009    0.0000   -0.0014   -0.0040    0.0000    0.0000    0.0005
   59 O2     4f2+      -0.0000   -0.0000   -0.0000    0.0000   -0.0000    0.0000   -0.0000    0.0000   -0.0072    0.0000
   60 O2     4f3+       0.0002   -0.0000   -0.0002   -0.0042    0.0000   -0.0029   -0.0104    0.0000    0.0000    0.0033
   61 O3     1s         0.0042    0.7105    0.7022   -0.0066   -0.0002    0.0121   -0.0144    0.0252    0.0000   -0.0010
   62 O3     2s         0.0031   -0.0047   -0.0050    0.4913    0.7007    0.5395   -0.1162    0.1300    0.0000   -0.0554
   63 O3     3s         0.0017   -0.0035   -0.0035    0.0009    0.0063    0.0203   -0.0219    0.0553    0.0000    0.0113
   64 O3     4s         0.0003   -0.0006   -0.0006    0.0012    0.0008    0.0023   -0.0036    0.0110    0.0000    0.0044
   65 O3     2px       -0.0005    0.0008    0.0008   -0.0539    0.0349    0.1064    0.1228    0.1801    0.0000    0.7078
   66 O3     3px       -0.0005    0.0009    0.0006    0.0156   -0.0030   -0.0208   -0.0085   -0.0220    0.0000    0.0167
   67 O3     4px       -0.0001   -0.0003   -0.0004    0.0024   -0.0008   -0.0008   -0.0013   -0.0001   -0.0000   -0.0043
   68 O3     2py        0.0018   -0.0017   -0.0022   -0.0314   -0.0866   -0.0614    0.3355   -0.4040   -0.0000   -0.0668
   69 O3     3py        0.0011   -0.0020   -0.0024    0.0003    0.0025    0.0179   -0.0338    0.0518    0.0000    0.0124
   70 O3     4py       -0.0005    0.0014    0.0014    0.0014   -0.0014   -0.0030   -0.0035    0.0041    0.0000    0.0022
   71 O3     2pz        0.0000    0.0000    0.0000   -0.0000    0.0000   -0.0000    0.0000    0.0000    0.3536   -0.0000
   72 O3     3pz       -0.0000   -0.0000   -0.0000    0.0000    0.0000   -0.0000   -0.0000    0.0000   -0.0246    0.0000
   73 O3     4pz       -0.0000    0.0000    0.0000    0.0000   -0.0000   -0.0000   -0.0000   -0.0000   -0.0046    0.0000
   74 O3     3d2-      -0.0002    0.0005    0.0006   -0.0108   -0.0014    0.0131    0.0042    0.0200    0.0000    0.0085
   75 O3     4d2-      -0.0001    0.0004    0.0003   -0.0009   -0.0004    0.0010    0.0012    0.0014   -0.0000    0.0007
   76 O3     3d1-       0.0000   -0.0000   -0.0000   -0.0000    0.0000   -0.0000    0.0000    0.0000    0.0256   -0.0000
   77 O3     4d1-       0.0000   -0.0000    0.0000   -0.0000    0.0000   -0.0000    0.0000    0.0000    0.0034   -0.0000
   78 O3     3d0       -0.0003    0.0005    0.0006   -0.0054   -0.0017    0.0048   -0.0124    0.0169    0.0000    0.0029
   79 O3     4d0       -0.0002    0.0003    0.0004   -0.0005   -0.0006    0.0001   -0.0010    0.0010   -0.0000   -0.0005
   80 O3     3d1+      -0.0000    0.0000    0.0000    0.0000    0.0000    0.0000   -0.0000   -0.0000   -0.0076    0.0000
   81 O3     4d1+      -0.0000    0.0000   -0.0000    0.0000    0.0000   -0.0000   -0.0000   -0.0000   -0.0009    0.0000
   82 O3     3d2+      -0.0005    0.0008    0.0008   -0.0041   -0.0020    0.0031   -0.0290    0.0228    0.0000    0.0023
   83 O3     4d2+      -0.0002    0.0004    0.0005   -0.0009   -0.0007    0.0003   -0.0031    0.0017    0.0000   -0.0010
   84 O3     4f3-      -0.0001    0.0001    0.0001   -0.0003   -0.0011   -0.0009   -0.0071    0.0038    0.0000   -0.0001
   85 O3     4f2-      -0.0000    0.0000    0.0000    0.0000    0.0000    0.0000   -0.0000   -0.0000   -0.0030    0.0000
   86 O3     4f1-      -0.0001    0.0001    0.0001   -0.0021   -0.0013    0.0010   -0.0039    0.0049    0.0000    0.0012
   87 O3     4f0       -0.0000    0.0000    0.0000    0.0000   -0.0000    0.0000   -0.0000   -0.0000   -0.0043    0.0000
   88 O3     4f1+       0.0000   -0.0000   -0.0001    0.0012    0.0004   -0.0010   -0.0001   -0.0017   -0.0000   -0.0008
   89 O3     4f2+      -0.0000    0.0000   -0.0000    0.0000   -0.0000    0.0000   -0.0000   -0.0000   -0.0050    0.0000
   90 O3     4f3+       0.0000   -0.0001   -0.0001    0.0035    0.0014   -0.0033    0.0002   -0.0063   -0.0000   -0.0028
 
 
      Orbital               11        12        13        14        15        16        17        18        19        20
      Energy            0.0000    0.0000    0.0000    0.0000    0.0000    0.1803    0.2234    0.2366    0.2845    0.3609
      Occ. No.          1.6974    1.8097    0.8820    0.0726    0.0433    0.0000    0.0000    0.0000    0.0000    0.0000
 
    1 O1     1s         0.0021    0.0000   -0.0000   -0.0226   -0.0463   -0.2124   -0.1073    0.0000    0.0898   -0.0084
    2 O1     2s        -0.0011    0.0000   -0.0000   -0.3008   -0.4599   -1.5283   -0.7539    0.0000    0.6389   -0.0099
    3 O1     3s         0.0043    0.0000   -0.0000   -0.0473   -0.0991   -0.9302   -0.4855    0.0000    0.4655    0.0222
    4 O1     4s         0.0013    0.0000    0.0000   -0.0048   -0.0156   -0.2100   -0.1058    0.0000    0.1074    0.0103
    5 O1     2px       -0.6452   -0.0000    0.0000    0.0303    0.2880    0.2892    0.0688   -0.0000   -0.1393   -0.1854
    6 O1     3px        0.0008    0.0000    0.0000    0.0339   -0.0752    0.3472    0.3924   -0.0000    0.1897   -0.8499
    7 O1     4px        0.0067    0.0000   -0.0000   -0.0018    0.0117    0.0466    0.1486   -0.0000    0.1387   -0.3375
    8 O1     2py        0.3012    0.0000    0.0000    0.6899    0.6101    0.5219    0.5167    0.0000   -0.5760   -0.1510
    9 O1     3py        0.0010   -0.0000   -0.0000   -0.0736   -0.0246    0.7615    0.6116   -0.0000   -0.9780   -0.1330
   10 O1     4py       -0.0033   -0.0000   -0.0000   -0.0071   -0.0142    0.1108    0.0718    0.0000   -0.2294   -0.0205
   11 O1     2pz        0.0000   -0.7035    0.6524   -0.0000   -0.0000   -0.0000   -0.0000   -0.0436   -0.0000   -0.0000
   12 O1     3pz        0.0000    0.0007    0.0133   -0.0000    0.0000   -0.0000    0.0000    0.4098    0.0000    0.0000
   13 O1     4pz       -0.0000    0.0085   -0.0033    0.0000   -0.0000   -0.0000    0.0000    0.2111    0.0000    0.0000
   14 O1     3d2-       0.0118    0.0000   -0.0000   -0.0090    0.0117   -0.0708   -0.0387    0.0000    0.0338    0.0161
   15 O1     4d2-       0.0020    0.0000   -0.0000   -0.0009    0.0003   -0.0445   -0.0266    0.0000    0.0210    0.0198
   16 O1     3d1-      -0.0000    0.0171    0.0059   -0.0000   -0.0000    0.0000    0.0000    0.0051    0.0000   -0.0000
   17 O1     4d1-      -0.0000    0.0028    0.0009    0.0000   -0.0000    0.0000   -0.0000   -0.0019    0.0000   -0.0000
   18 O1     3d0        0.0031    0.0000    0.0000    0.0105    0.0066    0.0589    0.0502   -0.0000   -0.0479   -0.0161
   19 O1     4d0        0.0007    0.0000    0.0000    0.0027    0.0055    0.0357    0.0322   -0.0000   -0.0327   -0.0141
   20 O1     3d1+      -0.0000    0.0046    0.0027   -0.0000   -0.0000    0.0000    0.0000    0.0032    0.0000   -0.0000
   21 O1     4d1+      -0.0000    0.0004    0.0003    0.0000    0.0000    0.0000    0.0000    0.0002    0.0000   -0.0000
   22 O1     3d2+       0.0130    0.0000    0.0000    0.0203    0.0193    0.0770    0.0769   -0.0000   -0.0756   -0.0036
   23 O1     4d2+       0.0021    0.0000    0.0000    0.0075    0.0104    0.0449    0.0482   -0.0000   -0.0549   -0.0040
   24 O1     4f3-      -0.0038   -0.0000   -0.0000   -0.0026   -0.0050   -0.0064   -0.0018   -0.0000    0.0102   -0.0027
   25 O1     4f2-       0.0000   -0.0018   -0.0007    0.0000    0.0000   -0.0000    0.0000    0.0017    0.0000    0.0000
   26 O1     4f1-      -0.0013   -0.0000   -0.0000   -0.0031   -0.0032   -0.0057   -0.0061    0.0000    0.0089    0.0054
   27 O1     4f0       -0.0000    0.0025    0.0018   -0.0000   -0.0000    0.0000   -0.0000   -0.0021   -0.0000   -0.0000
   28 O1     4f1+       0.0005   -0.0000   -0.0000   -0.0010   -0.0002   -0.0013   -0.0027    0.0000    0.0019    0.0041
   29 O1     4f2+      -0.0000    0.0031    0.0001    0.0000    0.0000   -0.0000   -0.0000   -0.0024    0.0000   -0.0000
   30 O1     4f3+       0.0023    0.0000   -0.0000   -0.0023    0.0009   -0.0069   -0.0070    0.0000    0.0059    0.0097
   31 O2     1s        -0.0000   -0.0000    0.0000    0.0787   -0.0000    0.0000    0.2606   -0.0000   -0.2805    0.0000
   32 O2     2s        -0.0000   -0.0000    0.0000    0.8188   -0.0000    0.0000    1.7861   -0.0000   -1.8766    0.0000
   33 O2     3s        -0.0000   -0.0000    0.0000    0.0742   -0.0000   -0.0000    1.0905   -0.0000   -1.1061    0.0000
   34 O2     4s         0.0000   -0.0000    0.0000    0.0262    0.0000   -0.0000    0.2298   -0.0000   -0.2221    0.0000
   35 O2     2px        0.0000    0.0000    0.0000    0.5688    0.0000   -0.0000    0.2663    0.0000   -0.4469   -0.0000
   36 O2     3px       -0.0000    0.0000   -0.0000   -0.1453   -0.0000    0.0000    0.5903   -0.0000   -0.3845   -0.0000
   37 O2     4px       -0.0000    0.0000    0.0000    0.0200    0.0000    0.0000    0.1618   -0.0000    0.0290   -0.0000
   38 O2     2py       -0.0193   -0.0000   -0.0000   -0.0000    1.0830    1.3880    0.0000   -0.0000   -0.0000   -0.0699
   39 O2     3py       -0.0145    0.0000   -0.0000   -0.0000   -0.0890    1.5714   -0.0000   -0.0000   -0.0000    0.2176
   40 O2     4py       -0.0025   -0.0000    0.0000    0.0000    0.0034    0.1671   -0.0000   -0.0000   -0.0000    0.1475
   41 O2     2pz        0.0000   -0.0000   -0.7475    0.0000    0.0000   -0.0000   -0.0000   -0.1332    0.0000    0.0000
   42 O2     3pz        0.0000   -0.0000   -0.0312    0.0000    0.0000   -0.0000    0.0000    0.2271    0.0000    0.0000
   43 O2     4pz        0.0000    0.0000    0.0023    0.0000   -0.0000   -0.0000    0.0000    0.1643    0.0000    0.0000
   44 O2     3d2-      -0.0393   -0.0000   -0.0000   -0.0000    0.0211    0.1318   -0.0000   -0.0000   -0.0000    0.0749
   45 O2     4d2-      -0.0068   -0.0000   -0.0000   -0.0000   -0.0075    0.0786   -0.0000   -0.0000   -0.0000    0.0558
   46 O2     3d1-       0.0000   -0.0424   -0.0000   -0.0000   -0.0000    0.0000   -0.0000    0.0000   -0.0000   -0.0000
   47 O2     4d1-       0.0000   -0.0073   -0.0000    0.0000   -0.0000    0.0000    0.0000    0.0000   -0.0000   -0.0000
   48 O2     3d0        0.0000   -0.0000    0.0000    0.0060    0.0000   -0.0000   -0.0861    0.0000    0.0874   -0.0000
[...]

>>> EXPORT i = B

>>> EXPORT j = P

>>> IF (-FILE GMJ_e2_${i}_${j}_${k}_.csv)

>>> COPY /lustre/isaac/scratch/gjones39/scpfiles/ANO-RCC-VTZP/ozone_141.50/3252801/GMJ_RHS_B_P_3_.csv /lustre/isaac/scratch/gjones39/scpfiles/ANO-RCC-VTZP/ozone_141.50/GMJ_RHS_B_P_3_.csv

>>> COPY /lustre/isaac/scratch/gjones39/scpfiles/ANO-RCC-VTZP/ozone_141.50/3252801/GMJ_IVECW_B_P_3_.csv /lustre/isaac/scratch/gjones39/scpfiles/ANO-RCC-VTZP/ozone_141.50/GMJ_IVECW_B_P_3_.csv

>>> COPY /lustre/isaac/scratch/gjones39/scpfiles/ANO-RCC-VTZP/ozone_141.50/3252801/GMJ_IVECX_B_P_3_.csv /lustre/isaac/scratch/gjones39/scpfiles/ANO-RCC-VTZP/ozone_141.50/GMJ_IVECX_B_P_3_.csv

>>> COPY /lustre/isaac/scratch/gjones39/scpfiles/ANO-RCC-VTZP/ozone_141.50/3252801/GMJ_IVECC2_B_P_3_.csv /lustre/isaac/scratch/gjones39/scpfiles/ANO-RCC-VTZP/ozone_141.50/GMJ_IVECC2_B_P_3_.csv

>>> COPY /lustre/isaac/scratch/gjones39/scpfiles/ANO-RCC-VTZP/ozone_141.50/3252801/GMJ_e2_B_P_3_.csv /lustre/isaac/scratch/gjones39/scpfiles/ANO-RCC-VTZP/ozone_141.50/GMJ_e2_B_P_3_.csv

>>> END FOREACH

>>> EXPORT j = M

>>> IF (-FILE GMJ_e2_${i}_${j}_${k}_.csv)

>>> COPY /lustre/isaac/scratch/gjones39/scpfiles/ANO-RCC-VTZP/ozone_141.50/3252801/GMJ_RHS_B_M_3_.csv /lustre/isaac/scratch/gjones39/scpfiles/ANO-RCC-VTZP/ozone_141.50/GMJ_RHS_B_M_3_.csv

>>> COPY /lustre/isaac/scratch/gjones39/scpfiles/ANO-RCC-VTZP/ozone_141.50/3252801/GMJ_IVECW_B_M_3_.csv /lustre/isaac/scratch/gjones39/scpfiles/ANO-RCC-VTZP/ozone_141.50/GMJ_IVECW_B_M_3_.csv

>>> COPY /lustre/isaac/scratch/gjones39/scpfiles/ANO-RCC-VTZP/ozone_141.50/3252801/GMJ_IVECX_B_M_3_.csv /lustre/isaac/scratch/gjones39/scpfiles/ANO-RCC-VTZP/ozone_141.50/GMJ_IVECX_B_M_3_.csv

>>> COPY /lustre/isaac/scratch/gjones39/scpfiles/ANO-RCC-VTZP/ozone_141.50/3252801/GMJ_IVECC2_B_M_3_.csv /lustre/isaac/scratch/gjones39/scpfiles/ANO-RCC-VTZP/ozone_141.50/GMJ_IVECC2_B_M_3_.csv

>>> COPY /lustre/isaac/scratch/gjones39/scpfiles/ANO-RCC-VTZP/ozone_141.50/3252801/GMJ_e2_B_M_3_.csv /lustre/isaac/scratch/gjones39/scpfiles/ANO-RCC-VTZP/ozone_141.50/GMJ_e2_B_M_3_.csv

>>> END FOREACH

>>> END FOREACH

>>> EXPORT i = E

>>> EXPORT j = P

>>> IF (-FILE GMJ_e2_${i}_${j}_${k}_.csv)

>>> COPY /lustre/isaac/scratch/gjones39/scpfiles/ANO-RCC-VTZP/ozone_141.50/3252801/GMJ_RHS_E_P_3_.csv /lustre/isaac/scratch/gjones39/scpfiles/ANO-RCC-VTZP/ozone_141.50/GMJ_RHS_E_P_3_.csv

>>> COPY /lustre/isaac/scratch/gjones39/scpfiles/ANO-RCC-VTZP/ozone_141.50/3252801/GMJ_IVECW_E_P_3_.csv /lustre/isaac/scratch/gjones39/scpfiles/ANO-RCC-VTZP/ozone_141.50/GMJ_IVECW_E_P_3_.csv

>>> COPY /lustre/isaac/scratch/gjones39/scpfiles/ANO-RCC-VTZP/ozone_141.50/3252801/GMJ_IVECX_E_P_3_.csv /lustre/isaac/scratch/gjones39/scpfiles/ANO-RCC-VTZP/ozone_141.50/GMJ_IVECX_E_P_3_.csv

>>> COPY /lustre/isaac/scratch/gjones39/scpfiles/ANO-RCC-VTZP/ozone_141.50/3252801/GMJ_IVECC2_E_P_3_.csv /lustre/isaac/scratch/gjones39/scpfiles/ANO-RCC-VTZP/ozone_141.50/GMJ_IVECC2_E_P_3_.csv

>>> COPY /lustre/isaac/scratch/gjones39/scpfiles/ANO-RCC-VTZP/ozone_141.50/3252801/GMJ_e2_E_P_3_.csv /lustre/isaac/scratch/gjones39/scpfiles/ANO-RCC-VTZP/ozone_141.50/GMJ_e2_E_P_3_.csv

>>> END FOREACH

>>> EXPORT j = M

>>> IF (-FILE GMJ_e2_${i}_${j}_${k}_.csv)

>>> COPY /lustre/isaac/scratch/gjones39/scpfiles/ANO-RCC-VTZP/ozone_141.50/3252801/GMJ_RHS_E_M_3_.csv /lustre/isaac/scratch/gjones39/scpfiles/ANO-RCC-VTZP/ozone_141.50/GMJ_RHS_E_M_3_.csv

>>> COPY /lustre/isaac/scratch/gjones39/scpfiles/ANO-RCC-VTZP/ozone_141.50/3252801/GMJ_IVECW_E_M_3_.csv /lustre/isaac/scratch/gjones39/scpfiles/ANO-RCC-VTZP/ozone_141.50/GMJ_IVECW_E_M_3_.csv

>>> COPY /lustre/isaac/scratch/gjones39/scpfiles/ANO-RCC-VTZP/ozone_141.50/3252801/GMJ_IVECX_E_M_3_.csv /lustre/isaac/scratch/gjones39/scpfiles/ANO-RCC-VTZP/ozone_141.50/GMJ_IVECX_E_M_3_.csv

>>> COPY /lustre/isaac/scratch/gjones39/scpfiles/ANO-RCC-VTZP/ozone_141.50/3252801/GMJ_IVECC2_E_M_3_.csv /lustre/isaac/scratch/gjones39/scpfiles/ANO-RCC-VTZP/ozone_141.50/GMJ_IVECC2_E_M_3_.csv

>>> COPY /lustre/isaac/scratch/gjones39/scpfiles/ANO-RCC-VTZP/ozone_141.50/3252801/GMJ_e2_E_M_3_.csv /lustre/isaac/scratch/gjones39/scpfiles/ANO-RCC-VTZP/ozone_141.50/GMJ_e2_E_M_3_.csv

>>> END FOREACH

>>> END FOREACH

>>> EXPORT i = F

>>> EXPORT j = P

>>> IF (-FILE GMJ_e2_${i}_${j}_${k}_.csv)

>>> COPY /lustre/isaac/scratch/gjones39/scpfiles/ANO-RCC-VTZP/ozone_141.50/3252801/GMJ_RHS_F_P_3_.csv /lustre/isaac/scratch/gjones39/scpfiles/ANO-RCC-VTZP/ozone_141.50/GMJ_RHS_F_P_3_.csv

>>> COPY /lustre/isaac/scratch/gjones39/scpfiles/ANO-RCC-VTZP/ozone_141.50/3252801/GMJ_IVECW_F_P_3_.csv /lustre/isaac/scratch/gjones39/scpfiles/ANO-RCC-VTZP/ozone_141.50/GMJ_IVECW_F_P_3_.csv

>>> COPY /lustre/isaac/scratch/gjones39/scpfiles/ANO-RCC-VTZP/ozone_141.50/3252801/GMJ_IVECX_F_P_3_.csv /lustre/isaac/scratch/gjones39/scpfiles/ANO-RCC-VTZP/ozone_141.50/GMJ_IVECX_F_P_3_.csv

>>> COPY /lustre/isaac/scratch/gjones39/scpfiles/ANO-RCC-VTZP/ozone_141.50/3252801/GMJ_IVECC2_F_P_3_.csv /lustre/isaac/scratch/gjones39/scpfiles/ANO-RCC-VTZP/ozone_141.50/GMJ_IVECC2_F_P_3_.csv

>>> COPY /lustre/isaac/scratch/gjones39/scpfiles/ANO-RCC-VTZP/ozone_141.50/3252801/GMJ_e2_F_P_3_.csv /lustre/isaac/scratch/gjones39/scpfiles/ANO-RCC-VTZP/ozone_141.50/GMJ_e2_F_P_3_.csv

>>> END FOREACH

>>> EXPORT j = M

>>> IF (-FILE GMJ_e2_${i}_${j}_${k}_.csv)

>>> COPY /lustre/isaac/scratch/gjones39/scpfiles/ANO-RCC-VTZP/ozone_141.50/3252801/GMJ_RHS_F_M_3_.csv /lustre/isaac/scratch/gjones39/scpfiles/ANO-RCC-VTZP/ozone_141.50/GMJ_RHS_F_M_3_.csv

>>> COPY /lustre/isaac/scratch/gjones39/scpfiles/ANO-RCC-VTZP/ozone_141.50/3252801/GMJ_IVECW_F_M_3_.csv /lustre/isaac/scratch/gjones39/scpfiles/ANO-RCC-VTZP/ozone_141.50/GMJ_IVECW_F_M_3_.csv

>>> COPY /lustre/isaac/scratch/gjones39/scpfiles/ANO-RCC-VTZP/ozone_141.50/3252801/GMJ_IVECX_F_M_3_.csv /lustre/isaac/scratch/gjones39/scpfiles/ANO-RCC-VTZP/ozone_141.50/GMJ_IVECX_F_M_3_.csv

>>> COPY /lustre/isaac/scratch/gjones39/scpfiles/ANO-RCC-VTZP/ozone_141.50/3252801/GMJ_IVECC2_F_M_3_.csv /lustre/isaac/scratch/gjones39/scpfiles/ANO-RCC-VTZP/ozone_141.50/GMJ_IVECC2_F_M_3_.csv

>>> COPY /lustre/isaac/scratch/gjones39/scpfiles/ANO-RCC-VTZP/ozone_141.50/3252801/GMJ_e2_F_M_3_.csv /lustre/isaac/scratch/gjones39/scpfiles/ANO-RCC-VTZP/ozone_141.50/GMJ_e2_F_M_3_.csv

>>> END FOREACH

>>> END FOREACH

>>> EXPORT i = G

>>> EXPORT j = P

>>> IF (-FILE GMJ_e2_${i}_${j}_${k}_.csv)

>>> COPY /lustre/isaac/scratch/gjones39/scpfiles/ANO-RCC-VTZP/ozone_141.50/3252801/GMJ_RHS_G_P_3_.csv /lustre/isaac/scratch/gjones39/scpfiles/ANO-RCC-VTZP/ozone_141.50/GMJ_RHS_G_P_3_.csv

>>> COPY /lustre/isaac/scratch/gjones39/scpfiles/ANO-RCC-VTZP/ozone_141.50/3252801/GMJ_IVECW_G_P_3_.csv /lustre/isaac/scratch/gjones39/scpfiles/ANO-RCC-VTZP/ozone_141.50/GMJ_IVECW_G_P_3_.csv

>>> COPY /lustre/isaac/scratch/gjones39/scpfiles/ANO-RCC-VTZP/ozone_141.50/3252801/GMJ_IVECX_G_P_3_.csv /lustre/isaac/scratch/gjones39/scpfiles/ANO-RCC-VTZP/ozone_141.50/GMJ_IVECX_G_P_3_.csv

>>> COPY /lustre/isaac/scratch/gjones39/scpfiles/ANO-RCC-VTZP/ozone_141.50/3252801/GMJ_IVECC2_G_P_3_.csv /lustre/isaac/scratch/gjones39/scpfiles/ANO-RCC-VTZP/ozone_141.50/GMJ_IVECC2_G_P_3_.csv

>>> COPY /lustre/isaac/scratch/gjones39/scpfiles/ANO-RCC-VTZP/ozone_141.50/3252801/GMJ_e2_G_P_3_.csv /lustre/isaac/scratch/gjones39/scpfiles/ANO-RCC-VTZP/ozone_141.50/GMJ_e2_G_P_3_.csv

>>> END FOREACH

>>> EXPORT j = M

>>> IF (-FILE GMJ_e2_${i}_${j}_${k}_.csv)

>>> COPY /lustre/isaac/scratch/gjones39/scpfiles/ANO-RCC-VTZP/ozone_141.50/3252801/GMJ_RHS_G_M_3_.csv /lustre/isaac/scratch/gjones39/scpfiles/ANO-RCC-VTZP/ozone_141.50/GMJ_RHS_G_M_3_.csv

>>> COPY /lustre/isaac/scratch/gjones39/scpfiles/ANO-RCC-VTZP/ozone_141.50/3252801/GMJ_IVECW_G_M_3_.csv /lustre/isaac/scratch/gjones39/scpfiles/ANO-RCC-VTZP/ozone_141.50/GMJ_IVECW_G_M_3_.csv

>>> COPY /lustre/isaac/scratch/gjones39/scpfiles/ANO-RCC-VTZP/ozone_141.50/3252801/GMJ_IVECX_G_M_3_.csv /lustre/isaac/scratch/gjones39/scpfiles/ANO-RCC-VTZP/ozone_141.50/GMJ_IVECX_G_M_3_.csv

>>> COPY /lustre/isaac/scratch/gjones39/scpfiles/ANO-RCC-VTZP/ozone_141.50/3252801/GMJ_IVECC2_G_M_3_.csv /lustre/isaac/scratch/gjones39/scpfiles/ANO-RCC-VTZP/ozone_141.50/GMJ_IVECC2_G_M_3_.csv

>>> COPY /lustre/isaac/scratch/gjones39/scpfiles/ANO-RCC-VTZP/ozone_141.50/3252801/GMJ_e2_G_M_3_.csv /lustre/isaac/scratch/gjones39/scpfiles/ANO-RCC-VTZP/ozone_141.50/GMJ_e2_G_M_3_.csv

>>> END FOREACH

>>> END FOREACH

>>> EXPORT i = H

>>> EXPORT j = P

>>> IF (-FILE GMJ_e2_${i}_${j}_${k}_.csv)

>>> COPY /lustre/isaac/scratch/gjones39/scpfiles/ANO-RCC-VTZP/ozone_141.50/3252801/GMJ_RHS_H_P_3_.csv /lustre/isaac/scratch/gjones39/scpfiles/ANO-RCC-VTZP/ozone_141.50/GMJ_RHS_H_P_3_.csv

>>> COPY /lustre/isaac/scratch/gjones39/scpfiles/ANO-RCC-VTZP/ozone_141.50/3252801/GMJ_IVECW_H_P_3_.csv /lustre/isaac/scratch/gjones39/scpfiles/ANO-RCC-VTZP/ozone_141.50/GMJ_IVECW_H_P_3_.csv

>>> COPY /lustre/isaac/scratch/gjones39/scpfiles/ANO-RCC-VTZP/ozone_141.50/3252801/GMJ_IVECX_H_P_3_.csv /lustre/isaac/scratch/gjones39/scpfiles/ANO-RCC-VTZP/ozone_141.50/GMJ_IVECX_H_P_3_.csv

>>> COPY /lustre/isaac/scratch/gjones39/scpfiles/ANO-RCC-VTZP/ozone_141.50/3252801/GMJ_IVECC2_H_P_3_.csv /lustre/isaac/scratch/gjones39/scpfiles/ANO-RCC-VTZP/ozone_141.50/GMJ_IVECC2_H_P_3_.csv

>>> COPY /lustre/isaac/scratch/gjones39/scpfiles/ANO-RCC-VTZP/ozone_141.50/3252801/GMJ_e2_H_P_3_.csv /lustre/isaac/scratch/gjones39/scpfiles/ANO-RCC-VTZP/ozone_141.50/GMJ_e2_H_P_3_.csv

>>> END FOREACH

>>> EXPORT j = M

>>> IF (-FILE GMJ_e2_${i}_${j}_${k}_.csv)

>>> COPY /lustre/isaac/scratch/gjones39/scpfiles/ANO-RCC-VTZP/ozone_141.50/3252801/GMJ_RHS_H_M_3_.csv /lustre/isaac/scratch/gjones39/scpfiles/ANO-RCC-VTZP/ozone_141.50/GMJ_RHS_H_M_3_.csv

>>> COPY /lustre/isaac/scratch/gjones39/scpfiles/ANO-RCC-VTZP/ozone_141.50/3252801/GMJ_IVECW_H_M_3_.csv /lustre/isaac/scratch/gjones39/scpfiles/ANO-RCC-VTZP/ozone_141.50/GMJ_IVECW_H_M_3_.csv

>>> COPY /lustre/isaac/scratch/gjones39/scpfiles/ANO-RCC-VTZP/ozone_141.50/3252801/GMJ_IVECX_H_M_3_.csv /lustre/isaac/scratch/gjones39/scpfiles/ANO-RCC-VTZP/ozone_141.50/GMJ_IVECX_H_M_3_.csv

>>> COPY /lustre/isaac/scratch/gjones39/scpfiles/ANO-RCC-VTZP/ozone_141.50/3252801/GMJ_IVECC2_H_M_3_.csv /lustre/isaac/scratch/gjones39/scpfiles/ANO-RCC-VTZP/ozone_141.50/GMJ_IVECC2_H_M_3_.csv

>>> COPY /lustre/isaac/scratch/gjones39/scpfiles/ANO-RCC-VTZP/ozone_141.50/3252801/GMJ_e2_H_M_3_.csv /lustre/isaac/scratch/gjones39/scpfiles/ANO-RCC-VTZP/ozone_141.50/GMJ_e2_H_M_3_.csv

>>> END FOREACH

>>> END FOREACH

>>> END FOREACH

>>> EXPORT j = 1

>>> EXPORT i = A

>>> IF (-FILE GMJ_e2_${i}_${j}_.csv)

>>> COPY /lustre/isaac/scratch/gjones39/scpfiles/ANO-RCC-VTZP/ozone_141.50/3252801/GMJ_RHS_A_1_.csv /lustre/isaac/scratch/gjones39/scpfiles/ANO-RCC-VTZP/ozone_141.50/GMJ_RHS_A_1_.csv

>>> COPY /lustre/isaac/scratch/gjones39/scpfiles/ANO-RCC-VTZP/ozone_141.50/3252801/GMJ_IVECW_A_1_.csv /lustre/isaac/scratch/gjones39/scpfiles/ANO-RCC-VTZP/ozone_141.50/GMJ_IVECW_A_1_.csv

>>> COPY /lustre/isaac/scratch/gjones39/scpfiles/ANO-RCC-VTZP/ozone_141.50/3252801/GMJ_IVECX_A_1_.csv /lustre/isaac/scratch/gjones39/scpfiles/ANO-RCC-VTZP/ozone_141.50/GMJ_IVECX_A_1_.csv

>>> COPY /lustre/isaac/scratch/gjones39/scpfiles/ANO-RCC-VTZP/ozone_141.50/3252801/GMJ_IVECC2_A_1_.csv /lustre/isaac/scratch/gjones39/scpfiles/ANO-RCC-VTZP/ozone_141.50/GMJ_IVECC2_A_1_.csv

>>> COPY /lustre/isaac/scratch/gjones39/scpfiles/ANO-RCC-VTZP/ozone_141.50/3252801/GMJ_e2_A_1_.csv /lustre/isaac/scratch/gjones39/scpfiles/ANO-RCC-VTZP/ozone_141.50/GMJ_e2_A_1_.csv

>>> END FOREACH

>>> EXPORT i = C

>>> IF (-FILE GMJ_e2_${i}_${j}_.csv)

>>> COPY /lustre/isaac/scratch/gjones39/scpfiles/ANO-RCC-VTZP/ozone_141.50/3252801/GMJ_RHS_C_1_.csv /lustre/isaac/scratch/gjones39/scpfiles/ANO-RCC-VTZP/ozone_141.50/GMJ_RHS_C_1_.csv

>>> COPY /lustre/isaac/scratch/gjones39/scpfiles/ANO-RCC-VTZP/ozone_141.50/3252801/GMJ_IVECW_C_1_.csv /lustre/isaac/scratch/gjones39/scpfiles/ANO-RCC-VTZP/ozone_141.50/GMJ_IVECW_C_1_.csv

>>> COPY /lustre/isaac/scratch/gjones39/scpfiles/ANO-RCC-VTZP/ozone_141.50/3252801/GMJ_IVECX_C_1_.csv /lustre/isaac/scratch/gjones39/scpfiles/ANO-RCC-VTZP/ozone_141.50/GMJ_IVECX_C_1_.csv

>>> COPY /lustre/isaac/scratch/gjones39/scpfiles/ANO-RCC-VTZP/ozone_141.50/3252801/GMJ_IVECC2_C_1_.csv /lustre/isaac/scratch/gjones39/scpfiles/ANO-RCC-VTZP/ozone_141.50/GMJ_IVECC2_C_1_.csv

>>> COPY /lustre/isaac/scratch/gjones39/scpfiles/ANO-RCC-VTZP/ozone_141.50/3252801/GMJ_e2_C_1_.csv /lustre/isaac/scratch/gjones39/scpfiles/ANO-RCC-VTZP/ozone_141.50/GMJ_e2_C_1_.csv

>>> END FOREACH

>>> EXPORT i = D

>>> IF (-FILE GMJ_e2_${i}_${j}_.csv)

>>> COPY /lustre/isaac/scratch/gjones39/scpfiles/ANO-RCC-VTZP/ozone_141.50/3252801/GMJ_RHS_D_1_.csv /lustre/isaac/scratch/gjones39/scpfiles/ANO-RCC-VTZP/ozone_141.50/GMJ_RHS_D_1_.csv

>>> COPY /lustre/isaac/scratch/gjones39/scpfiles/ANO-RCC-VTZP/ozone_141.50/3252801/GMJ_IVECW_D_1_.csv /lustre/isaac/scratch/gjones39/scpfiles/ANO-RCC-VTZP/ozone_141.50/GMJ_IVECW_D_1_.csv

>>> COPY /lustre/isaac/scratch/gjones39/scpfiles/ANO-RCC-VTZP/ozone_141.50/3252801/GMJ_IVECX_D_1_.csv /lustre/isaac/scratch/gjones39/scpfiles/ANO-RCC-VTZP/ozone_141.50/GMJ_IVECX_D_1_.csv

>>> COPY /lustre/isaac/scratch/gjones39/scpfiles/ANO-RCC-VTZP/ozone_141.50/3252801/GMJ_IVECC2_D_1_.csv /lustre/isaac/scratch/gjones39/scpfiles/ANO-RCC-VTZP/ozone_141.50/GMJ_IVECC2_D_1_.csv

>>> COPY /lustre/isaac/scratch/gjones39/scpfiles/ANO-RCC-VTZP/ozone_141.50/3252801/GMJ_e2_D_1_.csv /lustre/isaac/scratch/gjones39/scpfiles/ANO-RCC-VTZP/ozone_141.50/GMJ_e2_D_1_.csv

>>> END FOREACH

>>> END FOREACH

>>> EXPORT j = 2

>>> EXPORT i = A

>>> IF (-FILE GMJ_e2_${i}_${j}_.csv)

>>> COPY /lustre/isaac/scratch/gjones39/scpfiles/ANO-RCC-VTZP/ozone_141.50/3252801/GMJ_RHS_A_2_.csv /lustre/isaac/scratch/gjones39/scpfiles/ANO-RCC-VTZP/ozone_141.50/GMJ_RHS_A_2_.csv

>>> COPY /lustre/isaac/scratch/gjones39/scpfiles/ANO-RCC-VTZP/ozone_141.50/3252801/GMJ_IVECW_A_2_.csv /lustre/isaac/scratch/gjones39/scpfiles/ANO-RCC-VTZP/ozone_141.50/GMJ_IVECW_A_2_.csv

>>> COPY /lustre/isaac/scratch/gjones39/scpfiles/ANO-RCC-VTZP/ozone_141.50/3252801/GMJ_IVECX_A_2_.csv /lustre/isaac/scratch/gjones39/scpfiles/ANO-RCC-VTZP/ozone_141.50/GMJ_IVECX_A_2_.csv

>>> COPY /lustre/isaac/scratch/gjones39/scpfiles/ANO-RCC-VTZP/ozone_141.50/3252801/GMJ_IVECC2_A_2_.csv /lustre/isaac/scratch/gjones39/scpfiles/ANO-RCC-VTZP/ozone_141.50/GMJ_IVECC2_A_2_.csv

>>> COPY /lustre/isaac/scratch/gjones39/scpfiles/ANO-RCC-VTZP/ozone_141.50/3252801/GMJ_e2_A_2_.csv /lustre/isaac/scratch/gjones39/scpfiles/ANO-RCC-VTZP/ozone_141.50/GMJ_e2_A_2_.csv

>>> END FOREACH

>>> EXPORT i = C

>>> IF (-FILE GMJ_e2_${i}_${j}_.csv)

>>> COPY /lustre/isaac/scratch/gjones39/scpfiles/ANO-RCC-VTZP/ozone_141.50/3252801/GMJ_RHS_C_2_.csv /lustre/isaac/scratch/gjones39/scpfiles/ANO-RCC-VTZP/ozone_141.50/GMJ_RHS_C_2_.csv

>>> COPY /lustre/isaac/scratch/gjones39/scpfiles/ANO-RCC-VTZP/ozone_141.50/3252801/GMJ_IVECW_C_2_.csv /lustre/isaac/scratch/gjones39/scpfiles/ANO-RCC-VTZP/ozone_141.50/GMJ_IVECW_C_2_.csv

>>> COPY /lustre/isaac/scratch/gjones39/scpfiles/ANO-RCC-VTZP/ozone_141.50/3252801/GMJ_IVECX_C_2_.csv /lustre/isaac/scratch/gjones39/scpfiles/ANO-RCC-VTZP/ozone_141.50/GMJ_IVECX_C_2_.csv

>>> COPY /lustre/isaac/scratch/gjones39/scpfiles/ANO-RCC-VTZP/ozone_141.50/3252801/GMJ_IVECC2_C_2_.csv /lustre/isaac/scratch/gjones39/scpfiles/ANO-RCC-VTZP/ozone_141.50/GMJ_IVECC2_C_2_.csv

>>> COPY /lustre/isaac/scratch/gjones39/scpfiles/ANO-RCC-VTZP/ozone_141.50/3252801/GMJ_e2_C_2_.csv /lustre/isaac/scratch/gjones39/scpfiles/ANO-RCC-VTZP/ozone_141.50/GMJ_e2_C_2_.csv

>>> END FOREACH

>>> EXPORT i = D

>>> IF (-FILE GMJ_e2_${i}_${j}_.csv)

>>> COPY /lustre/isaac/scratch/gjones39/scpfiles/ANO-RCC-VTZP/ozone_141.50/3252801/GMJ_RHS_D_2_.csv /lustre/isaac/scratch/gjones39/scpfiles/ANO-RCC-VTZP/ozone_141.50/GMJ_RHS_D_2_.csv

>>> COPY /lustre/isaac/scratch/gjones39/scpfiles/ANO-RCC-VTZP/ozone_141.50/3252801/GMJ_IVECW_D_2_.csv /lustre/isaac/scratch/gjones39/scpfiles/ANO-RCC-VTZP/ozone_141.50/GMJ_IVECW_D_2_.csv

>>> COPY /lustre/isaac/scratch/gjones39/scpfiles/ANO-RCC-VTZP/ozone_141.50/3252801/GMJ_IVECX_D_2_.csv /lustre/isaac/scratch/gjones39/scpfiles/ANO-RCC-VTZP/ozone_141.50/GMJ_IVECX_D_2_.csv

>>> COPY /lustre/isaac/scratch/gjones39/scpfiles/ANO-RCC-VTZP/ozone_141.50/3252801/GMJ_IVECC2_D_2_.csv /lustre/isaac/scratch/gjones39/scpfiles/ANO-RCC-VTZP/ozone_141.50/GMJ_IVECC2_D_2_.csv

>>> COPY /lustre/isaac/scratch/gjones39/scpfiles/ANO-RCC-VTZP/ozone_141.50/3252801/GMJ_e2_D_2_.csv /lustre/isaac/scratch/gjones39/scpfiles/ANO-RCC-VTZP/ozone_141.50/GMJ_e2_D_2_.csv

>>> END FOREACH

>>> END FOREACH

>>> EXPORT j = 3

>>> EXPORT i = A

>>> IF (-FILE GMJ_e2_${i}_${j}_.csv)

>>> COPY /lustre/isaac/scratch/gjones39/scpfiles/ANO-RCC-VTZP/ozone_141.50/3252801/GMJ_RHS_A_3_.csv /lustre/isaac/scratch/gjones39/scpfiles/ANO-RCC-VTZP/ozone_141.50/GMJ_RHS_A_3_.csv

>>> COPY /lustre/isaac/scratch/gjones39/scpfiles/ANO-RCC-VTZP/ozone_141.50/3252801/GMJ_IVECW_A_3_.csv /lustre/isaac/scratch/gjones39/scpfiles/ANO-RCC-VTZP/ozone_141.50/GMJ_IVECW_A_3_.csv

>>> COPY /lustre/isaac/scratch/gjones39/scpfiles/ANO-RCC-VTZP/ozone_141.50/3252801/GMJ_IVECX_A_3_.csv /lustre/isaac/scratch/gjones39/scpfiles/ANO-RCC-VTZP/ozone_141.50/GMJ_IVECX_A_3_.csv

>>> COPY /lustre/isaac/scratch/gjones39/scpfiles/ANO-RCC-VTZP/ozone_141.50/3252801/GMJ_IVECC2_A_3_.csv /lustre/isaac/scratch/gjones39/scpfiles/ANO-RCC-VTZP/ozone_141.50/GMJ_IVECC2_A_3_.csv

>>> COPY /lustre/isaac/scratch/gjones39/scpfiles/ANO-RCC-VTZP/ozone_141.50/3252801/GMJ_e2_A_3_.csv /lustre/isaac/scratch/gjones39/scpfiles/ANO-RCC-VTZP/ozone_141.50/GMJ_e2_A_3_.csv

>>> END FOREACH

>>> EXPORT i = C

>>> IF (-FILE GMJ_e2_${i}_${j}_.csv)

>>> COPY /lustre/isaac/scratch/gjones39/scpfiles/ANO-RCC-VTZP/ozone_141.50/3252801/GMJ_RHS_C_3_.csv /lustre/isaac/scratch/gjones39/scpfiles/ANO-RCC-VTZP/ozone_141.50/GMJ_RHS_C_3_.csv

>>> COPY /lustre/isaac/scratch/gjones39/scpfiles/ANO-RCC-VTZP/ozone_141.50/3252801/GMJ_IVECW_C_3_.csv /lustre/isaac/scratch/gjones39/scpfiles/ANO-RCC-VTZP/ozone_141.50/GMJ_IVECW_C_3_.csv

>>> COPY /lustre/isaac/scratch/gjones39/scpfiles/ANO-RCC-VTZP/ozone_141.50/3252801/GMJ_IVECX_C_3_.csv /lustre/isaac/scratch/gjones39/scpfiles/ANO-RCC-VTZP/ozone_141.50/GMJ_IVECX_C_3_.csv

>>> COPY /lustre/isaac/scratch/gjones39/scpfiles/ANO-RCC-VTZP/ozone_141.50/3252801/GMJ_IVECC2_C_3_.csv /lustre/isaac/scratch/gjones39/scpfiles/ANO-RCC-VTZP/ozone_141.50/GMJ_IVECC2_C_3_.csv

>>> COPY /lustre/isaac/scratch/gjones39/scpfiles/ANO-RCC-VTZP/ozone_141.50/3252801/GMJ_e2_C_3_.csv /lustre/isaac/scratch/gjones39/scpfiles/ANO-RCC-VTZP/ozone_141.50/GMJ_e2_C_3_.csv

>>> END FOREACH

>>> EXPORT i = D

>>> IF (-FILE GMJ_e2_${i}_${j}_.csv)

>>> COPY /lustre/isaac/scratch/gjones39/scpfiles/ANO-RCC-VTZP/ozone_141.50/3252801/GMJ_RHS_D_3_.csv /lustre/isaac/scratch/gjones39/scpfiles/ANO-RCC-VTZP/ozone_141.50/GMJ_RHS_D_3_.csv

>>> COPY /lustre/isaac/scratch/gjones39/scpfiles/ANO-RCC-VTZP/ozone_141.50/3252801/GMJ_IVECW_D_3_.csv /lustre/isaac/scratch/gjones39/scpfiles/ANO-RCC-VTZP/ozone_141.50/GMJ_IVECW_D_3_.csv

>>> COPY /lustre/isaac/scratch/gjones39/scpfiles/ANO-RCC-VTZP/ozone_141.50/3252801/GMJ_IVECX_D_3_.csv /lustre/isaac/scratch/gjones39/scpfiles/ANO-RCC-VTZP/ozone_141.50/GMJ_IVECX_D_3_.csv

>>> COPY /lustre/isaac/scratch/gjones39/scpfiles/ANO-RCC-VTZP/ozone_141.50/3252801/GMJ_IVECC2_D_3_.csv /lustre/isaac/scratch/gjones39/scpfiles/ANO-RCC-VTZP/ozone_141.50/GMJ_IVECC2_D_3_.csv

>>> COPY /lustre/isaac/scratch/gjones39/scpfiles/ANO-RCC-VTZP/ozone_141.50/3252801/GMJ_e2_D_3_.csv /lustre/isaac/scratch/gjones39/scpfiles/ANO-RCC-VTZP/ozone_141.50/GMJ_e2_D_3_.csv

>>> END FOREACH

>>> END FOREACH

    Timing: Wall=66.36 User=42.39 System=20.57
****************************************************************************************************
*** WorkDir at /lustre/isaac/scratch/gjones39/scpfiles/ANO-RCC-VTZP/ozone_141.50/3252801 cleaned ***
****************************************************************************************************
