[Molden Format]
[N_Atoms]
                     2
[Atoms] (AU)
LI1         1      3           0.00000000      0.00000000      0.00000000
N2          2      7           0.00000000      0.00000000      2.07869874
[Charge] (Mulliken)
   1.17421054895046     
  0.825789451049531     
[GTO] (AU)
   1
   s  14
  9.497934400E+03  9.668999974E-05
  1.416811200E+03  6.087099984E-04
  3.214599400E+02  3.101519992E-03
  9.112416300E+01  1.266904997E-02
  2.999989100E+01  4.248012989E-02
  1.101763100E+01  1.150183297E-01
  4.372801000E+00  2.398650094E-01
  1.831256000E+00  3.584300090E-01
  8.022610000E-01  3.048527792E-01
  3.626480000E-01  8.824261976E-02
  1.139950000E-01 -8.445899977E-04
  5.123700000E-02 -7.943959979E-03
  2.246800000E-02 -3.764419990E-03
  7.860000000E-03 -8.868999976E-05
   s  14
  9.497934400E+03 -1.244999993E-05
  1.416811200E+03 -7.838999954E-05
  3.214599400E+02 -4.007099976E-04
  9.112416300E+01 -1.645249990E-03
  2.999989100E+01 -5.634599967E-03
  1.101763100E+01 -1.590780991E-02
  4.372801000E+00 -3.612581979E-02
  1.831256000E+00 -6.459927962E-02
  8.022610000E-01 -1.008321794E-01
  3.626480000E-01 -9.757613942E-02
  1.139950000E-01  2.301215886E-01
  5.123700000E-02  6.102389764E-01
  2.246800000E-02  2.849406083E-01
  7.860000000E-03  4.026899976E-03
   p   9
  1.311950400E+01  1.524940000E-03
  3.077424200E+00  8.314830000E-03
  1.098800500E+00  1.933203000E-02
  4.357784000E-01  4.934293000E-02
  1.802432000E-01  1.623554000E-01
  7.613330000E-02  3.847505400E-01
  3.254650000E-02  4.336100400E-01
  1.401820000E-02  1.287005900E-01
  4.906400000E-03 -1.018520000E-03
 
   2
   s  14
  7.476171500E+04  1.182599996E-04
  1.112365400E+04  5.172899983E-04
  2.512685700E+03  2.266659992E-03
  7.037772900E+02  9.145289970E-03
  2.254787900E+02  3.239342989E-02
  7.961581000E+01  9.770792967E-02
  3.023728300E+01  2.317036792E-01
  1.226362200E+01  3.768898887E-01
  5.265086000E+00  3.177420689E-01
  2.333471000E+00  8.211308973E-02
  9.018560000E-01  3.312089989E-03
  3.583360000E-01  3.720819988E-03
  1.410930000E-01  3.165419989E-03
  4.938300000E-02  4.595799985E-04
   s  14
  7.476171500E+04 -2.707000010E-05
  1.112365400E+04 -1.183700004E-04
  2.512685700E+03 -5.203800020E-04
  7.037772900E+02 -2.102930008E-03
  2.254787900E+02 -7.568200028E-03
  7.961581000E+01 -2.346767009E-02
  3.023728300E+01 -6.042901023E-02
  1.226362200E+01 -1.170549104E-01
  5.265086000E+00 -1.555321506E-01
  2.333471000E+00 -2.468935009E-02
  9.018560000E-01  3.625054514E-01
  3.583360000E-01  5.550845021E-01
  1.410930000E-01  2.148376908E-01
  4.938300000E-02  8.983850034E-03
   p   9
  1.266665700E+02  1.233630000E-03
  2.983738900E+01  9.493409996E-03
  9.394038000E+00  4.293961998E-02
  3.405104000E+00  1.362925399E-01
  1.350000000E+00  2.921362499E-01
  5.576960000E-01  3.887887598E-01
  2.324490000E-01  2.946801399E-01
  9.426400000E-02  8.012875997E-02
  3.299200000E-02  5.405199998E-04
 
[MO]
Sym=     1a  
Ene=   -16.8780
Spin= Alpha
Occup=    2.00000
   1        -0.00055075
   2        -0.00125222
   3        -0.00000000
   4        -0.00000000
   5        -0.00060281
   6         1.00009146
   7        -0.00642426
   8         0.00000000
   9         0.00000000
  10        -0.00087162
Sym=     2a  
Ene=    -3.4016
Spin= Alpha
Occup=    2.00000
   1        -0.96069899
   2         0.01126104
   3        -0.00000000
   4        -0.00000000
   5        -0.00267999
   6         0.01059275
   7        -0.08345587
   8         0.00000000
   9         0.00000000
  10         0.05604963
Sym=     3a  
Ene=    -1.8908
Spin= Alpha
Occup=    2.00000
   1        -0.33347601
   2        -0.10262216
   3         0.00000000
   4         0.00000000
   5        -0.03929850
   6         0.01976357
   7         1.08250416
   8        -0.00000000
   9        -0.00000000
  10        -0.08215019
Sym=     4a  
Ene=    -1.1679
Spin= Alpha
Occup=    1.00000
   1         0.00000000
   2         0.00000000
   3         0.00180719
   4         0.05493778
   5         0.00000000
   6        -0.00000000
   7        -0.00000000
   8        -0.03343486
   9        -1.01640379
  10        -0.00000000
Sym=     5a  
Ene=    -0.0000
Spin= Alpha
Occup=    1.00000
   1        -0.00000000
   2         0.00000000
   3         0.05493778
   4        -0.00180719
   5         0.00000000
   6        -0.00000000
   7        -0.00000000
   8        -1.01640379
   9         0.03343486
  10        -0.00000000
Sym=     6a  
Ene=    -0.8055
Spin= Alpha
Occup=    0.00000
   1         0.37638598
   2         0.06709821
   3        -0.00000000
   4        -0.00000000
   5        -0.06037729
   6        -0.00280953
   7         0.00766909
   8        -0.00000000
   9        -0.00000000
  10         1.05891752
Sym=     7a  
Ene=    -0.4026
Spin= Alpha
Occup=    0.00000
   1        -0.08246656
   2        -1.07979717
   3        -0.00000000
   4         0.00000000
   5         0.10698205
   6         0.04988097
   7         0.35626658
   8        -0.00000000
   9        -0.00000000
  10        -0.01720919
Sym=     8a  
Ene=    -0.3164
Spin= Alpha
Occup=    0.00000
   1        -0.00000000
   2        -0.00000000
   3         0.15367165
   4        -1.04784756
   5         0.00000000
   6        -0.00000000
   7         0.00000000
   8        -0.04363373
   9         0.29752723
  10        -0.00000000
Sym=     9a  
Ene=    -0.3164
Spin= Alpha
Occup=    0.00000
   1        -0.00000000
   2         0.00000000
   3        -1.04784756
   4        -0.15367165
   5         0.00000000
   6        -0.00000000
   7        -0.00000000
   8         0.29752723
   9         0.04363373
  10        -0.00000000
Sym=    10a  
Ene=    -0.2765
Spin= Alpha
Occup=    0.00000
   1        -0.12298874
   2        -0.37875865
   3        -0.00000000
   4        -0.00000000
   5        -1.15711341
   6         0.10646193
   7         0.65120795
   8         0.00000000
   9        -0.00000000
  10         0.04462141
