   This run of MOLCAS is using the pymolcas driver

                             OPE
                             OPE          NMOL  CASOP  ENMOLC A   SO
                 OPE        NMOLC        AS  OP EN  MO LC     AS  OP
                OPENM       OL CA        SO  PE NM  OL CA     SOP EN
                OP EN      MO   LC       AS  OP ENMOL  CASO   PENMOL
                OP  EN     MO   LC       AS  OP EN     MO     LC ASO
               OP   E  NMOL  C  AS       OP  EN MO     LC     AS  OP
               OP  E   NMO   LC AS        OPEN  MO     LCASOP EN   M
               O  PEN   MO  LCA  SO
            OPE   NMO   L   CAS    OP
        OPENMOL  CASOP     ENMOL   CASOPE
     OPENMOLCA   SOPENMOLCASOPEN   MOLCASOPE
    OPENMOLCAS   OP           EN   MOL    CAS
    OPENMOLCAS       OP  ENM        O     LCA
    OPENMOLCAS    OPEN  MOLCASO     P  E  NMO
    OPENMOLCAS     OP               E  N  MOL
    OPENMOLCA   SO           PENM   O  L  CAS    OPEN    MO    LCAS
    OPENMOLCA   SOP           ENM   O  L  CAS   OP  EN  MOLC  AS   O
    OPENMOLCA   SOPE           NM      O  LCA   S      OP  EN MO
    OPENMOLC                AS         O  PEN   M      OL  CA  SOPE
    OPENMO        LCASOPE  NMOL        C  ASO   P      ENMOLC     AS
    OPE     NMO      LCA  SO     P     E   NM   OL  CA SO  PE N   MO
          OPENMOLCA            SOPE   NMO        LCAS  O    P  ENMO
     OPENMOLCASOPENMOLCASOPENMOLCASOPENMOLCA
        OPENMOLCASOPENMOLCASOPENMOLCASOPE
            OPENMOLCASOPENMOLCASOPENM
               OPENMOLCASOPENMOLCA        version: ea724fe96-dirty
                   OPENMOLCASO
                       OPE                tag:

 OpenMolcas is free software; you can redistribute it and/or modify it
 under the terms of the GNU Lesser General Public License version 2.1.
 OpenMolcas is distributed in the hope that it will be useful, but it
 is provided "as is" and without any express or implied warranties.
 For more details see the full text of the license in the file
 LICENSE or in <http://www.gnu.org/licenses/>.

                 Copyright (C) The OpenMolcas Authors
           For the author list and the recommended citation,
                   consult the file CONTRIBUTORS.md

           *************************************************
           * pymolcas version py2.28                       *
           *   build c4a6d18ded8cb6cad61d2372a9abd97c      *
           *   (after the EMIL interpreter by V. Veryazov) *
           *************************************************

configuration info
------------------
C Compiler ID: Intel
C flags: -std=gnu99
Fortran Compiler ID: Intel
Fortran flags: -fpp -i8 -r8 -heap-arrays
Definitions: _MOLCAS_;_I8_;_LINUX_
Parallel: OFF (GA=OFF)


   --------------------------------------------------------------------------------
  |
  |              Project: ozone_118.75
  |       Submitted from: /home/grierjones/DDCASPT2/ozone/ANO-RCC-VTZP/ozone_118.75
  |         Scratch area: /tmp/ozone_118.75
  |      Save outputs to: /home/grierjones/DDCASPT2/ozone/ANO-RCC-VTZP/ozone_118.75
  |               Molcas: /home/grierjones/Test/build
  |
  | Scratch area is empty
  |
  |       MOLCAS_DRIVER = /usr/local/pymolcas
  | MOLCAS_KEEP_WORKDIR = NO
  |  MOLCAS_NEW_WORKDIR = YES
  |       MOLCAS_NPROCS = 1
  |        MOLCAS_PRINT = NORMAL
  |       MOLCAS_SOURCE = /home/grierjones/Test/build
  |    MOLCAS_STRUCTURE = 0
  |
   --------------------------------------------------------------------------------

++ ---------   Input file   ---------

&GATEWAY
coord=ozone_118.75.xyz
Basis = ANO-RCC-VTZP
Group = nosymm
Expert
End of Input

&SEWARD
End of Input

&SCF

>>> COPY $WorkDir/ozone_118.75.scf.h5 $CurrDir/

&RASSCF
Title= RASSCF
FileOrb
/home/grierjones/DDCASPT2/ozone/ANO-RCC-VTZP/ozone_118.50/ozone_118.50.RasOrb
NACTEL
4 0 0
Inactive
10
RAS2
3
Symmetry
1
Spin
1
orblisting
all
ITERation
300 200

>>> COPY $WorkDir/ozone_118.75.rasscf.h5 $CurrDir/

>>> COPY $WorkDir/GMJ_Fock_MO.csv $CurrDir/ozone_118.75.GMJ_Fock_MO.csv

>>> COPY $WorkDir/GMJ_PT2_Fock_MO.csv $CurrDir/ozone_118.75.GMJ_PT2_Fock_MO.csv

&MOTRA
Frozen=0
LUMORB

>>> COPY $WorkDir/GMJ_one_int_indx.csv $CurrDir/ozone_118.75.GMJ_one_int_indx.csv

>>> COPY $WorkDir/GMJ_one_int.csv $CurrDir/ozone_118.75.GMJ_one_int.csv

>>> COPY $WorkDir/GMJ_two_int_indx.csv $CurrDir/ozone_118.75.GMJ_two_int_indx.csv

>>> COPY $WorkDir/GMJ_two_int.csv $CurrDir/ozone_118.75.GMJ_two_int.csv

&CASPT2
Frozen
0
MAXITER
50

>>> FOREACH i IN (B,E,F,G,H)

  >>> FOREACH j IN (P,M)

    >>> IF (-FILE GMJ_e2_${i}_${j}.csv)

      >>> COPY $WorkDir/GMJ_RHS_${i}_${j}.csv $CurrDir/GMJ_RHS_${i}_${j}.csv

      >>> COPY $WorkDir/GMJ_IVECW_${i}_${j}.csv $CurrDir/GMJ_IVECW_${i}_${j}.csv

      >>> COPY $WorkDir/GMJ_IVECX_${i}_${j}.csv $CurrDir/GMJ_IVECX_${i}_${j}.csv

      >>> COPY $WorkDir/GMJ_IVECC2_${i}_${j}.csv $CurrDir/GMJ_IVECC2_${i}_${j}.csv

      >>> COPY $WorkDir/GMJ_e2_${i}_${j}.csv $CurrDir/GMJ_e2_${i}_${j}.csv

    >>> END IF

  >>> END FOREACH

>>> END FOREACH

>>> FOREACH i IN (A,C,D)

  >>> IF (-FILE GMJ_e2_$i.csv)

    >>> COPY $WorkDir/GMJ_RHS_$i.csv $CurrDir/GMJ_RHS_$i.csv

    >>> COPY $WorkDir/GMJ_IVECW_$i.csv $CurrDir/GMJ_IVECW_$i.csv

    >>> COPY $WorkDir/GMJ_IVECX_$i.csv $CurrDir/GMJ_IVECX_$i.csv

    >>> COPY $WorkDir/GMJ_IVECC2_$i.csv $CurrDir/GMJ_IVECC2_$i.csv

    >>> COPY $WorkDir/GMJ_e2_$i.csv $CurrDir/GMJ_e2_$i.csv

  >>> END IF

>>> END FOREACH

-- ----------------------------------

--- Start Module: gateway at Tue Dec 31 22:41:59 2024 ---
 
()()()()()()()()()()()()()()()()()()()()()()()()()()()()()()()()()()()()()()()()()()()()()()()()()()

                                              &GATEWAY

                                   only a single process is used
                       available to each process: 2.0 GB of memory, 1 thread?
()()()()()()()()()()()()()()()()()()()()()()()()()()()()()()()()()()()()()()()()()()()()()()()()()()
 
 ###############################################################################
 ###############################################################################
 ###                                                                         ###
 ###                                                                         ###
 ###                                                                         ###
 ###    WARNING: EXPERT option is ON!                                        ###
 ###                                                                         ###
 ###                                                                         ###
 ###############################################################################
 ###############################################################################
 
++    Symmetry information:
      ---------------------
 
                    Character Table for C1 
 
                             E  
                    a        1  x, y, xy, Rz, z, xz, Ry, yz, Rx, I
--
 
 
++    Basis set information:
      ----------------------
 
 
      Basis set label: O.ANO-RCC...4S3P2D1F.
 
      Electronic valence basis set:
      ------------------
      Associated Effective Charge   8.000000 au
      Associated Actual Charge      8.000000 au
      Nuclear Model: Point charge
 
      Shell  nPrim  nBasis  Cartesian Spherical Contaminant
         s      14       4        X                  
         p       9       3        X                  
         d       4       2                 X         
         f       3       1                 X         
--
 
 
++    Molecular structure info:
      -------------------------
 
                    ************************************************ 
                    **** Cartesian Coordinates / Bohr, Angstrom **** 
                    ************************************************ 
 
     Center  Label                x              y              z                     x              y              z
        1      O1               1.230278       2.078215       0.000000              0.651035       1.099744       0.000000
        2      O2               0.000000       0.000000       0.000000              0.000000       0.000000       0.000000
        3      O3               1.230278      -2.078215       0.000000              0.651035      -1.099744       0.000000
 
                    *************************************** 
                    *    InterNuclear Distances / Bohr    * 
                    *************************************** 
 
               1 O1            2 O2            3 O3    
    1 O1       0.000000
    2 O2       2.415070        0.000000
    3 O3       4.156430        2.415070        0.000000
 
                    ******************************************* 
                    *    InterNuclear Distances / Angstrom    * 
                    ******************************************* 
 
               1 O1            2 O2            3 O3    
    1 O1       0.000000
    2 O2       1.278000        0.000000
    3 O3       2.199488        1.278000        0.000000
 
                    ************************************** 
                    *    Valence Bond Angles / Degree    * 
                    ************************************** 
                          Atom centers                 Phi
                      1 O1       2 O2       3 O3       118.75
--
 
 
            Nuclear Potential Energy             68.39837316 au
 
 ###############################################################################
 ###############################################################################
 ###                                                                         ###
 ###                                                                         ###
 ###    There were warnings during the execution                             ###
 ###    Please, check the output with care!                                  ###
 ###                                                                         ###
 ###                                                                         ###
 ###############################################################################
 ###############################################################################
--- Stop Module: gateway at Tue Dec 31 22:41:59 2024 /rc=_RC_ALL_IS_WELL_ ---
*** files: xmldump
    saved to directory /home/grierjones/DDCASPT2/ozone/ANO-RCC-VTZP/ozone_118.75

--- Start Module: seward at Tue Dec 31 22:41:59 2024 ---
 
()()()()()()()()()()()()()()()()()()()()()()()()()()()()()()()()()()()()()()()()()()()()()()()()()()

                                              &SEWARD

                                   only a single process is used
                       available to each process: 2.0 GB of memory, 1 thread?
()()()()()()()()()()()()()()()()()()()()()()()()()()()()()()()()()()()()()()()()()()()()()()()()()()
 
 ###############################################################################
 ###############################################################################
 ###                                                                         ###
 ###                                                                         ###
 ###                                                                         ###
 ###    WARNING: EXPERT option is ON!                                        ###
 ###                                                                         ###
 ###                                                                         ###
 ###############################################################################
 ###############################################################################
               SEWARD will generate:
                  Multipole Moment integrals up to order  2
                  Kinetic Energy integrals
                  Nuclear Attraction integrals (point charge)
                  One-Electron Hamiltonian integrals
                  Velocity integrals
                  Relativistic Douglas-Kroll-Hess integrals:
                    - Parametrization         : EXP
                    - DKH order of Hamiltonian: 2
                    - DKH order of Properties : 0
                         - multipole moment operators
                         - electric potential operators
                         - contact operators
                  Atomic mean-field integrals
                  Two-Electron Repulsion integrals
 
                   Integrals are discarded if absolute value <: 0.10E-13
                   Integral cutoff threshold is set to       <: 0.10E-15
 
            Nuclear Potential Energy             68.39837316 au
 
 
      Basis set specifications :
      Symmetry species         a  
      Basis functions           90
 
 
  Input file to MOLDEN was generated!
 
 ###############################################################################
 ###############################################################################
 ###                                                                         ###
 ###                                                                         ###
 ###    There were warnings during the execution                             ###
 ###    Please, check the output with care!                                  ###
 ###                                                                         ###
 ###                                                                         ###
 ###############################################################################
 ###############################################################################
--- Stop Module: seward at Tue Dec 31 22:42:02 2024 /rc=_RC_ALL_IS_WELL_ ---
*** files: ozone_118.75.GssOrb ozone_118.75.guessorb.h5 ozone_118.75.guessorb.molden xmldump
    saved to directory /home/grierjones/DDCASPT2/ozone/ANO-RCC-VTZP/ozone_118.75
--- Module seward spent 2 seconds ---

*** symbolic link created: INPORB -> ozone_118.75.GssOrb
--- Start Module: scf at Tue Dec 31 22:42:02 2024 ---
 
()()()()()()()()()()()()()()()()()()()()()()()()()()()()()()()()()()()()()()()()()()()()()()()()()()

                                                &SCF

                                   only a single process is used
                       available to each process: 2.0 GB of memory, 1 thread?
()()()()()()()()()()()()()()()()()()()()()()()()()()()()()()()()()()()()()()()()()()()()()()()()()()
 
++    Input section:
      --------------
 
      Header of the integral files:
      
       Integrals generated by seward 4.2.0  , Tue Dec 31 22:41:59 2024
 
 
      Cartesian coordinates in Angstrom:
      -----------------------------------------------------
      No.  Label        X            Y            Z        
      -----------------------------------------------------
       1   O1         0.65103500   1.09974400   0.00000000
       2   O2         0.00000000   0.00000000   0.00000000
       3   O3         0.65103500  -1.09974400   0.00000000
      -----------------------------------------------------
      Nuclear repulsion energy =   68.39837316
--
 
++    Orbital specifications:
      -----------------------
 
      Symmetry species               1
                                     a
      Frozen orbitals                0
      Occupied orbitals             12
      Secondary orbitals            78
      Deleted orbitals               0
      Total number of orbitals      90
      Number of basis functions     90
--
 
      Molecular charge                           0.000
 
++    Optimization specifications:
      ----------------------------
 
      SCF Algorithm: Conventional
      Minimized density differences are used
      Number of density matrices in core                5
      Maximum number of NDDO SCF iterations           400
      Maximum number of HF SCF iterations             400
      Threshold for SCF energy change            0.10E-08
      Threshold for density matrix               0.10E-03
      Threshold for Fock matrix                  0.15E-03
      Threshold for linear dependence            0.10E-08
      Threshold at which DIIS is turned on       0.15E+00
      Threshold at which QNR/C2DIIS is turned on 0.75E-01
      Threshold for Norm(delta) (QNR/C2DIIS)     0.20E-04
      DIIS extrapolation of the SCF procedure
      All orbitals punched on: SCFORB
--
 
      Input vectors read from INPORB
      Orbital file label: *Guess orbitals
 
 
++ Convergence information
                                   SCF        iterations: Energy and convergence statistics
 
Iter     Tot. SCF        One-elec.       Two-elec.     Energy      Max Dij or  Max Fij      DNorm      TNorm      AccCon     Time
         Energy          Energy          Energy        Change      Delta Norm                                                in Sec.
   1  -223.888953815  -440.466651433   148.179324454   0.00E+00    0.64E+00*   0.27E+00*    0.74E+01   0.11E+03   None         0.
   2  -224.095087359  -446.782598120   154.289137596  -0.21E+00*   0.22E+00*   0.18E+00*    0.28E+01   0.11E+03   EDIIS        0.
   3  -224.474871578  -444.159490358   151.286245616  -0.38E+00*   0.22E+00*   0.83E-01*    0.68E+00   0.11E+03   EDIIS        0.
   4  -224.474786903  -444.793493789   151.920333722   0.85E-04*   0.14E-01*   0.44E-01*    0.29E+00   0.11E+03   EDIIS        0.
   5  -224.513272075  -444.421174755   151.509529516  -0.38E-01*   0.64E-02*   0.28E-02*    0.34E-01   0.11E+03   c2DIIS       0.
   6  -224.513438468  -444.450571811   151.538760179  -0.17E-03*   0.33E-02*   0.12E-02*    0.91E-02   0.11E+03   QNRc2DIIS    0.
   7  -224.513471205  -444.443622005   151.531777636  -0.33E-04*   0.41E-02*   0.78E-03*    0.36E-02   0.11E+03   QNRc2DIIS    0.
   8  -224.513485949  -444.448577330   151.536718217  -0.15E-04*   0.55E-03*   0.30E-03*    0.30E-02   0.11E+03   QNRc2DIIS    0.
   9  -224.513486807  -444.446782530   151.534922558  -0.86E-06*   0.89E-03*   0.20E-03*    0.49E-03   0.11E+03   QNRc2DIIS    0.
  10  -224.513487328  -444.444833143   151.532972651  -0.52E-06*   0.13E-03*   0.90E-04     0.16E-03   0.11E+03   QNRc2DIIS    0.
  11  -224.513487382  -444.446443171   151.534582624  -0.54E-07*   0.29E-04*   0.81E-05     0.51E-04   0.11E+03   QNRc2DIIS    0.
  12  -224.513487384  -444.446379147   151.534518599  -0.22E-08*   0.13E-04    0.31E-05     0.33E-04   0.11E+03   QNRc2DIIS    0.
  13  -224.513487384  -444.446373690   151.534513141  -0.20E-09    0.68E-06    0.32E-06     0.25E-03   0.11E+03   QNRc2DIIS    0.
 
       Convergence after 13 Macro Iterations
--
 
 *****************************************************************************************************************************
 *                                                                                                                           *
 *                                             SCF/KS-DFT Program, Final results                                             *
 *                                                                                                                           *
 *                                                                                                                           *
 *                                                                                                                           *
 *                                                       Final Results                                                       *
 *                                                                                                                           *
 *****************************************************************************************************************************
 
::    Total SCF energy                               -224.5134873844
      One-electron energy                            -444.4463736898
      Two-electron energy                             151.5345131413
      Nuclear repulsion energy                         68.3983731641
      Kinetic energy (interpolated)                   225.0407169288
      Virial theorem                                    0.9976571815
      Total spin, S(S+1)                                0.0000000000
      Total spin, S                                     0.0000000000
      Max non-diagonal density matrix element           0.0000006245
      Max non-diagonal Fock matrix element              0.0000001148
 
 
      All orbitals with orbital energies smaller than  E(LUMO)+0.5 are printed
 
++    Molecular orbitals:
      -------------------
 
      Title: SCF orbitals

      Molecular orbitals for symmetry species 1: a  
 
          Orbital            1         2         3         4         5         6         7         8         9        10    
          Energy          -20.9341  -20.7273  -20.7272   -1.7472   -1.4346   -1.0963   -0.8317   -0.8008   -0.7795   -0.5686
          Occ. No.          2.0000    2.0000    2.0000    2.0000    2.0000    2.0000    2.0000    2.0000    2.0000    2.0000
 
        1 O1     1s         0.0023   -0.7064    0.7063   -0.0134    0.0118    0.0098   -0.0123   -0.0230   -0.0000    0.0063
        2 O1     2s         0.0036    0.0050   -0.0053    0.3351   -0.5724    0.5917   -0.2622   -0.4281   -0.0000    0.0506
        3 O1     3s         0.0021    0.0036   -0.0037   -0.0099    0.0191    0.0166   -0.0248   -0.0515   -0.0000    0.0173
        4 O1     4s         0.0004    0.0008   -0.0007   -0.0007    0.0041    0.0026   -0.0049   -0.0110   -0.0000    0.0041
        5 O1     2px       -0.0010   -0.0013    0.0012   -0.0530    0.0628    0.1049    0.1469   -0.3274   -0.0000   -0.5357
        6 O1     3px       -0.0006   -0.0014    0.0012    0.0121   -0.0087   -0.0174   -0.0064    0.0299    0.0000   -0.0126
        7 O1     4px        0.0001    0.0007   -0.0008    0.0025   -0.0001    0.0008   -0.0002    0.0021   -0.0000    0.0033
        8 O1     2py       -0.0021   -0.0020    0.0023   -0.1091    0.0674    0.0862   -0.3479   -0.2578   -0.0000    0.4935
        9 O1     3py       -0.0012   -0.0021    0.0023    0.0151   -0.0144   -0.0146    0.0348    0.0368    0.0000   -0.0029
       10 O1     4py        0.0005    0.0013   -0.0014    0.0009   -0.0036    0.0011    0.0036    0.0031    0.0000   -0.0034
       11 O1     2pz       -0.0000   -0.0000   -0.0000   -0.0000    0.0000    0.0000   -0.0000   -0.0000    0.3741   -0.0000
       12 O1     3pz       -0.0000   -0.0000   -0.0000    0.0000    0.0000   -0.0000    0.0000    0.0000   -0.0186   -0.0000
       13 O1     4pz        0.0000    0.0000    0.0000    0.0000    0.0000   -0.0000    0.0000    0.0000   -0.0068    0.0000
       14 O1     3d2-       0.0004    0.0010   -0.0010    0.0167   -0.0150   -0.0120    0.0058    0.0282   -0.0000   -0.0014
       15 O1     4d2-       0.0002    0.0005   -0.0005    0.0020   -0.0018   -0.0008    0.0009    0.0025   -0.0000    0.0006
       16 O1     3d1-       0.0000    0.0000   -0.0000   -0.0000   -0.0000   -0.0000    0.0000    0.0000   -0.0272   -0.0000
       17 O1     4d1-      -0.0000    0.0000    0.0000   -0.0000   -0.0000   -0.0000   -0.0000   -0.0000   -0.0040   -0.0000
       18 O1     3d0       -0.0003   -0.0005    0.0005   -0.0104    0.0090    0.0037   -0.0093   -0.0147   -0.0000    0.0043
       19 O1     4d0       -0.0002   -0.0004    0.0004   -0.0003    0.0010   -0.0001   -0.0005   -0.0010    0.0000    0.0003
       20 O1     3d1+       0.0000   -0.0000   -0.0000    0.0000    0.0000   -0.0000   -0.0000    0.0000   -0.0169   -0.0000
       21 O1     4d1+      -0.0000    0.0000    0.0000   -0.0000   -0.0000    0.0000    0.0000    0.0000   -0.0033    0.0000
       22 O1     3d2+      -0.0005   -0.0006    0.0006   -0.0119    0.0051    0.0017   -0.0252   -0.0063   -0.0000    0.0180
       23 O1     4d2+      -0.0003   -0.0003    0.0003   -0.0013    0.0008    0.0006   -0.0021   -0.0001    0.0000    0.0031
       24 O1     4f3-       0.0001   -0.0000    0.0000    0.0008    0.0011    0.0018    0.0062   -0.0026   -0.0000   -0.0052
       25 O1     4f2-      -0.0000    0.0000    0.0000    0.0000    0.0000    0.0000   -0.0000   -0.0000    0.0062    0.0000
       26 O1     4f1-       0.0000    0.0002   -0.0001    0.0030   -0.0026   -0.0007    0.0022    0.0031   -0.0000   -0.0007
       27 O1     4f0       -0.0000    0.0000    0.0000    0.0000    0.0000    0.0000    0.0000    0.0000   -0.0038   -0.0000
       28 O1     4f1+       0.0000    0.0001   -0.0001    0.0016   -0.0017   -0.0008    0.0007    0.0019    0.0000   -0.0013
       29 O1     4f2+      -0.0000    0.0000    0.0000   -0.0000    0.0000    0.0000    0.0000    0.0000   -0.0036   -0.0000
       30 O1     4f3+       0.0000    0.0002   -0.0002    0.0058   -0.0051   -0.0022    0.0039    0.0065    0.0000   -0.0024
       31 O2     1s         0.9990    0.0000   -0.0008   -0.0272   -0.0000   -0.0170   -0.0080   -0.0000    0.0000   -0.0000
       32 O2     2s        -0.0070   -0.0000    0.0109    0.6179    0.0000   -0.6691   -0.0862   -0.0000    0.0000   -0.0000
       33 O2     3s        -0.0049   -0.0000    0.0062   -0.0676    0.0000   -0.0146   -0.0136    0.0000    0.0000   -0.0000
       34 O2     4s        -0.0011   -0.0000    0.0010   -0.0120    0.0000   -0.0039   -0.0041    0.0000    0.0000   -0.0000
       35 O2     2px       -0.0016   -0.0000    0.0036    0.1031   -0.0000    0.2427    0.6600   -0.0000    0.0000    0.0000
       36 O2     3px       -0.0023   -0.0000    0.0023   -0.0388   -0.0000   -0.0333   -0.0686    0.0000   -0.0000    0.0000
       37 O2     4px        0.0017    0.0000   -0.0008   -0.0025    0.0000    0.0010   -0.0091    0.0000   -0.0000   -0.0000
       38 O2     2py        0.0000   -0.0056   -0.0000    0.0000   -0.3301   -0.0000    0.0000    0.5608    0.0000   -0.1456
       39 O2     3py        0.0000   -0.0035   -0.0000   -0.0000    0.0625    0.0000   -0.0000   -0.0569   -0.0000   -0.0088
       40 O2     4py       -0.0000    0.0012    0.0000   -0.0000   -0.0017   -0.0000    0.0000   -0.0092   -0.0000   -0.0010
       41 O2     2pz       -0.0000    0.0000    0.0000   -0.0000    0.0000    0.0000   -0.0000   -0.0000    0.6878    0.0000
       42 O2     3pz       -0.0000    0.0000    0.0000   -0.0000   -0.0000   -0.0000   -0.0000    0.0000   -0.0463   -0.0000
       43 O2     4pz       -0.0000    0.0000    0.0000   -0.0000   -0.0000   -0.0000   -0.0000   -0.0000   -0.0160   -0.0000
       44 O2     3d2-       0.0000   -0.0015   -0.0000    0.0000   -0.0410    0.0000    0.0000    0.0293    0.0000   -0.0411
       45 O2     4d2-       0.0000   -0.0007   -0.0000    0.0000   -0.0046    0.0000   -0.0000    0.0028    0.0000   -0.0073
       46 O2     3d1-       0.0000    0.0000    0.0000   -0.0000    0.0000    0.0000   -0.0000   -0.0000    0.0000   -0.0000
       47 O2     4d1-       0.0000   -0.0000    0.0000   -0.0000    0.0000    0.0000   -0.0000    0.0000    0.0000   -0.0000
       48 O2     3d0        0.0006    0.0000   -0.0010   -0.0152    0.0000   -0.0068   -0.0147    0.0000   -0.0000   -0.0000
       49 O2     4d0        0.0006    0.0000   -0.0005    0.0008    0.0000   -0.0004   -0.0009    0.0000   -0.0000   -0.0000
       50 O2     3d1+       0.0000    0.0000    0.0000   -0.0000    0.0000    0.0000   -0.0000   -0.0000    0.0323    0.0000
       51 O2     4d1+       0.0000    0.0000    0.0000   -0.0000    0.0000    0.0000    0.0000   -0.0000    0.0048    0.0000
       52 O2     3d2+       0.0003    0.0000   -0.0008   -0.0111    0.0000    0.0004    0.0211   -0.0000   -0.0000   -0.0000
       53 O2     4d2+       0.0001    0.0000   -0.0004   -0.0012    0.0000   -0.0004    0.0023    0.0000   -0.0000   -0.0000
       54 O2     4f3-       0.0000   -0.0000   -0.0000   -0.0000    0.0006    0.0000   -0.0000   -0.0040   -0.0000   -0.0093
       55 O2     4f2-       0.0000    0.0000   -0.0000    0.0000   -0.0000    0.0000    0.0000   -0.0000    0.0000   -0.0000
       56 O2     4f1-      -0.0000    0.0001    0.0000   -0.0000    0.0051   -0.0000   -0.0000   -0.0042   -0.0000    0.0010
       57 O2     4f0       -0.0000    0.0000    0.0000    0.0000    0.0000    0.0000    0.0000    0.0000   -0.0063    0.0000
       58 O2     4f1+       0.0001    0.0000   -0.0001   -0.0032   -0.0000   -0.0005   -0.0023    0.0000   -0.0000   -0.0000
       59 O2     4f2+       0.0000    0.0000    0.0000   -0.0000   -0.0000    0.0000    0.0000    0.0000   -0.0053   -0.0000
       60 O2     4f3+       0.0001    0.0000   -0.0002   -0.0095   -0.0000   -0.0009   -0.0040    0.0000   -0.0000   -0.0000
       61 O3     1s         0.0023    0.7064    0.7063   -0.0134   -0.0118    0.0098   -0.0123    0.0230    0.0000   -0.0063
       62 O3     2s         0.0036   -0.0050   -0.0053    0.3351    0.5724    0.5917   -0.2622    0.4281    0.0000   -0.0506
       63 O3     3s         0.0021   -0.0036   -0.0037   -0.0099   -0.0191    0.0166   -0.0248    0.0515   -0.0000   -0.0173
       64 O3     4s         0.0004   -0.0008   -0.0007   -0.0007   -0.0041    0.0026   -0.0049    0.0110   -0.0000   -0.0041
       65 O3     2px       -0.0010    0.0013    0.0012   -0.0530   -0.0628    0.1049    0.1469    0.3274    0.0000    0.5357
       66 O3     3px       -0.0006    0.0014    0.0012    0.0121    0.0087   -0.0174   -0.0064   -0.0299   -0.0000    0.0126
       67 O3     4px        0.0001   -0.0007   -0.0008    0.0025    0.0001    0.0008   -0.0002   -0.0021    0.0000   -0.0033
       68 O3     2py        0.0021   -0.0020   -0.0023    0.1091    0.0674   -0.0862    0.3479   -0.2578   -0.0000    0.4935
       69 O3     3py        0.0012   -0.0021   -0.0023   -0.0151   -0.0144    0.0146   -0.0348    0.0368   -0.0000   -0.0029
       70 O3     4py       -0.0005    0.0013    0.0014   -0.0009   -0.0036   -0.0011   -0.0036    0.0031   -0.0000   -0.0034
       71 O3     2pz        0.0000   -0.0000   -0.0000   -0.0000   -0.0000    0.0000   -0.0000   -0.0000    0.3741    0.0000
       72 O3     3pz        0.0000   -0.0000   -0.0000    0.0000    0.0000    0.0000    0.0000    0.0000   -0.0186    0.0000
       73 O3     4pz        0.0000   -0.0000   -0.0000    0.0000    0.0000    0.0000    0.0000    0.0000   -0.0068   -0.0000
       74 O3     3d2-      -0.0004    0.0010    0.0010   -0.0167   -0.0150    0.0120   -0.0058    0.0282    0.0000   -0.0014
       75 O3     4d2-      -0.0002    0.0005    0.0005   -0.0020   -0.0018    0.0008   -0.0009    0.0025   -0.0000    0.0006
       76 O3     3d1-       0.0000   -0.0000   -0.0000    0.0000   -0.0000    0.0000   -0.0000   -0.0000    0.0272    0.0000
       77 O3     4d1-       0.0000    0.0000   -0.0000    0.0000    0.0000    0.0000    0.0000    0.0000    0.0040    0.0000
       78 O3     3d0       -0.0003    0.0005    0.0005   -0.0104   -0.0090    0.0037   -0.0093    0.0147    0.0000   -0.0043
       79 O3     4d0       -0.0002    0.0004    0.0004   -0.0003   -0.0010   -0.0001   -0.0005    0.0010   -0.0000   -0.0003
       80 O3     3d1+      -0.0000   -0.0000   -0.0000    0.0000   -0.0000   -0.0000    0.0000    0.0000   -0.0169   -0.0000
       81 O3     4d1+      -0.0000    0.0000    0.0000   -0.0000   -0.0000   -0.0000   -0.0000    0.0000   -0.0033   -0.0000
       82 O3     3d2+      -0.0005    0.0006    0.0006   -0.0119   -0.0051    0.0017   -0.0252    0.0063   -0.0000   -0.0180
       83 O3     4d2+      -0.0003    0.0003    0.0003   -0.0013   -0.0008    0.0006   -0.0021    0.0001   -0.0000   -0.0031
       84 O3     4f3-      -0.0001   -0.0000   -0.0000   -0.0008    0.0011   -0.0018   -0.0062   -0.0026   -0.0000   -0.0052
       85 O3     4f2-      -0.0000   -0.0000   -0.0000    0.0000    0.0000    0.0000    0.0000    0.0000   -0.0062   -0.0000
       86 O3     4f1-      -0.0000    0.0002    0.0001   -0.0030   -0.0026    0.0007   -0.0022    0.0031    0.0000   -0.0007
       87 O3     4f0       -0.0000   -0.0000   -0.0000    0.0000   -0.0000   -0.0000    0.0000    0.0000   -0.0038   -0.0000
       88 O3     4f1+       0.0000   -0.0001   -0.0001    0.0016    0.0017   -0.0008    0.0007   -0.0019   -0.0000    0.0013
       89 O3     4f2+       0.0000   -0.0000   -0.0000   -0.0000   -0.0000    0.0000    0.0000    0.0000   -0.0036    0.0000
       90 O3     4f3+       0.0000   -0.0002   -0.0002    0.0058    0.0051   -0.0022    0.0039   -0.0065   -0.0000    0.0024
 
          Orbital           11        12        13        14        15        16        17        18        19        20    
          Energy           -0.5516   -0.4897   -0.0489    0.1753    0.1789    0.2365    0.2772    0.3449    0.3808    0.3841
          Occ. No.          2.0000    2.0000    0.0000    0.0000    0.0000    0.0000    0.0000    0.0000    0.0000    0.0000
 
        1 O1     1s         0.0050    0.0000   -0.0000   -0.1920   -0.1401    0.0000   -0.0015   -0.0192    0.0758    0.0000
        2 O1     2s         0.0329    0.0000   -0.0000   -1.4225   -1.0255    0.0000    0.0875   -0.0343    0.4137    0.0000
        3 O1     3s         0.0170    0.0000   -0.0000   -0.8244   -0.5904    0.0000   -0.0856   -0.0381    0.5862    0.0000
        4 O1     4s         0.0047    0.0000   -0.0000   -0.1861   -0.1251    0.0000   -0.0321   -0.0032    0.1717    0.0000
        5 O1     2px        0.6458    0.0000   -0.0000    0.4779    0.2517   -0.0000   -0.2247   -0.2595    0.1500    0.0000
        6 O1     3px        0.0055   -0.0000    0.0000    0.4267    0.3462    0.0000    0.1800   -0.7468    0.5325    0.0000
        7 O1     4px       -0.0053   -0.0000    0.0000    0.0395    0.0769    0.0000    0.1188   -0.2955    0.2167    0.0000
        8 O1     2py       -0.1188   -0.0000    0.0000    0.5260    0.7864   -0.0000   -0.4503   -0.2939   -0.0660   -0.0000
        9 O1     3py       -0.0149   -0.0000    0.0000    0.6900    0.6582   -0.0000   -0.4120   -0.1859   -0.4706   -0.0000
       10 O1     4py       -0.0003   -0.0000    0.0000    0.1147    0.0621   -0.0000   -0.1510   -0.0376   -0.0908   -0.0000
       11 O1     2pz        0.0000   -0.7070    0.6655   -0.0000    0.0000   -0.1619    0.0000    0.0000    0.0000   -0.1787
       12 O1     3pz       -0.0000   -0.0358    0.1634    0.0000   -0.0000    0.3070   -0.0000    0.0000    0.0000   -0.9406
       13 O1     4pz        0.0000    0.0065    0.0252    0.0000   -0.0000    0.1859   -0.0000   -0.0000    0.0000   -0.3766
       14 O1     3d2-      -0.0135    0.0000   -0.0000   -0.0793   -0.0519   -0.0000   -0.0038   -0.0022    0.0111    0.0000
       15 O1     4d2-      -0.0014    0.0000   -0.0000   -0.0501   -0.0351    0.0000    0.0028    0.0143    0.0016    0.0000
       16 O1     3d1-      -0.0000    0.0220    0.0075    0.0000   -0.0000    0.0163    0.0000    0.0000   -0.0000    0.0015
       17 O1     4d1-       0.0000    0.0055   -0.0000    0.0000   -0.0000    0.0071    0.0000    0.0000   -0.0000    0.0097
       18 O1     3d0        0.0054   -0.0000    0.0000    0.0535    0.0450   -0.0000    0.0143   -0.0049   -0.0240   -0.0000
       19 O1     4d0        0.0003   -0.0000    0.0000    0.0350    0.0291   -0.0000    0.0047   -0.0105   -0.0085   -0.0000
       20 O1     3d1+      -0.0000    0.0131    0.0053    0.0000    0.0000    0.0046   -0.0000   -0.0000   -0.0000    0.0158
       21 O1     4d1+      -0.0000    0.0032   -0.0001   -0.0000    0.0000   -0.0000    0.0000    0.0000   -0.0000    0.0139
       22 O1     3d2+      -0.0000   -0.0000    0.0000    0.0406    0.0512    0.0000    0.0360    0.0001   -0.0875   -0.0000
       23 O1     4d2+      -0.0011   -0.0000    0.0000    0.0239    0.0353    0.0000    0.0116   -0.0008   -0.0520   -0.0000
       24 O1     4f3-       0.0025    0.0000   -0.0000   -0.0007   -0.0006    0.0000    0.0017   -0.0045    0.0120    0.0000
       25 O1     4f2-       0.0000   -0.0046    0.0002    0.0000   -0.0000    0.0022   -0.0000   -0.0000    0.0000   -0.0054
       26 O1     4f1-      -0.0015    0.0000   -0.0000   -0.0060   -0.0041    0.0000    0.0004    0.0050    0.0036    0.0000
       27 O1     4f0       -0.0000    0.0015    0.0014   -0.0000    0.0000   -0.0013    0.0000    0.0000   -0.0000    0.0061
       28 O1     4f1+       0.0001    0.0000   -0.0000   -0.0022   -0.0030    0.0000   -0.0002    0.0051   -0.0001    0.0000
       29 O1     4f2+       0.0000    0.0026   -0.0005   -0.0000    0.0000   -0.0003    0.0000    0.0000   -0.0000    0.0020
       30 O1     4f3+      -0.0029    0.0000   -0.0000   -0.0091   -0.0048    0.0000    0.0036    0.0087    0.0038    0.0000
       31 O2     1s         0.0201   -0.0000    0.0000   -0.0000    0.3153   -0.0000   -0.0719    0.0000   -0.1195   -0.0000
       32 O2     2s         0.2453   -0.0000    0.0000   -0.0000    2.2866   -0.0000   -0.6223    0.0000   -0.7139   -0.0000
       33 O2     3s         0.0481   -0.0000    0.0000   -0.0000    1.2656    0.0000   -0.1582    0.0000   -0.4360   -0.0000
       34 O2     4s         0.0119   -0.0000    0.0000   -0.0000    0.2701    0.0000   -0.0331    0.0000   -0.0540   -0.0000
       35 O2     2px       -0.4842   -0.0000   -0.0000   -0.0000    0.8054   -0.0000   -0.3716    0.0000   -0.4786   -0.0000
       36 O2     3px       -0.0023    0.0000   -0.0000   -0.0000    0.8765    0.0000    0.2170    0.0000   -1.3106   -0.0000
       37 O2     4px       -0.0011    0.0000   -0.0000   -0.0000    0.1426    0.0000    0.1366    0.0000   -0.2881   -0.0000
       38 O2     2py       -0.0000    0.0000   -0.0000    1.3417    0.0000   -0.0000    0.0000   -0.1520    0.0000    0.0000
       39 O2     3py       -0.0000    0.0000   -0.0000    1.2939    0.0000   -0.0000    0.0000    0.4874    0.0000   -0.0000
       40 O2     4py       -0.0000    0.0000   -0.0000    0.1336    0.0000    0.0000   -0.0000    0.2299    0.0000   -0.0000
       41 O2     2pz        0.0000   -0.0000   -0.8570    0.0000    0.0000    0.0286    0.0000   -0.0000   -0.0000    0.0000
       42 O2     3pz        0.0000   -0.0000   -0.1840    0.0000   -0.0000    0.3999   -0.0000    0.0000   -0.0000    0.0000
       43 O2     4pz        0.0000   -0.0000   -0.0215    0.0000   -0.0000    0.2092   -0.0000    0.0000   -0.0000    0.0000
       44 O2     3d2-      -0.0000   -0.0000    0.0000    0.1404    0.0000   -0.0000    0.0000    0.0861    0.0000    0.0000
       45 O2     4d2-      -0.0000   -0.0000    0.0000    0.0874    0.0000   -0.0000    0.0000    0.0641    0.0000    0.0000
       46 O2     3d1-       0.0000   -0.0578   -0.0000   -0.0000    0.0000   -0.0000    0.0000    0.0000   -0.0000    0.0945
       47 O2     4d1-       0.0000   -0.0137   -0.0000   -0.0000    0.0000   -0.0000    0.0000   -0.0000   -0.0000    0.0568
       48 O2     3d0        0.0182    0.0000   -0.0000    0.0000   -0.0809   -0.0000   -0.0541   -0.0000    0.1448    0.0000
       49 O2     4d0        0.0021    0.0000   -0.0000    0.0000   -0.0532   -0.0000   -0.0278   -0.0000    0.0821    0.0000
       50 O2     3d1+      -0.0000    0.0000    0.0068   -0.0000    0.0000   -0.0278    0.0000    0.0000   -0.0000    0.0000
       51 O2     4d1+      -0.0000    0.0000    0.0015   -0.0000    0.0000   -0.0106    0.0000    0.0000   -0.0000    0.0000
       52 O2     3d2+       0.0403    0.0000   -0.0000    0.0000   -0.0463   -0.0000   -0.0737    0.0000   -0.0027    0.0000
       53 O2     4d2+       0.0086    0.0000    0.0000    0.0000   -0.0242   -0.0000   -0.0301    0.0000   -0.0226   -0.0000
       54 O2     4f3-      -0.0000    0.0000   -0.0000   -0.0050   -0.0000    0.0000   -0.0000    0.0046    0.0000    0.0000
       55 O2     4f2-       0.0000   -0.0085    0.0000   -0.0000    0.0000   -0.0000   -0.0000   -0.0000   -0.0000    0.0077
       56 O2     4f1-       0.0000    0.0000   -0.0000   -0.0080    0.0000    0.0000   -0.0000   -0.0124   -0.0000   -0.0000
       57 O2     4f0        0.0000   -0.0000   -0.0020   -0.0000   -0.0000   -0.0028    0.0000   -0.0000    0.0000   -0.0000
       58 O2     4f1+      -0.0003    0.0000   -0.0000    0.0000   -0.0069   -0.0000   -0.0058   -0.0000    0.0143    0.0000
       59 O2     4f2+       0.0000    0.0000    0.0009    0.0000   -0.0000   -0.0016   -0.0000    0.0000    0.0000   -0.0000
       60 O2     4f3+       0.0061    0.0000   -0.0000    0.0000   -0.0120   -0.0000   -0.0078   -0.0000    0.0167    0.0000
       61 O3     1s         0.0050   -0.0000    0.0000    0.1920   -0.1401   -0.0000   -0.0015    0.0192    0.0758    0.0000
       62 O3     2s         0.0329   -0.0000   -0.0000    1.4225   -1.0255   -0.0000    0.0875    0.0343    0.4137    0.0000
       63 O3     3s         0.0170   -0.0000    0.0000    0.8244   -0.5904   -0.0000   -0.0856    0.0381    0.5862    0.0000
       64 O3     4s         0.0047   -0.0000    0.0000    0.1861   -0.1251   -0.0000   -0.0321    0.0032    0.1717    0.0000
       65 O3     2px        0.6458    0.0000    0.0000   -0.4779    0.2517   -0.0000   -0.2247    0.2595    0.1500    0.0000
       66 O3     3px        0.0055   -0.0000    0.0000   -0.4267    0.3462    0.0000    0.1800    0.7468    0.5325    0.0000
       67 O3     4px       -0.0053   -0.0000    0.0000   -0.0395    0.0769    0.0000    0.1188    0.2955    0.2167    0.0000
       68 O3     2py        0.1188   -0.0000    0.0000    0.5260   -0.7864    0.0000    0.4503   -0.2939    0.0660    0.0000
       69 O3     3py        0.0149    0.0000    0.0000    0.6900   -0.6582   -0.0000    0.4120   -0.1859    0.4706    0.0000
       70 O3     4py        0.0003    0.0000   -0.0000    0.1147   -0.0621    0.0000    0.1510   -0.0376    0.0908    0.0000
       71 O3     2pz       -0.0000    0.7070    0.6655   -0.0000   -0.0000   -0.1619    0.0000   -0.0000   -0.0000    0.1787
       72 O3     3pz       -0.0000    0.0358    0.1634   -0.0000    0.0000    0.3070   -0.0000   -0.0000   -0.0000    0.9406
       73 O3     4pz       -0.0000   -0.0065    0.0252    0.0000    0.0000    0.1859   -0.0000   -0.0000   -0.0000    0.3766
       74 O3     3d2-       0.0135    0.0000    0.0000   -0.0793    0.0519    0.0000    0.0038   -0.0022   -0.0111   -0.0000
       75 O3     4d2-       0.0014    0.0000    0.0000   -0.0501    0.0351    0.0000   -0.0028    0.0143   -0.0016   -0.0000
       76 O3     3d1-      -0.0000    0.0220   -0.0075   -0.0000    0.0000   -0.0163    0.0000   -0.0000   -0.0000    0.0015
       77 O3     4d1-      -0.0000    0.0055    0.0000   -0.0000    0.0000   -0.0071    0.0000   -0.0000   -0.0000    0.0097
       78 O3     3d0        0.0054   -0.0000    0.0000   -0.0535    0.0450    0.0000    0.0143    0.0049   -0.0240   -0.0000
       79 O3     4d0        0.0003   -0.0000    0.0000   -0.0350    0.0291    0.0000    0.0047    0.0105   -0.0085   -0.0000
       80 O3     3d1+       0.0000   -0.0131    0.0053   -0.0000   -0.0000    0.0046   -0.0000    0.0000    0.0000   -0.0158
       81 O3     4d1+       0.0000   -0.0032   -0.0001   -0.0000    0.0000   -0.0000    0.0000    0.0000    0.0000   -0.0139
       82 O3     3d2+      -0.0000    0.0000   -0.0000   -0.0406    0.0512    0.0000    0.0360   -0.0001   -0.0875   -0.0000
       83 O3     4d2+      -0.0011   -0.0000    0.0000   -0.0239    0.0353    0.0000    0.0116    0.0008   -0.0520   -0.0000
       84 O3     4f3-      -0.0025   -0.0000   -0.0000   -0.0007    0.0006    0.0000   -0.0017   -0.0045   -0.0120   -0.0000
       85 O3     4f2-       0.0000   -0.0046   -0.0002   -0.0000   -0.0000   -0.0022    0.0000    0.0000    0.0000   -0.0054
       86 O3     4f1-       0.0015   -0.0000    0.0000   -0.0060    0.0041    0.0000   -0.0004    0.0050   -0.0036   -0.0000
       87 O3     4f0       -0.0000   -0.0015    0.0014   -0.0000   -0.0000   -0.0013    0.0000   -0.0000    0.0000   -0.0061
       88 O3     4f1+       0.0001    0.0000    0.0000    0.0022   -0.0030   -0.0000   -0.0002   -0.0051   -0.0001    0.0000
       89 O3     4f2+       0.0000   -0.0026   -0.0005   -0.0000    0.0000   -0.0003   -0.0000    0.0000    0.0000   -0.0020
       90 O3     4f3+      -0.0029   -0.0000   -0.0000    0.0091   -0.0048   -0.0000    0.0036   -0.0087    0.0038    0.0000
 
          Orbital           21        22    
          Energy            0.4178    0.4503
          Occ. No.          0.0000    0.0000
 
        1 O1     1s        -0.0163   -0.0020
        2 O1     2s        -0.0697   -0.0932
        3 O1     3s        -0.0108    0.1687
        4 O1     4s         0.0305    0.0526
        5 O1     2px        0.2546    0.3224
        6 O1     3px        0.6134   -0.2010
        7 O1     4px        0.1485   -0.0913
        8 O1     2py       -0.0761    0.1754
        9 O1     3py        0.6857   -0.4544
       10 O1     4py        0.2283   -0.1580
       11 O1     2pz       -0.0000   -0.0000
       12 O1     3pz       -0.0000   -0.0000
       13 O1     4pz       -0.0000   -0.0000
       14 O1     3d2-      -0.1317    0.0980
       15 O1     4d2-      -0.0881    0.0522
       16 O1     3d1-      -0.0000    0.0000
       17 O1     4d1-      -0.0000    0.0000
       18 O1     3d0        0.0406   -0.0741
       19 O1     4d0        0.0270   -0.0437
       20 O1     3d1+       0.0000   -0.0000
       21 O1     4d1+      -0.0000   -0.0000
       22 O1     3d2+       0.0471   -0.0151
       23 O1     4d2+       0.0255   -0.0150
       24 O1     4f3-       0.0026   -0.0022
       25 O1     4f2-      -0.0000   -0.0000
       26 O1     4f1-      -0.0081    0.0091
       27 O1     4f0        0.0000    0.0000
       28 O1     4f1+      -0.0062    0.0056
       29 O1     4f2+      -0.0000    0.0000
       30 O1     4f3+      -0.0165    0.0085
       31 O2     1s         0.1649    0.0000
       32 O2     2s         0.8598    0.0000
       33 O2     3s         0.8825    0.0000
       34 O2     4s         0.2091    0.0000
       35 O2     2px       -0.4827   -0.0000
       36 O2     3px       -0.6893   -0.0000
       37 O2     4px       -0.2886   -0.0000
       38 O2     2py       -0.0000    0.7692
       39 O2     3py        0.0000    0.1350
       40 O2     4py       -0.0000    0.0901
       41 O2     2pz       -0.0000    0.0000
       42 O2     3pz       -0.0000    0.0000
       43 O2     4pz       -0.0000    0.0000
       44 O2     3d2-       0.0000   -0.1676
       45 O2     4d2-       0.0000   -0.0635
       46 O2     3d1-       0.0000    0.0000
       47 O2     4d1-       0.0000   -0.0000
       48 O2     3d0       -0.1059   -0.0000
       49 O2     4d0       -0.0372   -0.0000
       50 O2     3d1+      -0.0000    0.0000
       51 O2     4d1+      -0.0000    0.0000
       52 O2     3d2+      -0.0913   -0.0000
       53 O2     4d2+      -0.0387   -0.0000
       54 O2     4f3-      -0.0000   -0.0016
       55 O2     4f2-       0.0000   -0.0000
       56 O2     4f1-      -0.0000    0.0002
       57 O2     4f0        0.0000   -0.0000
       58 O2     4f1+       0.0018    0.0000
       59 O2     4f2+       0.0000   -0.0000
       60 O2     4f3+      -0.0019    0.0000
       61 O3     1s        -0.0163    0.0020
       62 O3     2s        -0.0697    0.0932
       63 O3     3s        -0.0108   -0.1687
       64 O3     4s         0.0305   -0.0526
       65 O3     2px        0.2546   -0.3224
       66 O3     3px        0.6134    0.2010
       67 O3     4px        0.1485    0.0913
       68 O3     2py        0.0761    0.1754
       69 O3     3py       -0.6857   -0.4544
       70 O3     4py       -0.2283   -0.1580
       71 O3     2pz        0.0000   -0.0000
       72 O3     3pz        0.0000   -0.0000
       73 O3     4pz        0.0000   -0.0000
       74 O3     3d2-       0.1317    0.0980
       75 O3     4d2-       0.0881    0.0522
       76 O3     3d1-       0.0000   -0.0000
       77 O3     4d1-       0.0000   -0.0000
       78 O3     3d0        0.0406    0.0741
       79 O3     4d0        0.0270    0.0437
       80 O3     3d1+      -0.0000   -0.0000
       81 O3     4d1+      -0.0000   -0.0000
       82 O3     3d2+       0.0471    0.0151
       83 O3     4d2+       0.0255    0.0150
       84 O3     4f3-      -0.0026   -0.0022
       85 O3     4f2-      -0.0000    0.0000
       86 O3     4f1-       0.0081    0.0091
       87 O3     4f0       -0.0000    0.0000
       88 O3     4f1+      -0.0062   -0.0056
       89 O3     4f2+      -0.0000    0.0000
       90 O3     4f3+      -0.0165   -0.0085
--
 
 
++    Molecular charges:
      ------------------
 
      Mulliken charges per centre and basis function type
      ---------------------------------------------------
 
                O1      O2      O3    
      1s       1.9979  1.9980  1.9979
      2s       1.9440  1.7161  1.9440
      2px      1.7133  1.5259  1.7133
      2pz      1.3681  1.1813  1.3681
      2py      1.1176  1.0509  1.1176
      3s      -0.0010 -0.0226 -0.0010
      3px     -0.0113 -0.0141 -0.0113
      3pz     -0.0114 -0.0134 -0.0114
      3py      0.0040  0.0016  0.0040
      4s       0.0045  0.0023  0.0045
      3d2+     0.0111  0.0387  0.0111
      3d1+     0.0043  0.0091  0.0043
      3d0      0.0056  0.0075  0.0056
      3d1-     0.0109  0.0455  0.0109
      3d2-     0.0169  0.0417  0.0169
      4px      0.0008  0.0018  0.0008
      4pz      0.0012  0.0016  0.0012
      4py      0.0024  0.0030  0.0024
      4d2+     0.0002  0.0076  0.0002
      4d1+     0.0008  0.0013  0.0008
      4d0     -0.0001 -0.0001 -0.0001
      4d1-     0.0011  0.0117  0.0011
      4d2-     0.0006  0.0043  0.0006
      4f3+     0.0029  0.0032  0.0029
      4f2+     0.0005  0.0009  0.0005
      4f1+     0.0004  0.0006  0.0004
      4f0      0.0009  0.0016  0.0009
      4f1-     0.0009  0.0012  0.0009
      4f2-     0.0017  0.0043  0.0017
      4f3-     0.0020  0.0071  0.0020
      Total    8.1908  7.6185  8.1908
 
      N-E     -0.1908  0.3815 -0.1908
 
      Total electronic charge=   24.000000
 
      Total            charge=   -0.000000
--
 
 
  Input file to MOLDEN was generated!
 
 
++    Static properties:
      ------------------
 
 
      LoProp Charges per center
 

                   O1       O2       O3    
      Nuclear      8.0000   8.0000   8.0000
      Electronic  -8.2084  -7.5832  -8.2084
 
      Total       -0.2084   0.4168  -0.2084
--
 
 
++    Natural Bond Order analysis
      ---------------------------
      Based on LoProp computed density
      -------------------------------------------------------------------------------------
      Atom A       Atom B       Bond Order | Atom A       Atom B       Bond Order
        O1           O2             1.997  |   O2           O3             1.997
      -------------------------------------------------------------------------------------
      NBO located      9.999 core electrons.
      NBO located      5.936 lone pair electrons.
      NBO located      7.989 electrons involved in    2 bonds.
      The remaining    0.075 electrons are to be considered as diffuse
--
 
 
++    Molecular properties:
      ---------------------
 
      Charge (e):
                      =   -0.0000
      Dipole Moment (Debye):
      Origin of the operator (Ang)=    0.0000    0.0000    0.0000
                   X= -7.6644E-01               Y=  3.2902E-11               Z=  1.1260E-13           Total=  7.6644E-01
      Quadrupole Moment (Debye*Ang):
      Origin of the operator (Ang)=    0.4340    0.0000    0.0000
                  XX= -1.5801E+01              XY=  1.6156E-11              XZ=  5.9233E-14              YY= -1.7313E+01
                  YZ=  2.4413E-13              ZZ= -1.4903E+01
      In traceless form (Debye*Ang)
                  XX=  3.0662E-01              XY=  2.4234E-11              XZ=  8.8849E-14              YY= -1.9605E+00
                  YZ=  3.6619E-13              ZZ=  1.6539E+00
--
 
 
  Input file to MOLDEN was generated!
 
 ###############################################################################
 ###############################################################################
 ###                                                                         ###
 ###                                                                         ###
 ###    RunFile label nBas                                                   ###
 ###    was used       78 times                                              ###
 ###                                                                         ###
 ###                                                                         ###
 ###############################################################################
 ###############################################################################
--- Stop Module: scf at Tue Dec 31 22:42:03 2024 /rc=_RC_ALL_IS_WELL_ ---
*** files: ozone_118.75.LprOrb ozone_118.75.LoProp.molden ozone_118.75.scf.molden ozone_118.75.ScfOrb ozone_118.75.scf.h5 xmldump
    saved to directory /home/grierjones/DDCASPT2/ozone/ANO-RCC-VTZP/ozone_118.75

>>> COPY /tmp/ozone_118.75/ozone_118.75.scf.h5 /home/grierjones/DDCASPT2/ozone/ANO-RCC-VTZP/ozone_118.75/

*** symbolic link created: INPORB -> ozone_118.75.ScfOrb
--- Start Module: rasscf at Tue Dec 31 22:42:03 2024 ---
 
()()()()()()()()()()()()()()()()()()()()()()()()()()()()()()()()()()()()()()()()()()()()()()()()()()

                                              &RASSCF

                                   only a single process is used
                       available to each process: 2.0 GB of memory, 1 thread?
()()()()()()()()()()()()()()()()()()()()()()()()()()()()()()()()()()()()()()()()()()()()()()()()()()
 
 
 *************** WARNING ****************
 ###############################################################################
 ###############################################################################
 ###                                                                         ###
 ###                                                                         ###
 ###    Too many macro-iterations.                                           ###
 ###                                                                         ###
 ###                                                                         ###
 ###############################################################################
 ###############################################################################
 Too many macro-iterations requested.
 Reset to maximum, new MAXIT=     200
 ****************************************
 
 *************** WARNING ****************
 ###############################################################################
 ###############################################################################
 ###                                                                         ###
 ###                                                                         ###
 ###    Too many SX-iterations.                                              ###
 ###                                                                         ###
 ###                                                                         ###
 ###############################################################################
 ###############################################################################
 Too many SX-iterations requested.
 Reset to maximum, new ITMAX=     100
 ****************************************
 
      Header of the ONEINT file:
      --------------------------
      
      Integrals generated by seward 4.2.0  , Tue Dec 31 22:41:59 2024
 
 
      OrdInt status: non-squared
 
 
      Cartesian coordinates in Angstrom:
      -----------------------------------------------------
      No.  Label        X            Y            Z        
      -----------------------------------------------------
       1   O1         0.65103500   1.09974400   0.00000000
       2   O2         0.00000000   0.00000000   0.00000000
       3   O3         0.65103500  -1.09974400   0.00000000
      -----------------------------------------------------
      Nuclear repulsion energy =   68.39837316
 
++    Wave function specifications:
      -----------------------------
 
      Number of closed shell electrons          20
      Number of electrons in active shells       4
      Max number of holes in RAS1 space          0
      Max nr of electrons in RAS3 space          0
      Number of inactive orbitals               10
      Number of active orbitals                  3
      Number of secondary orbitals              77
      Spin quantum number                      0.0
      State symmetry                             1
--
 
++    Orbital specifications:
      -----------------------
 
      Symmetry species                           1
                                                 a
      Frozen orbitals                            0
      Inactive orbitals                         10
      Active orbitals                            3
      RAS1 orbitals                              0
      RAS2 orbitals                              3
      RAS3 orbitals                              0
      Secondary orbitals                        77
      Deleted orbitals                           0
      Number of basis functions                 90
--
 
++    CI expansion specifications:
      ----------------------------
 
      Number of CSFs                             6
      Number of determinants                     6
      Number of root(s) required                 1
      Root chosen for geometry opt.              1
      CI root used                               1
         
      highest root included in the CI            1
      max. size of the explicit Hamiltonian      6
--
 
++    Optimization specifications:
      ----------------------------
 
      RASSCF algorithm: Conventional
      Maximum number of macro iterations       200
      Maximum number of SX iterations          100
      Threshold for RASSCF energy            0.100E-07
      Threshold for max MO rotation          0.100E+00
      Threshold for max BLB element          0.100E-03
      Level shift parameter                  0.500E+00
      Make Quasi-Newton update
--
 
      The MO-coefficients are taken from the file:
      /home/grierjones/DDCASPT2/ozone/ANO-RCC-VTZP/ozone_118.50/ozone_118.50.RasOrb                                                   
      Title: RASSCF average (pseudo-natural) orbitals                                      
 
      Total molecular charge    0.00
 
      ************************************************************************************************************************
      *                                                                                                                      *
      *                                            Wave function control section                                             *
      *                                                                                                                      *
      ************************************************************************************************************************
 
 
                                         RASSCF iterations: Energy and convergence statistics
                                         ----------------------------------------------------
 
      Iter CI   SX   CI       RASSCF       Energy    max ROT     max BLB   max BLB  Level Ln srch  Step   QN   Walltime
          iter iter root      energy       change     param      element    value   shift minimum  type update hh:mm:ss
 Nr of preliminary CI iterations:   1
        1   1    3    1  -224.60988522    0.00E+00   0.42E-03    9  22 1 -0.10E-02*  0.18   0.00    SX    NO    0:00:00
        2   1    3    1  -224.60989013   -0.49E-05*  0.26E-03    9  22 1 -0.62E-03*  0.18   0.00    SX    NO    0:00:00
        3   1    3    1  -224.60989129   -0.12E-05*  0.16E-03    9  22 1 -0.39E-03*  0.18   0.00    SX    NO    0:00:00
        4   1    3    1  -224.60989169   -0.40E-06*  0.95E-04    9  22 1 -0.23E-03*  0.18   0.00    SX    NO    0:00:00
        5   1    3    1  -224.60989183   -0.14E-06*  0.14E-03    9  22 1 -0.14E-03*  0.18   2.50    LS   YES    0:00:00
        6   1    3    1  -224.60989190   -0.69E-07*  0.27E-04    8  22 1 -0.85E-04   0.18   0.92    QN   YES    0:00:00
        7   1    3    1  -224.60989191   -0.12E-07* -0.99E-05    8  22 1  0.48E-04   0.18   0.75    QN   YES    0:00:00
        8   1    2    1  -224.60989191   -0.27E-09   0.47E-05    8  22 1 -0.32E-04   0.18   0.46    QN   YES    0:00:00
      Convergence after  8 iterations
 
  Dmat in MO in SXCTL bf call to SXHAM                                                                                    
  mat. size =     3x    3
 
        1.9929107440334768
       -0.0000000000004024      1.6138333442071400
       -0.0006639665636527      0.0000000000005930      0.3932559117593837
        9   1    2    1  -224.60989191   -0.47E-09   0.47E-05   10  21 1  0.32E-05   0.18   0.46    QN   YES    0:00:00
 
      ************************************************************************************************************************
                                                      Wave function printout:
                       occupation of active orbitals, and spin coupling of open shells (u,d: Spin up or down)
      ************************************************************************************************************************
 
      Note: transformation to natural orbitals
      has been made, which may change the order of the CSFs.
 
      printout of CI-coefficients larger than  0.05 for root  1
      energy=    -224.609892
      conf/sym  111     Coeff  Weight
             1  220  -0.89631 0.80337
             3  202   0.43941 0.19308
             6  022   0.05954 0.00354
 
      Natural orbitals and occupation numbers for root  1
      sym 1:   1.992911   1.613833   0.393256
 
      ************************************************************************************************************************
      *                                                                                                                      *
      *                                                    Final results                                                     *
      *                                                                                                                      *
      ************************************************************************************************************************
 
 
++    Wave function specifications:
      -----------------------------
 
      Number of closed shell electrons          20
      Number of electrons in active shells       4
      Max number of holes in RAS1 space          0
      Max nr of electrons in RAS3 space          0
      Number of inactive orbitals               10
      Number of active orbitals                  3
      Number of secondary orbitals              77
      Spin quantum number                      0.0
      State symmetry                             1
--
 
++    Orbital specifications:
      -----------------------
 
      Symmetry species                           1
                                                 a
      Frozen orbitals                            0
      Inactive orbitals                         10
      Active orbitals                            3
      RAS1 orbitals                              0
      RAS2 orbitals                              3
      RAS3 orbitals                              0
      Secondary orbitals                        77
      Deleted orbitals                           0
      Number of basis functions                 90
--
 
++    CI expansion specifications:
      ----------------------------
 
      Number of CSFs                             6
      Number of determinants                     6
      Number of root(s) required                 1
      CI root used                               1
      highest root included in the CI            1
      Root passed to geometry opt.               1
--
 
++    Final optimization conditions:
      ------------------------------
 
      Average CI energy                            -224.60989191
      RASSCF energy for state  1                   -224.60989191
      Super-CI energy                                -0.00000000
      RASSCF energy change                           -0.00000000
      Max change in MO coefficients              -0.568E-05
      Max non-diagonal density matrix element     0.469E-05
      Maximum BLB matrix element                  0.319E-05
      (orbital pair  10,  21 in symmetry   1)
      Norm of electronic gradient            0.158E-04
--
 
 
      Final state energy(ies):
      ------------------------
 
::    RASSCF root number  1 Total energy:   -224.60989191
 
++    Molecular orbitals:
      -------------------
 
      Pseudonatural active orbitals and approximate occupation numbers
 
 
 
 
      Molecular orbitals for symmetry species 1: a  
 
 
      Orbital                1         2         3         4         5         6         7         8         9        10
      Energy          -20.8302  -20.7214  -20.7214   -1.7120   -1.4175   -1.0758   -0.7964   -0.7833   -0.5697   -0.5369
      Occ. No.          2.0000    2.0000    2.0000    2.0000    2.0000    2.0000    2.0000    2.0000    2.0000    2.0000
 
    1 O1     1s         0.0037   -0.7064    0.7063   -0.0135    0.0107    0.0118   -0.0103    0.0219    0.0063    0.0043
    2 O1     2s         0.0043    0.0048   -0.0051    0.3530   -0.5907    0.6026   -0.2051    0.3929    0.0497    0.0211
    3 O1     3s         0.0025    0.0035   -0.0036   -0.0122    0.0183    0.0207   -0.0211    0.0494    0.0168    0.0187
    4 O1     4s         0.0004    0.0007   -0.0006   -0.0013    0.0043    0.0030   -0.0043    0.0105    0.0040    0.0056
    5 O1     2px       -0.0012   -0.0013    0.0012   -0.0534    0.0607    0.1135    0.1999    0.3544   -0.5274    0.6395
    6 O1     3px       -0.0008   -0.0013    0.0011    0.0130   -0.0083   -0.0183   -0.0101   -0.0287   -0.0126    0.0100
    7 O1     4px        0.0001    0.0006   -0.0008    0.0023   -0.0000    0.0004   -0.0012   -0.0030    0.0037   -0.0055
    8 O1     2py       -0.0025   -0.0019    0.0022   -0.1120    0.0657    0.1139   -0.3720    0.2775    0.5039   -0.0681
    9 O1     3py       -0.0014   -0.0020    0.0022    0.0164   -0.0141   -0.0185    0.0315   -0.0351   -0.0017   -0.0169
   10 O1     4py        0.0006    0.0013   -0.0013    0.0008   -0.0036    0.0011    0.0049   -0.0038   -0.0040   -0.0014
   11 O1     2pz       -0.0000    0.0000   -0.0000   -0.0000   -0.0000    0.0000   -0.0000   -0.0000    0.0000   -0.0000
   12 O1     3pz       -0.0000    0.0000   -0.0000    0.0000   -0.0000    0.0000    0.0000    0.0000    0.0000   -0.0000
   13 O1     4pz        0.0000   -0.0000    0.0000   -0.0000    0.0000   -0.0000    0.0000   -0.0000   -0.0000    0.0000
   14 O1     3d2-       0.0005    0.0010   -0.0010    0.0162   -0.0141   -0.0132    0.0033   -0.0282   -0.0017   -0.0128
   15 O1     4d2-       0.0002    0.0005   -0.0005    0.0018   -0.0017   -0.0010    0.0006   -0.0026    0.0004   -0.0012
   16 O1     3d1-       0.0000   -0.0000    0.0000    0.0000   -0.0000    0.0000    0.0000   -0.0000   -0.0000   -0.0000
   17 O1     4d1-       0.0000   -0.0000    0.0000   -0.0000   -0.0000   -0.0000   -0.0000   -0.0000   -0.0000    0.0000
   18 O1     3d0       -0.0004   -0.0005    0.0005   -0.0114    0.0098    0.0044   -0.0087    0.0147    0.0049    0.0057
   19 O1     4d0       -0.0002   -0.0004    0.0004   -0.0005    0.0015   -0.0004   -0.0005    0.0009    0.0005    0.0003
   20 O1     3d1+       0.0000    0.0000    0.0000   -0.0000    0.0000   -0.0000    0.0000   -0.0000   -0.0000    0.0000
   21 O1     4d1+      -0.0000   -0.0000    0.0000    0.0000    0.0000   -0.0000   -0.0000   -0.0000   -0.0000   -0.0000
   22 O1     3d2+      -0.0005   -0.0006    0.0006   -0.0120    0.0050    0.0035   -0.0252    0.0067    0.0173    0.0030
   23 O1     4d2+      -0.0003   -0.0003    0.0003   -0.0013    0.0008    0.0006   -0.0022    0.0003    0.0028   -0.0005
   24 O1     4f3-       0.0001   -0.0000    0.0000    0.0009    0.0009    0.0014    0.0064    0.0025   -0.0048    0.0016
   25 O1     4f2-      -0.0000    0.0000   -0.0000   -0.0000   -0.0000   -0.0000   -0.0000    0.0000    0.0000   -0.0000
   26 O1     4f1-       0.0001    0.0001   -0.0001    0.0031   -0.0027   -0.0007    0.0016   -0.0027   -0.0004   -0.0016
   27 O1     4f0       -0.0000   -0.0000   -0.0000   -0.0000    0.0000   -0.0000    0.0000   -0.0000   -0.0000    0.0000
   28 O1     4f1+       0.0000    0.0001   -0.0001    0.0017   -0.0017   -0.0006    0.0006   -0.0015   -0.0016    0.0005
   29 O1     4f2+      -0.0000   -0.0000   -0.0000    0.0000   -0.0000    0.0000   -0.0000    0.0000   -0.0000    0.0000
   30 O1     4f3+       0.0000    0.0002   -0.0002    0.0056   -0.0048   -0.0026    0.0031   -0.0064   -0.0023   -0.0031
   31 O2     1s         0.9988    0.0000   -0.0027   -0.0280   -0.0000   -0.0153   -0.0106   -0.0000    0.0000    0.0246
   32 O2     2s        -0.0081   -0.0000    0.0105    0.5938    0.0000   -0.6749   -0.1429   -0.0000    0.0000    0.3115
   33 O2     3s        -0.0059   -0.0000    0.0060   -0.0583   -0.0000   -0.0238   -0.0188   -0.0000   -0.0000    0.0625
   34 O2     4s        -0.0012   -0.0000    0.0010   -0.0114    0.0000   -0.0047   -0.0052   -0.0000   -0.0000    0.0151
   35 O2     2px       -0.0020   -0.0000    0.0036    0.1051   -0.0000    0.1777    0.6085    0.0000   -0.0000   -0.5254
   36 O2     3px       -0.0026   -0.0000    0.0022   -0.0373   -0.0000   -0.0239   -0.0550   -0.0000    0.0000   -0.0104
   37 O2     4px        0.0020    0.0000   -0.0007   -0.0038    0.0000    0.0017   -0.0103   -0.0000    0.0000   -0.0001
   38 O2     2py        0.0000   -0.0054   -0.0000    0.0000   -0.2970   -0.0000    0.0000   -0.5246   -0.1431   -0.0000
   39 O2     3py        0.0000   -0.0034   -0.0000   -0.0000    0.0582    0.0000    0.0000    0.0513   -0.0127   -0.0000
   40 O2     4py       -0.0000    0.0011    0.0000   -0.0000   -0.0009   -0.0000    0.0000    0.0097   -0.0013   -0.0000
   41 O2     2pz        0.0000   -0.0000    0.0000    0.0000    0.0000    0.0000   -0.0000   -0.0000   -0.0000    0.0000
   42 O2     3pz        0.0000   -0.0000    0.0000    0.0000    0.0000    0.0000    0.0000    0.0000   -0.0000    0.0000
   43 O2     4pz       -0.0000    0.0000   -0.0000   -0.0000    0.0000   -0.0000   -0.0000    0.0000    0.0000   -0.0000
   44 O2     3d2-       0.0000   -0.0014   -0.0000    0.0000   -0.0400    0.0000    0.0000   -0.0332   -0.0401   -0.0000
   45 O2     4d2-       0.0000   -0.0007   -0.0000    0.0000   -0.0042    0.0000    0.0000   -0.0036   -0.0068   -0.0000
   46 O2     3d1-      -0.0000   -0.0000    0.0000   -0.0000    0.0000    0.0000    0.0000   -0.0000   -0.0000   -0.0000
   47 O2     4d1-       0.0000   -0.0000    0.0000   -0.0000    0.0000    0.0000    0.0000   -0.0000   -0.0000   -0.0000
   48 O2     3d0        0.0010    0.0000   -0.0010   -0.0150    0.0000   -0.0066   -0.0164   -0.0000   -0.0000    0.0220
   49 O2     4d0        0.0006    0.0000   -0.0005    0.0006    0.0000   -0.0007   -0.0015   -0.0000   -0.0000    0.0028
   50 O2     3d1+       0.0000   -0.0000    0.0000    0.0000   -0.0000    0.0000    0.0000   -0.0000   -0.0000   -0.0000
   51 O2     4d1+       0.0000   -0.0000    0.0000    0.0000   -0.0000    0.0000    0.0000   -0.0000   -0.0000   -0.0000
   52 O2     3d2+       0.0004    0.0000   -0.0008   -0.0107    0.0000    0.0022    0.0251    0.0000   -0.0000    0.0336
   53 O2     4d2+       0.0002    0.0000   -0.0004   -0.0010    0.0000    0.0004    0.0034   -0.0000    0.0000    0.0064
   54 O2     4f3-      -0.0000   -0.0000   -0.0000   -0.0000    0.0003    0.0000   -0.0000    0.0038   -0.0090    0.0000
   55 O2     4f2-       0.0000   -0.0000    0.0000    0.0000    0.0000   -0.0000    0.0000   -0.0000   -0.0000   -0.0000
   56 O2     4f1-       0.0000    0.0001    0.0000   -0.0000    0.0061   -0.0000   -0.0000    0.0055    0.0014    0.0000
   57 O2     4f0       -0.0000    0.0000   -0.0000   -0.0000    0.0000   -0.0000   -0.0000   -0.0000    0.0000    0.0000
   58 O2     4f1+       0.0002    0.0000   -0.0001   -0.0036   -0.0000   -0.0008   -0.0038   -0.0000   -0.0000    0.0010
   59 O2     4f2+      -0.0000    0.0000    0.0000    0.0000   -0.0000   -0.0000    0.0000   -0.0000    0.0000    0.0000
   60 O2     4f3+       0.0002    0.0000   -0.0002   -0.0095   -0.0000   -0.0000   -0.0036   -0.0000    0.0000    0.0068
   61 O3     1s         0.0037    0.7064    0.7063   -0.0135   -0.0107    0.0118   -0.0103   -0.0219   -0.0063    0.0043
   62 O3     2s         0.0043   -0.0048   -0.0051    0.3530    0.5907    0.6026   -0.2051   -0.3929   -0.0497    0.0211
   63 O3     3s         0.0025   -0.0035   -0.0036   -0.0122   -0.0183    0.0207   -0.0211   -0.0494   -0.0168    0.0187
   64 O3     4s         0.0004   -0.0007   -0.0006   -0.0013   -0.0043    0.0030   -0.0043   -0.0105   -0.0040    0.0056
   65 O3     2px       -0.0012    0.0013    0.0012   -0.0534   -0.0607    0.1135    0.1999   -0.3544    0.5274    0.6395
   66 O3     3px       -0.0008    0.0013    0.0011    0.0130    0.0083   -0.0183   -0.0101    0.0287    0.0126    0.0100
   67 O3     4px        0.0001   -0.0006   -0.0008    0.0023    0.0000    0.0004   -0.0012    0.0030   -0.0037   -0.0055
   68 O3     2py        0.0025   -0.0019   -0.0022    0.1120    0.0657   -0.1139    0.3720    0.2775    0.5039    0.0681
   69 O3     3py        0.0014   -0.0020   -0.0022   -0.0164   -0.0141    0.0185   -0.0315   -0.0351   -0.0017    0.0169
   70 O3     4py       -0.0006    0.0013    0.0013   -0.0008   -0.0036   -0.0011   -0.0049   -0.0038   -0.0040    0.0014
   71 O3     2pz       -0.0000   -0.0000    0.0000   -0.0000   -0.0000   -0.0000    0.0000   -0.0000    0.0000    0.0000
   72 O3     3pz        0.0000    0.0000   -0.0000   -0.0000   -0.0000   -0.0000   -0.0000   -0.0000    0.0000   -0.0000
   73 O3     4pz        0.0000    0.0000   -0.0000    0.0000   -0.0000   -0.0000    0.0000   -0.0000   -0.0000    0.0000
   74 O3     3d2-      -0.0005    0.0010    0.0010   -0.0162   -0.0141    0.0132   -0.0033   -0.0282   -0.0017    0.0128
   75 O3     4d2-      -0.0002    0.0005    0.0005   -0.0018   -0.0017    0.0010   -0.0006   -0.0026    0.0004    0.0012
   76 O3     3d1-      -0.0000    0.0000   -0.0000   -0.0000    0.0000    0.0000   -0.0000   -0.0000    0.0000   -0.0000
   77 O3     4d1-      -0.0000    0.0000    0.0000   -0.0000   -0.0000    0.0000   -0.0000   -0.0000    0.0000   -0.0000
   78 O3     3d0       -0.0004    0.0005    0.0005   -0.0114   -0.0098    0.0044   -0.0087   -0.0147   -0.0049    0.0057
   79 O3     4d0       -0.0002    0.0004    0.0004   -0.0005   -0.0015   -0.0004   -0.0005   -0.0009   -0.0005    0.0003
   80 O3     3d1+       0.0000    0.0000    0.0000    0.0000   -0.0000    0.0000    0.0000    0.0000   -0.0000    0.0000
   81 O3     4d1+       0.0000   -0.0000   -0.0000    0.0000    0.0000    0.0000   -0.0000    0.0000   -0.0000   -0.0000
   82 O3     3d2+      -0.0005    0.0006    0.0006   -0.0120   -0.0050    0.0035   -0.0252   -0.0067   -0.0173    0.0030
   83 O3     4d2+      -0.0003    0.0003    0.0003   -0.0013   -0.0008    0.0006   -0.0022   -0.0003   -0.0028   -0.0005
   84 O3     4f3-      -0.0001   -0.0000   -0.0000   -0.0009    0.0009   -0.0014   -0.0064    0.0025   -0.0048   -0.0016
   85 O3     4f2-       0.0000   -0.0000    0.0000   -0.0000    0.0000   -0.0000    0.0000    0.0000   -0.0000   -0.0000
   86 O3     4f1-      -0.0001    0.0001    0.0001   -0.0031   -0.0027    0.0007   -0.0016   -0.0027   -0.0004    0.0016
   87 O3     4f0        0.0000   -0.0000    0.0000    0.0000    0.0000   -0.0000    0.0000    0.0000    0.0000    0.0000
   88 O3     4f1+       0.0000   -0.0001   -0.0001    0.0017    0.0017   -0.0006    0.0006    0.0015    0.0016    0.0005
   89 O3     4f2+       0.0000   -0.0000    0.0000    0.0000    0.0000   -0.0000    0.0000    0.0000    0.0000    0.0000
   90 O3     4f3+       0.0000   -0.0002   -0.0002    0.0056    0.0048   -0.0026    0.0031    0.0064    0.0023   -0.0031
 
 
      Orbital               11        12        13        14        15        16        17        18        19        20
      Energy            0.0000    0.0000    0.0000    0.1765    0.1862    0.2285    0.2832    0.3507    0.3802    0.3945
      Occ. No.          1.9929    1.6138    0.3933    0.0000    0.0000    0.0000    0.0000    0.0000    0.0000    0.0000
 
    1 O1     1s         0.0000    0.0000    0.0000   -0.1918   -0.1416    0.0000    0.0103   -0.0135    0.0000    0.0805
    2 O1     2s         0.0000    0.0000    0.0000   -1.4186   -1.0376    0.0000    0.1558   -0.0075    0.0000    0.4427
    3 O1     3s         0.0000    0.0000    0.0000   -0.8262   -0.5887    0.0000   -0.0191   -0.0085    0.0000    0.6388
    4 O1     4s         0.0000    0.0000    0.0000   -0.1867   -0.1227    0.0000   -0.0148    0.0033    0.0000    0.1885
    5 O1     2px       -0.0000   -0.0000    0.0000    0.4644    0.2580    0.0000   -0.1994   -0.2488   -0.0000    0.1398
    6 O1     3px       -0.0000   -0.0000   -0.0000    0.4351    0.3784    0.0000    0.2289   -0.7942    0.0000    0.4878
    7 O1     4px        0.0000    0.0000    0.0000    0.0437    0.0867    0.0000    0.1401   -0.3107    0.0000    0.1978
    8 O1     2py        0.0000    0.0000   -0.0000    0.5166    0.7818   -0.0000   -0.4554   -0.2566   -0.0000   -0.0592
    9 O1     3py       -0.0000   -0.0000   -0.0000    0.7042    0.6699   -0.0000   -0.4821   -0.1815   -0.0000   -0.4382
   10 O1     4py        0.0000    0.0000    0.0000    0.1198    0.0649   -0.0000   -0.1651   -0.0337   -0.0000   -0.0707
   11 O1     2pz       -0.2587   -0.7083    0.6853   -0.0000    0.0000   -0.0013    0.0000   -0.0000   -0.2053    0.0000
   12 O1     3pz        0.0244    0.0025   -0.0559   -0.0000    0.0000    0.3968   -0.0000   -0.0000   -0.9418    0.0000
   13 O1     4pz        0.0049    0.0089   -0.0023   -0.0000    0.0000    0.2050   -0.0000   -0.0000   -0.3757    0.0000
   14 O1     3d2-       0.0000    0.0000    0.0000   -0.0807   -0.0552   -0.0000   -0.0011    0.0046    0.0000    0.0126
   15 O1     4d2-       0.0000    0.0000    0.0000   -0.0512   -0.0376    0.0000    0.0042    0.0179    0.0000    0.0018
   16 O1     3d1-       0.0260    0.0157    0.0091   -0.0000    0.0000    0.0101    0.0000    0.0000    0.0037   -0.0000
   17 O1     4d1-       0.0038    0.0029    0.0044    0.0000   -0.0000    0.0024    0.0000    0.0000    0.0103   -0.0000
   18 O1     3d0       -0.0000   -0.0000   -0.0000    0.0547    0.0466   -0.0000    0.0103   -0.0100   -0.0000   -0.0282
   19 O1     4d0       -0.0000   -0.0000   -0.0000    0.0362    0.0304   -0.0000    0.0025   -0.0131   -0.0000   -0.0100
   20 O1     3d1+       0.0148    0.0089    0.0030    0.0000    0.0000    0.0043   -0.0000   -0.0000    0.0164   -0.0000
   21 O1     4d1+       0.0024    0.0014    0.0008    0.0000    0.0000   -0.0007   -0.0000    0.0000    0.0137   -0.0000
   22 O1     3d2+      -0.0000   -0.0000   -0.0000    0.0415    0.0500   -0.0000    0.0275   -0.0007   -0.0000   -0.0949
   23 O1     4d2+      -0.0000   -0.0000   -0.0000    0.0247    0.0347   -0.0000    0.0061   -0.0012   -0.0000   -0.0547
   24 O1     4f3-       0.0000    0.0000    0.0000   -0.0007   -0.0001    0.0000    0.0030   -0.0052    0.0000    0.0118
   25 O1     4f2-      -0.0056   -0.0039    0.0006   -0.0000    0.0000    0.0028   -0.0000   -0.0000   -0.0058    0.0000
   26 O1     4f1-       0.0000    0.0000   -0.0000   -0.0063   -0.0042    0.0000    0.0008    0.0053    0.0000    0.0041
   27 O1     4f0        0.0037   -0.0011    0.0096   -0.0000    0.0000   -0.0019   -0.0000    0.0000    0.0065   -0.0000
   28 O1     4f1+       0.0000   -0.0000    0.0000   -0.0023   -0.0032   -0.0000   -0.0002    0.0055    0.0000    0.0001
   29 O1     4f2+       0.0035    0.0023   -0.0004   -0.0000    0.0000   -0.0010   -0.0000    0.0000    0.0023   -0.0000
   30 O1     4f3+       0.0000    0.0000    0.0000   -0.0093   -0.0051    0.0000    0.0040    0.0090    0.0000    0.0040
   31 O2     1s        -0.0000   -0.0000   -0.0000   -0.0000    0.3197   -0.0000   -0.0887    0.0000   -0.0000   -0.1280
[...]
--- Start Module: motra at Tue Dec 31 22:42:04 2024 ---
 
()()()()()()()()()()()()()()()()()()()()()()()()()()()()()()()()()()()()()()()()()()()()()()()()()()

                                               &MOTRA

                                   only a single process is used
                       available to each process: 2.0 GB of memory, 1 thread?
()()()()()()()()()()()()()()()()()()()()()()()()()()()()()()()()()()()()()()()()()()()()()()()()()()
 
 
      *** WARNING: Default frozen orbitals is overwritten by user input.
      *** Default values:   3
 
      Header of the integral files:
      
       Integrals generated by seward 4.2.0  , Tue Dec 31 22:41:59 2024
 
 
      Header of MO coefficients source file:
      * RASSCF average (pseudo-natural) orbitals                                      
 
 
      Cartesian coordinates in Angstrom:
      -----------------------------------------------------
      No.  Label        X            Y            Z        
      -----------------------------------------------------
       1   O1         0.65103500   1.09974400   0.00000000
       2   O2         0.00000000   0.00000000   0.00000000
       3   O3         0.65103500  -1.09974400   0.00000000
      -----------------------------------------------------
      Nuclear repulsion energy =   68.39837316
 
      Orbital specifications:
      -----------------------
 
      Symmetry species:              1
      Number of basis functions:    90
      Frozen orbitals:               0
      Deleted orbitals:              0
      Number of orbitals used:      90

       SYMMETRY  BASIS FUNCTIONS       ORBITALS      INTEGRALS   CPU(SEC)  I/O(SEC)
 
        1 1 1 1   90  90  90  90    90  90  90  90     8386560       0.00      0.00

       TOTAL CPU TIME(SEC)    4.56TOTAL I/O TIME(SEC)   11.05
 
--- Stop Module: motra at Tue Dec 31 22:42:15 2024 /rc=_RC_ALL_IS_WELL_ ---
*** files: xmldump
    saved to directory /home/grierjones/DDCASPT2/ozone/ANO-RCC-VTZP/ozone_118.75
--- Module motra spent 11 seconds ---

>>> COPY /tmp/ozone_118.75/GMJ_one_int_indx.csv /home/grierjones/DDCASPT2/ozone/ANO-RCC-VTZP/ozone_118.75/ozone_118.75.GMJ_one_int_indx.csv

>>> COPY /tmp/ozone_118.75/GMJ_one_int.csv /home/grierjones/DDCASPT2/ozone/ANO-RCC-VTZP/ozone_118.75/ozone_118.75.GMJ_one_int.csv

>>> COPY /tmp/ozone_118.75/GMJ_two_int_indx.csv /home/grierjones/DDCASPT2/ozone/ANO-RCC-VTZP/ozone_118.75/ozone_118.75.GMJ_two_int_indx.csv

>>> COPY /tmp/ozone_118.75/GMJ_two_int.csv /home/grierjones/DDCASPT2/ozone/ANO-RCC-VTZP/ozone_118.75/ozone_118.75.GMJ_two_int.csv

*** symbolic link created: INPORB -> ozone_118.75.RasOrb
--- Start Module: caspt2 at Tue Dec 31 22:42:15 2024 ---
 
()()()()()()()()()()()()()()()()()()()()()()()()()()()()()()()()()()()()()()()()()()()()()()()()()()

                                              &CASPT2

                                   only a single process is used
                       available to each process: 2.0 GB of memory, 1 thread?
()()()()()()()()()()()()()()()()()()()()()()()()()()()()()()()()()()()()()()()()()()()()()()()()()()
 
 Cholesky algorithm in CASPT2 =    1
 
 ###############################################################################
 ###############################################################################
 ###                                                                         ###
 ###                                                                         ###
 ###    User changed nr of frozen orbitals.                                  ###
 ###                                                                         ###
 ###                                                                         ###
 ###############################################################################
 ###############################################################################
 
++    Wave function specifications:
      -----------------------------
 
      Number of closed shell electrons          20
      Number of electrons in active shells       4
      Max number of holes in RAS1 space          0
      Max number of electrons in RAS3 space      0
      Number of inactive orbitals               10
      Number of active orbitals                  3
      Number of secondary orbitals              77
      Spin quantum number                      0.0
      State symmetry                             1
      Number of CSFs                             6
      Number of root(s) available                1
      Root passed to geometry opt.               1
      A file JOBMIX will be created.
      This is a CASSCF or RASSCF reference function
--
 
++    Orbital specifications:
      -----------------------
 
      Symmetry species                           1
                                                 a
      Frozen orbitals                            0
      Inactive orbitals                         10
      Active orbitals                            3
      Secondary orbitals                        77
      Deleted orbitals                           0
      Number of basis functions                 90
--
 
      Type of Fock operator: STANDARD
      Type of 0-order Hamiltonian: STANDARD WITH DEFAULT IPEA
        "IP-EA" denominator shift =      0.25
      The input orbitals and the CI vector will be transformed.
 
--------------------------------------------------------------------------------
 Estimated memory requirements:
  POLY3 :                   250202
  RHS:                      446386
  SIGMA :                   610360
  PRPCTL:                        0
 Available workspace:    230385072
 
++ CASPT2 computation for group   1
 
********************************************************************************
 Multi-State initialization phase begins for group   1
--------------------------------------------------------------------------------
********************************************************************************
 Compute H0 matrices for state    1
--------------------------------------------------------------------------------
--------------------------------------------------------------------------------
 H0 matrices have been computed.
 
********************************************************************************
  CASPT2 EQUATION SOLUTION
--------------------------------------------------------------------------------
 
  Total nr of CASPT2 parameters:
   Before reduction:      541275
   After  reduction:      532232
 
 The contributions to the second order correlation energy in atomic units.
-----------------------------------------------------------------------------------------------------------------------------
  IT.      VJTU        VJTI        ATVX        AIVX        VJAI        BVAT        BJAT        BJAI        TOTAL       RNORM  
-----------------------------------------------------------------------------------------------------------------------------
   1    -0.000000   -0.001140   -0.012294   -0.091455   -0.019071   -0.023420   -0.175639   -0.365861   -0.688881    0.002788
   2    -0.000000   -0.001158   -0.012348   -0.091831   -0.019095   -0.023428   -0.175705   -0.365867   -0.689432    0.000233
   3    -0.000000   -0.001159   -0.012349   -0.091837   -0.019095   -0.023428   -0.175706   -0.365867   -0.689440    0.000027
   4    -0.000000   -0.001159   -0.012348   -0.091835   -0.019095   -0.023428   -0.175706   -0.365867   -0.689437    0.000004
-------------------------------------------------------------------------------------------------------------------
 
  FINAL CASPT2 RESULT:
 
  Correlation energy /Case, /Symm, and sums:
 VJTU     -0.00000000 -0.00000000
 VJTIP    -0.00115879 -0.00115879
 VJTIM     0.00000000  0.00000000
 ATVX     -0.01234837 -0.01234837
 AIVX     -0.09183509 -0.09183509
 VJAIP    -0.01345217 -0.01345217
 VJAIM    -0.00564278 -0.00564278
 BVATP    -0.02192225 -0.02192225
 BVATM    -0.00150551 -0.00150551
 BJATP    -0.07201303 -0.07201303
 BJATM    -0.10369260 -0.10369260
 BJAIP    -0.25192062 -0.25192062
 BJAIM    -0.11394612 -0.11394612
 Summed:  -0.68943734 -0.68943734
 
      Reference energy:        -224.6098919088
      E2 (Non-variational):      -0.6894373377
      E2 (Variational):          -0.6894373747
      Total energy:            -225.2993292835
      Residual norm:              0.0000003878
      Reference weight:           0.85103
 
      Contributions to the CASPT2 correlation energy
      Active & Virtual Only:         -0.0357761312
      One Inactive Excited:          -0.2675407233
      Two Inactive Excited:          -0.3861204832
 
 
++ Denominators, etc.
----------------------------------------------------------------------------------------------------
 Report on small energy denominators, large coefficients, and large energy contributions.
CASE  SYMM ACTIVE-MIX  NON-ACTIVE INDICES          DENOMINATOR     RHS VALUE       COEFFICIENT     CONTRIBUTION
ATVX     1  Mu1.0005  Se1.019                       1.47378963      0.05532404     -0.03680928     -0.00203644
ATVX     1  Mu1.0005  Se1.043                       3.01340594     -0.07944336      0.02587154     -0.00205532
AIVX     1  Mu1.0002  In1.009 Se1.015               1.02087233      0.02709323     -0.02574726     -0.00069758
AIVX     1  Mu1.0004  In1.007 Se1.017               1.67407683      0.04399465     -0.02695709     -0.00118597
AIVX     1  Mu1.0002  In1.008 Se1.017               1.33143145     -0.04630816      0.03406512     -0.00157749
AIVX     1  Mu1.0004  In1.007 Se1.020               1.78545316     -0.06090886      0.03479321     -0.00211921
AIVX     1  Mu1.0002  In1.009 Se1.020               1.22918542      0.04829402     -0.03809660     -0.00183984
AIVX     1  Mu1.0003  In1.009 Se1.020               1.31277846      0.03420774     -0.02548642     -0.00087183
AIVX     1  Mu1.0002  In1.008 Se1.021               1.46931020     -0.05712133      0.03776658     -0.00215728
AIVX     1  Mu1.0002  In1.009 Se1.021               1.25568785     -0.03760656      0.02897787     -0.00108976
AIVX     1  Mu1.0004  In1.008 Se1.022               1.85404220     -0.10705951      0.05872404     -0.00628697
AIVX     1  Mu1.0006  In1.008 Se1.022               2.02306822      0.06582573     -0.03295429     -0.00216924
AIVX     1  Mu1.0002  In1.010 Se1.022               1.27803286     -0.06437282      0.04925638     -0.00317077
AIVX     1  Mu1.0003  In1.010 Se1.022               1.36162590     -0.04211731      0.03024726     -0.00127393
AIVX     1  Mu1.0004  In1.010 Se1.032               2.46507081      0.06164803     -0.02541594     -0.00156684
BJAIP    1  Se1.022 In1.008 Se1.022 In1.008         2.51898185      0.09463366     -0.03756821     -0.00355522
BJAIP    1  Se1.017 In1.008 Se1.022 In1.010         2.07951905      0.05215324     -0.02507947     -0.00130798
BJAIP    1  Se1.022 In1.010 Se1.022 In1.010         2.02612047      0.05106052     -0.02520113     -0.00128678
--
 
   (Skipping property calculation,
    use PROP keyword to activate)
--
 
  Total CASPT2 energies:
::    CASPT2 Root  1     Total energy:   -225.29932928
 
  A NEW JOBIPH FILE NAMED 'JOBMIX' IS PREPARED.
********************************************************************************
--- Stop Module: caspt2 at Tue Dec 31 22:42:16 2024 /rc=_RC_ALL_IS_WELL_ ---
*** files: xmldump
    saved to directory /home/grierjones/DDCASPT2/ozone/ANO-RCC-VTZP/ozone_118.75
--- Module caspt2 spent 1 second ---

>>> EXPORT i = B

>>> EXPORT j = P

>>> IF (-FILE GMJ_e2_${i}_${j}.csv)

>>> COPY /tmp/ozone_118.75/GMJ_RHS_B_P.csv /home/grierjones/DDCASPT2/ozone/ANO-RCC-VTZP/ozone_118.75/GMJ_RHS_B_P.csv

>>> COPY /tmp/ozone_118.75/GMJ_IVECW_B_P.csv /home/grierjones/DDCASPT2/ozone/ANO-RCC-VTZP/ozone_118.75/GMJ_IVECW_B_P.csv

>>> COPY /tmp/ozone_118.75/GMJ_IVECX_B_P.csv /home/grierjones/DDCASPT2/ozone/ANO-RCC-VTZP/ozone_118.75/GMJ_IVECX_B_P.csv

>>> COPY /tmp/ozone_118.75/GMJ_IVECC2_B_P.csv /home/grierjones/DDCASPT2/ozone/ANO-RCC-VTZP/ozone_118.75/GMJ_IVECC2_B_P.csv

>>> COPY /tmp/ozone_118.75/GMJ_e2_B_P.csv /home/grierjones/DDCASPT2/ozone/ANO-RCC-VTZP/ozone_118.75/GMJ_e2_B_P.csv

>>> END FOREACH

>>> EXPORT j = M

>>> IF (-FILE GMJ_e2_${i}_${j}.csv)
(Skipped)

>>> END FOREACH

>>> END FOREACH

>>> EXPORT i = E

>>> EXPORT j = P

>>> IF (-FILE GMJ_e2_${i}_${j}.csv)

>>> COPY /tmp/ozone_118.75/GMJ_RHS_E_P.csv /home/grierjones/DDCASPT2/ozone/ANO-RCC-VTZP/ozone_118.75/GMJ_RHS_E_P.csv

>>> COPY /tmp/ozone_118.75/GMJ_IVECW_E_P.csv /home/grierjones/DDCASPT2/ozone/ANO-RCC-VTZP/ozone_118.75/GMJ_IVECW_E_P.csv

>>> COPY /tmp/ozone_118.75/GMJ_IVECX_E_P.csv /home/grierjones/DDCASPT2/ozone/ANO-RCC-VTZP/ozone_118.75/GMJ_IVECX_E_P.csv

>>> COPY /tmp/ozone_118.75/GMJ_IVECC2_E_P.csv /home/grierjones/DDCASPT2/ozone/ANO-RCC-VTZP/ozone_118.75/GMJ_IVECC2_E_P.csv

>>> COPY /tmp/ozone_118.75/GMJ_e2_E_P.csv /home/grierjones/DDCASPT2/ozone/ANO-RCC-VTZP/ozone_118.75/GMJ_e2_E_P.csv

>>> END FOREACH

>>> EXPORT j = M

>>> IF (-FILE GMJ_e2_${i}_${j}.csv)

>>> COPY /tmp/ozone_118.75/GMJ_RHS_E_M.csv /home/grierjones/DDCASPT2/ozone/ANO-RCC-VTZP/ozone_118.75/GMJ_RHS_E_M.csv

>>> COPY /tmp/ozone_118.75/GMJ_IVECW_E_M.csv /home/grierjones/DDCASPT2/ozone/ANO-RCC-VTZP/ozone_118.75/GMJ_IVECW_E_M.csv

>>> COPY /tmp/ozone_118.75/GMJ_IVECX_E_M.csv /home/grierjones/DDCASPT2/ozone/ANO-RCC-VTZP/ozone_118.75/GMJ_IVECX_E_M.csv

>>> COPY /tmp/ozone_118.75/GMJ_IVECC2_E_M.csv /home/grierjones/DDCASPT2/ozone/ANO-RCC-VTZP/ozone_118.75/GMJ_IVECC2_E_M.csv

>>> COPY /tmp/ozone_118.75/GMJ_e2_E_M.csv /home/grierjones/DDCASPT2/ozone/ANO-RCC-VTZP/ozone_118.75/GMJ_e2_E_M.csv

>>> END FOREACH

>>> END FOREACH

>>> EXPORT i = F

>>> EXPORT j = P

>>> IF (-FILE GMJ_e2_${i}_${j}.csv)

>>> COPY /tmp/ozone_118.75/GMJ_RHS_F_P.csv /home/grierjones/DDCASPT2/ozone/ANO-RCC-VTZP/ozone_118.75/GMJ_RHS_F_P.csv

>>> COPY /tmp/ozone_118.75/GMJ_IVECW_F_P.csv /home/grierjones/DDCASPT2/ozone/ANO-RCC-VTZP/ozone_118.75/GMJ_IVECW_F_P.csv

>>> COPY /tmp/ozone_118.75/GMJ_IVECX_F_P.csv /home/grierjones/DDCASPT2/ozone/ANO-RCC-VTZP/ozone_118.75/GMJ_IVECX_F_P.csv

>>> COPY /tmp/ozone_118.75/GMJ_IVECC2_F_P.csv /home/grierjones/DDCASPT2/ozone/ANO-RCC-VTZP/ozone_118.75/GMJ_IVECC2_F_P.csv

>>> COPY /tmp/ozone_118.75/GMJ_e2_F_P.csv /home/grierjones/DDCASPT2/ozone/ANO-RCC-VTZP/ozone_118.75/GMJ_e2_F_P.csv

>>> END FOREACH

>>> EXPORT j = M

>>> IF (-FILE GMJ_e2_${i}_${j}.csv)

>>> COPY /tmp/ozone_118.75/GMJ_RHS_F_M.csv /home/grierjones/DDCASPT2/ozone/ANO-RCC-VTZP/ozone_118.75/GMJ_RHS_F_M.csv

>>> COPY /tmp/ozone_118.75/GMJ_IVECW_F_M.csv /home/grierjones/DDCASPT2/ozone/ANO-RCC-VTZP/ozone_118.75/GMJ_IVECW_F_M.csv

>>> COPY /tmp/ozone_118.75/GMJ_IVECX_F_M.csv /home/grierjones/DDCASPT2/ozone/ANO-RCC-VTZP/ozone_118.75/GMJ_IVECX_F_M.csv

>>> COPY /tmp/ozone_118.75/GMJ_IVECC2_F_M.csv /home/grierjones/DDCASPT2/ozone/ANO-RCC-VTZP/ozone_118.75/GMJ_IVECC2_F_M.csv

>>> COPY /tmp/ozone_118.75/GMJ_e2_F_M.csv /home/grierjones/DDCASPT2/ozone/ANO-RCC-VTZP/ozone_118.75/GMJ_e2_F_M.csv

>>> END FOREACH

>>> END FOREACH

>>> EXPORT i = G

>>> EXPORT j = P

>>> IF (-FILE GMJ_e2_${i}_${j}.csv)

>>> COPY /tmp/ozone_118.75/GMJ_RHS_G_P.csv /home/grierjones/DDCASPT2/ozone/ANO-RCC-VTZP/ozone_118.75/GMJ_RHS_G_P.csv

>>> COPY /tmp/ozone_118.75/GMJ_IVECW_G_P.csv /home/grierjones/DDCASPT2/ozone/ANO-RCC-VTZP/ozone_118.75/GMJ_IVECW_G_P.csv

>>> COPY /tmp/ozone_118.75/GMJ_IVECX_G_P.csv /home/grierjones/DDCASPT2/ozone/ANO-RCC-VTZP/ozone_118.75/GMJ_IVECX_G_P.csv

>>> COPY /tmp/ozone_118.75/GMJ_IVECC2_G_P.csv /home/grierjones/DDCASPT2/ozone/ANO-RCC-VTZP/ozone_118.75/GMJ_IVECC2_G_P.csv

>>> COPY /tmp/ozone_118.75/GMJ_e2_G_P.csv /home/grierjones/DDCASPT2/ozone/ANO-RCC-VTZP/ozone_118.75/GMJ_e2_G_P.csv

>>> END FOREACH

>>> EXPORT j = M

>>> IF (-FILE GMJ_e2_${i}_${j}.csv)

>>> COPY /tmp/ozone_118.75/GMJ_RHS_G_M.csv /home/grierjones/DDCASPT2/ozone/ANO-RCC-VTZP/ozone_118.75/GMJ_RHS_G_M.csv

>>> COPY /tmp/ozone_118.75/GMJ_IVECW_G_M.csv /home/grierjones/DDCASPT2/ozone/ANO-RCC-VTZP/ozone_118.75/GMJ_IVECW_G_M.csv

>>> COPY /tmp/ozone_118.75/GMJ_IVECX_G_M.csv /home/grierjones/DDCASPT2/ozone/ANO-RCC-VTZP/ozone_118.75/GMJ_IVECX_G_M.csv

>>> COPY /tmp/ozone_118.75/GMJ_IVECC2_G_M.csv /home/grierjones/DDCASPT2/ozone/ANO-RCC-VTZP/ozone_118.75/GMJ_IVECC2_G_M.csv

>>> COPY /tmp/ozone_118.75/GMJ_e2_G_M.csv /home/grierjones/DDCASPT2/ozone/ANO-RCC-VTZP/ozone_118.75/GMJ_e2_G_M.csv

>>> END FOREACH

>>> END FOREACH

>>> EXPORT i = H

>>> EXPORT j = P

>>> IF (-FILE GMJ_e2_${i}_${j}.csv)

>>> COPY /tmp/ozone_118.75/GMJ_RHS_H_P.csv /home/grierjones/DDCASPT2/ozone/ANO-RCC-VTZP/ozone_118.75/GMJ_RHS_H_P.csv

>>> COPY /tmp/ozone_118.75/GMJ_IVECW_H_P.csv /home/grierjones/DDCASPT2/ozone/ANO-RCC-VTZP/ozone_118.75/GMJ_IVECW_H_P.csv

>>> COPY /tmp/ozone_118.75/GMJ_IVECX_H_P.csv /home/grierjones/DDCASPT2/ozone/ANO-RCC-VTZP/ozone_118.75/GMJ_IVECX_H_P.csv

>>> COPY /tmp/ozone_118.75/GMJ_IVECC2_H_P.csv /home/grierjones/DDCASPT2/ozone/ANO-RCC-VTZP/ozone_118.75/GMJ_IVECC2_H_P.csv

>>> COPY /tmp/ozone_118.75/GMJ_e2_H_P.csv /home/grierjones/DDCASPT2/ozone/ANO-RCC-VTZP/ozone_118.75/GMJ_e2_H_P.csv

>>> END FOREACH

>>> EXPORT j = M

>>> IF (-FILE GMJ_e2_${i}_${j}.csv)

>>> COPY /tmp/ozone_118.75/GMJ_RHS_H_M.csv /home/grierjones/DDCASPT2/ozone/ANO-RCC-VTZP/ozone_118.75/GMJ_RHS_H_M.csv

>>> COPY /tmp/ozone_118.75/GMJ_IVECW_H_M.csv /home/grierjones/DDCASPT2/ozone/ANO-RCC-VTZP/ozone_118.75/GMJ_IVECW_H_M.csv

>>> COPY /tmp/ozone_118.75/GMJ_IVECX_H_M.csv /home/grierjones/DDCASPT2/ozone/ANO-RCC-VTZP/ozone_118.75/GMJ_IVECX_H_M.csv

>>> COPY /tmp/ozone_118.75/GMJ_IVECC2_H_M.csv /home/grierjones/DDCASPT2/ozone/ANO-RCC-VTZP/ozone_118.75/GMJ_IVECC2_H_M.csv

>>> COPY /tmp/ozone_118.75/GMJ_e2_H_M.csv /home/grierjones/DDCASPT2/ozone/ANO-RCC-VTZP/ozone_118.75/GMJ_e2_H_M.csv

>>> END FOREACH

>>> END FOREACH

>>> EXPORT i = A

>>> IF (-FILE GMJ_e2_$i.csv)

>>> COPY /tmp/ozone_118.75/GMJ_RHS_A.csv /home/grierjones/DDCASPT2/ozone/ANO-RCC-VTZP/ozone_118.75/GMJ_RHS_A.csv

>>> COPY /tmp/ozone_118.75/GMJ_IVECW_A.csv /home/grierjones/DDCASPT2/ozone/ANO-RCC-VTZP/ozone_118.75/GMJ_IVECW_A.csv

>>> COPY /tmp/ozone_118.75/GMJ_IVECX_A.csv /home/grierjones/DDCASPT2/ozone/ANO-RCC-VTZP/ozone_118.75/GMJ_IVECX_A.csv

>>> COPY /tmp/ozone_118.75/GMJ_IVECC2_A.csv /home/grierjones/DDCASPT2/ozone/ANO-RCC-VTZP/ozone_118.75/GMJ_IVECC2_A.csv

>>> COPY /tmp/ozone_118.75/GMJ_e2_A.csv /home/grierjones/DDCASPT2/ozone/ANO-RCC-VTZP/ozone_118.75/GMJ_e2_A.csv

>>> END FOREACH

>>> EXPORT i = C

>>> IF (-FILE GMJ_e2_$i.csv)

>>> COPY /tmp/ozone_118.75/GMJ_RHS_C.csv /home/grierjones/DDCASPT2/ozone/ANO-RCC-VTZP/ozone_118.75/GMJ_RHS_C.csv

>>> COPY /tmp/ozone_118.75/GMJ_IVECW_C.csv /home/grierjones/DDCASPT2/ozone/ANO-RCC-VTZP/ozone_118.75/GMJ_IVECW_C.csv

>>> COPY /tmp/ozone_118.75/GMJ_IVECX_C.csv /home/grierjones/DDCASPT2/ozone/ANO-RCC-VTZP/ozone_118.75/GMJ_IVECX_C.csv

>>> COPY /tmp/ozone_118.75/GMJ_IVECC2_C.csv /home/grierjones/DDCASPT2/ozone/ANO-RCC-VTZP/ozone_118.75/GMJ_IVECC2_C.csv

>>> COPY /tmp/ozone_118.75/GMJ_e2_C.csv /home/grierjones/DDCASPT2/ozone/ANO-RCC-VTZP/ozone_118.75/GMJ_e2_C.csv

>>> END FOREACH

>>> EXPORT i = D

>>> IF (-FILE GMJ_e2_$i.csv)

>>> COPY /tmp/ozone_118.75/GMJ_RHS_D.csv /home/grierjones/DDCASPT2/ozone/ANO-RCC-VTZP/ozone_118.75/GMJ_RHS_D.csv

>>> COPY /tmp/ozone_118.75/GMJ_IVECW_D.csv /home/grierjones/DDCASPT2/ozone/ANO-RCC-VTZP/ozone_118.75/GMJ_IVECW_D.csv

>>> COPY /tmp/ozone_118.75/GMJ_IVECX_D.csv /home/grierjones/DDCASPT2/ozone/ANO-RCC-VTZP/ozone_118.75/GMJ_IVECX_D.csv

>>> COPY /tmp/ozone_118.75/GMJ_IVECC2_D.csv /home/grierjones/DDCASPT2/ozone/ANO-RCC-VTZP/ozone_118.75/GMJ_IVECC2_D.csv

>>> COPY /tmp/ozone_118.75/GMJ_e2_D.csv /home/grierjones/DDCASPT2/ozone/ANO-RCC-VTZP/ozone_118.75/GMJ_e2_D.csv

>>> END FOREACH

.########################.
.# Non-zero return code #.
.########################.

    Timing: Wall=16.91 User=9.22 System=7.68
********************************************
*** WorkDir at /tmp/ozone_118.75 cleaned ***
********************************************
