   This run of MOLCAS is using the pymolcas driver

                             OPE
                             OPE          NMOL  CASOP  ENMOLC A   SO
                 OPE        NMOLC        AS  OP EN  MO LC     AS  OP
                OPENM       OL CA        SO  PE NM  OL CA     SOP EN
                OP EN      MO   LC       AS  OP ENMOL  CASO   PENMOL
                OP  EN     MO   LC       AS  OP EN     MO     LC ASO
               OP   E  NMOL  C  AS       OP  EN MO     LC     AS  OP
               OP  E   NMO   LC AS        OPEN  MO     LCASOP EN   M
               O  PEN   MO  LCA  SO
            OPE   NMO   L   CAS    OP
        OPENMOL  CASOP     ENMOL   CASOPE
     OPENMOLCA   SOPENMOLCASOPEN   MOLCASOPE
    OPENMOLCAS   OP           EN   MOL    CAS
    OPENMOLCAS       OP  ENM        O     LCA
    OPENMOLCAS    OPEN  MOLCASO     P  E  NMO
    OPENMOLCAS     OP               E  N  MOL
    OPENMOLCA   SO           PENM   O  L  CAS    OPEN    MO    LCAS
    OPENMOLCA   SOP           ENM   O  L  CAS   OP  EN  MOLC  AS   O
    OPENMOLCA   SOPE           NM      O  LCA   S      OP  EN MO
    OPENMOLC                AS         O  PEN   M      OL  CA  SOPE
    OPENMO        LCASOPE  NMOL        C  ASO   P      ENMOLC     AS
    OPE     NMO      LCA  SO     P     E   NM   OL  CA SO  PE N   MO
          OPENMOLCA            SOPE   NMO        LCAS  O    P  ENMO
     OPENMOLCASOPENMOLCASOPENMOLCASOPENMOLCA
        OPENMOLCASOPENMOLCASOPENMOLCASOPE
            OPENMOLCASOPENMOLCASOPENM
               OPENMOLCASOPENMOLCA        version: 44d3b5344-dirty
                   OPENMOLCASO
                       OPE                tag:

 OpenMolcas is free software; you can redistribute it and/or modify it
 under the terms of the GNU Lesser General Public License version 2.1.
 OpenMolcas is distributed in the hope that it will be useful, but it
 is provided "as is" and without any express or implied warranties.
 For more details see the full text of the license in the file
 LICENSE or in <http://www.gnu.org/licenses/>.

                 Copyright (C) The OpenMolcas Authors
           For the author list and the recommended citation,
                   consult the file CONTRIBUTORS.md

           *************************************************
           * pymolcas version py2.28                       *
           *   build c4a6d18ded8cb6cad61d2372a9abd97c      *
           *   (after the EMIL interpreter by V. Veryazov) *
           *************************************************

configuration info
------------------
C Compiler ID: Intel
C flags: -std=gnu99
Fortran Compiler ID: Intel
Fortran flags: -fpp -i8 -r8 -heap-arrays
Definitions: _MOLCAS_;_I8_;_LINUX_
Parallel: OFF (GA=OFF)


   ----------------------------------------------------------------------------------------------------------
  |
  |              Project: H8_2.61
  |       Submitted from: /home/grierjones/DDCASPT2/hydrogen_comps/minimal_2e_2o/chains/even/H8_chain/H8_2.61
  |         Scratch area: /tmp/H8_2.61
  |      Save outputs to: /home/grierjones/DDCASPT2/hydrogen_comps/minimal_2e_2o/chains/even/H8_chain/H8_2.61
  |               Molcas: /home/grierjones/Test/build
  |
  | Scratch area is empty
  |
  |       MOLCAS_DRIVER = /usr/local/pymolcas
  | MOLCAS_KEEP_WORKDIR = NO
  |  MOLCAS_NEW_WORKDIR = YES
  |       MOLCAS_NPROCS = 1
  |       MOLCAS_SOURCE = /home/grierjones/Test/build
  |    MOLCAS_STRUCTURE = 0
  |
   ----------------------------------------------------------------------------------------------------------

++ ---------   Input file   ---------

&GATEWAY
coord=H8_2.61.xyz
Basis = ANO-RCC-VDZP
Group = nosymm
Expert
End of Input

&SEWARD
End of Input

&MOTRA
Frozen=0

>>> COPY $WorkDir/GMJ_one_int_indx.csv $CurrDir/H8_2.61.GMJ_one_int_indx.csv

>>> COPY $WorkDir/GMJ_one_int.csv $CurrDir/H8_2.61.GMJ_one_int.csv

>>> COPY $WorkDir/GMJ_two_int_indx.csv $CurrDir/H8_2.61.GMJ_two_int_indx.csv

>>> COPY $WorkDir/GMJ_two_int.csv $CurrDir/H8_2.61.GMJ_two_int.csv

&SCF

>>> COPY $WorkDir/H8_2.61.scf.h5 $CurrDir/

&RASSCF
Title= RASSCF
FileOrb
/home/grierjones/DDCASPT2/hydrogen_comps/minimal_2e_2o/chains/even/H8_chain/H8_2.59/H8_2.59.RasOrb

NACTEL
8 0 0
Inactive
0
RAS2
8
Symmetry
1
Spin
1
orblisting
all
ITERation
200 100
CIMX
200
SDAV
500

>>> COPY $WorkDir/H8_2.61.rasscf.h5 $CurrDir/

>>> COPY $WorkDir/GMJ_Fock_MO.csv $CurrDir/H8_2.61.GMJ_Fock_MO.csv

&CASPT2
Frozen
0
Imaginary Shift
0.0

>>> FOREACH i IN (B,E,F,G,H)

  >>> FOREACH j IN (P,M)

    >>> IF (-FILE GMJ_e2_${i}_${j}.csv)

      >>> COPY $WorkDir/GMJ_RHS_${i}_${j}.csv $CurrDir/GMJ_RHS_${i}_${j}.csv

      >>> COPY $WorkDir/GMJ_IVECW_${i}_${j}.csv $CurrDir/GMJ_IVECW_${i}_${j}.csv

      >>> COPY $WorkDir/GMJ_e2_${i}_${j}.csv $CurrDir/GMJ_e2_${i}_${j}.csv

    >>> END IF

  >>> END FOREACH

>>> END FOREACH

>>> FOREACH i IN (A,C,D)

  >>> IF (-FILE GMJ_e2_$i.csv)

    >>> COPY $WorkDir/GMJ_RHS_$i.csv $CurrDir/GMJ_RHS_$i.csv

    >>> COPY $WorkDir/GMJ_IVECW_$i.csv $CurrDir/GMJ_IVECW_$i.csv

    >>> COPY $WorkDir/GMJ_e2_$i.csv $CurrDir/GMJ_e2_$i.csv

  >>> END IF

>>> END FOREACH

-- ----------------------------------

--- Start Module: gateway at Tue Oct 29 12:51:54 2024 ---
 
()()()()()()()()()()()()()()()()()()()()()()()()()()()()()()()()()()()()()()()()()()()()()()()()()()

                                              &GATEWAY

                                   only a single process is used
                       available to each process: 2.0 GB of memory, 1 thread?
()()()()()()()()()()()()()()()()()()()()()()()()()()()()()()()()()()()()()()()()()()()()()()()()()()
 
 ###############################################################################
 ###############################################################################
 ###                                                                         ###
 ###                                                                         ###
 ###                                                                         ###
 ###    WARNING: EXPERT option is ON!                                        ###
 ###                                                                         ###
 ###                                                                         ###
 ###############################################################################
 ###############################################################################
 
++    Symmetry information:
      ---------------------
 
                    Character Table for C1 
 
                             E  
                    a        1  x, y, xy, Rz, z, xz, Ry, yz, Rx, I
--
 
 
++    Basis set information:
      ----------------------
 
 
      Basis set label: H.ANO-RCC...2S1P.
 
      Electronic valence basis set:
      ------------------
      Associated Effective Charge   1.000000 au
      Associated Actual Charge      1.000000 au
      Nuclear Model: Point charge
 
      Shell  nPrim  nBasis  Cartesian Spherical Contaminant
         s       8       2        X                  
         p       4       1        X                  
--
 
 
++    Molecular structure info:
      -------------------------
 
                    ************************************************ 
                    **** Cartesian Coordinates / Bohr, Angstrom **** 
                    ************************************************ 
 
     Center  Label                x              y              z                     x              y              z
        1      H1               0.000000       0.000000       0.000000              0.000000       0.000000       0.000000
        2      H2               0.000000       0.000000       4.936193              0.000000       0.000000       2.612121
        3      H3               0.000000       0.000000       9.872387              0.000000       0.000000       5.224242
        4      H4               0.000000       0.000000      14.808582              0.000000       0.000000       7.836364
        5      H5               0.000000       0.000000      19.744775              0.000000       0.000000      10.448485
        6      H6               0.000000       0.000000      24.680968              0.000000       0.000000      13.060606
        7      H7               0.000000       0.000000      29.617162              0.000000       0.000000      15.672727
        8      H8               0.000000       0.000000      34.553355              0.000000       0.000000      18.284848
 
                    *************************************** 
                    *    InterNuclear Distances / Bohr    * 
                    *************************************** 
 
               1 H1            2 H2            3 H3            4 H4            5 H5            6 H6    
    1 H1       0.000000
    2 H2       4.936193        0.000000
    3 H3       9.872387        4.936193        0.000000
    4 H4      14.808582        9.872388        4.936195        0.000000
    5 H5      19.744775       14.808582        9.872388        4.936193        0.000000
    6 H6      24.680968       19.744775       14.808582        9.872387        4.936193        0.000000
    7 H7      29.617162       24.680968       19.744775       14.808580        9.872387        4.936193
    8 H8      34.553355       29.617162       24.680968       19.744773       14.808580        9.872387
 
               7 H7            8 H8    
    7 H7       0.000000
    8 H8       4.936193        0.000000
 
                    ******************************************* 
                    *    InterNuclear Distances / Angstrom    * 
                    ******************************************* 
 
               1 H1            2 H2            3 H3            4 H4            5 H5            6 H6    
    1 H1       0.000000
    2 H2       2.612121        0.000000
    3 H3       5.224242        2.612121        0.000000
    4 H4       7.836364        5.224243        2.612122        0.000000
    5 H5      10.448485        7.836364        5.224243        2.612121        0.000000
    6 H6      13.060606       10.448485        7.836364        5.224242        2.612121        0.000000
    7 H7      15.672727       13.060606       10.448485        7.836363        5.224242        2.612121
    8 H8      18.284848       15.672727       13.060606       10.448484        7.836363        5.224242
 
               7 H7            8 H8    
    7 H7       0.000000
    8 H8       2.612121        0.000000
--
 
 
            Nuclear Potential Energy              2.78410011 au
 
 ###############################################################################
 ###############################################################################
 ###                                                                         ###
 ###                                                                         ###
 ###    There were warnings during the execution                             ###
 ###    Please, check the output with care!                                  ###
 ###                                                                         ###
 ###                                                                         ###
 ###############################################################################
 ###############################################################################
--- Stop Module: gateway at Tue Oct 29 12:51:55 2024 /rc=_RC_ALL_IS_WELL_ ---
*** files: xmldump
    saved to directory /home/grierjones/DDCASPT2/hydrogen_comps/minimal_2e_2o/chains/even/H8_chain/H8_2.61

--- Start Module: seward at Tue Oct 29 12:51:55 2024 ---
 
()()()()()()()()()()()()()()()()()()()()()()()()()()()()()()()()()()()()()()()()()()()()()()()()()()

                                              &SEWARD

                                   only a single process is used
                       available to each process: 2.0 GB of memory, 1 thread?
()()()()()()()()()()()()()()()()()()()()()()()()()()()()()()()()()()()()()()()()()()()()()()()()()()
 
 ###############################################################################
 ###############################################################################
 ###                                                                         ###
 ###                                                                         ###
 ###                                                                         ###
 ###    WARNING: EXPERT option is ON!                                        ###
 ###                                                                         ###
 ###                                                                         ###
 ###############################################################################
 ###############################################################################
               SEWARD will generate:
                  Multipole Moment integrals up to order  2
                  Kinetic Energy integrals
                  Nuclear Attraction integrals (point charge)
                  One-Electron Hamiltonian integrals
                  Velocity integrals
                  Relativistic Douglas-Kroll-Hess integrals:
                    - Parametrization         : EXP
                    - DKH order of Hamiltonian: 2
                    - DKH order of Properties : 0
                         - multipole moment operators
                         - electric potential operators
                         - contact operators
                  Atomic mean-field integrals
                  Two-Electron Repulsion integrals
 
                   Integrals are discarded if absolute value <: 0.10E-13
                   Integral cutoff threshold is set to       <: 0.10E-15
 
            Nuclear Potential Energy              2.78410011 au
 
 
      Basis set specifications :
      Symmetry species         a  
      Basis functions           40
 
 
  Input file to MOLDEN was generated!
 
 ###############################################################################
 ###############################################################################
 ###                                                                         ###
 ###                                                                         ###
 ###    There were warnings during the execution                             ###
 ###    Please, check the output with care!                                  ###
 ###                                                                         ###
 ###                                                                         ###
 ###############################################################################
 ###############################################################################
--- Stop Module: seward at Tue Oct 29 12:51:55 2024 /rc=_RC_ALL_IS_WELL_ ---
*** files: H8_2.61.GssOrb H8_2.61.guessorb.h5 H8_2.61.guessorb.molden xmldump
    saved to directory /home/grierjones/DDCASPT2/hydrogen_comps/minimal_2e_2o/chains/even/H8_chain/H8_2.61

*** symbolic link created: INPORB -> H8_2.61.GssOrb
--- Start Module: motra at Tue Oct 29 12:51:55 2024 ---
 
()()()()()()()()()()()()()()()()()()()()()()()()()()()()()()()()()()()()()()()()()()()()()()()()()()

                                               &MOTRA

                                   only a single process is used
                       available to each process: 2.0 GB of memory, 1 thread?
()()()()()()()()()()()()()()()()()()()()()()()()()()()()()()()()()()()()()()()()()()()()()()()()()()
 
 
      *** WARNING: Default frozen orbitals is overwritten by user input.
      *** Default values:   0
 
      Header of the integral files:
      
       Integrals generated by seward 4.2.0  , Tue Oct 29 12:51:55 2024
 
 
      Header of MO coefficients source file:
      *Guess orbitals                                                                 
 
 
      Cartesian coordinates in Angstrom:
      -----------------------------------------------------
      No.  Label        X            Y            Z        
      -----------------------------------------------------
       1   H1         0.00000000   0.00000000   0.00000000
       2   H2         0.00000000   0.00000000   2.61212100
       3   H3         0.00000000   0.00000000   5.22424200
       4   H4         0.00000000   0.00000000   7.83636400
       5   H5         0.00000000   0.00000000  10.44848500
       6   H6         0.00000000   0.00000000  13.06060600
       7   H7         0.00000000   0.00000000  15.67272700
       8   H8         0.00000000   0.00000000  18.28484800
      -----------------------------------------------------
      Nuclear repulsion energy =    2.78410011
 
      Orbital specifications:
      -----------------------
 
      Symmetry species:              1
      Number of basis functions:    40
      Frozen orbitals:               0
      Deleted orbitals:              0
      Number of orbitals used:      40

       SYMMETRY  BASIS FUNCTIONS       ORBITALS      INTEGRALS   CPU(SEC)  I/O(SEC)
 
        1 1 1 1   40  40  40  40    40  40  40  40      336610       0.00      0.00

       TOTAL CPU TIME(SEC)    4.47TOTAL I/O TIME(SEC)    6.62
 
--- Stop Module: motra at Tue Oct 29 12:52:02 2024 /rc=_RC_ALL_IS_WELL_ ---
*** files: xmldump
    saved to directory /home/grierjones/DDCASPT2/hydrogen_comps/minimal_2e_2o/chains/even/H8_chain/H8_2.61
--- Module motra spent 6 seconds ---

>>> COPY /tmp/H8_2.61/GMJ_one_int_indx.csv /home/grierjones/DDCASPT2/hydrogen_comps/minimal_2e_2o/chains/even/H8_chain/H8_2.61/H8_2.61.GMJ_one_int_indx.csv

>>> COPY /tmp/H8_2.61/GMJ_one_int.csv /home/grierjones/DDCASPT2/hydrogen_comps/minimal_2e_2o/chains/even/H8_chain/H8_2.61/H8_2.61.GMJ_one_int.csv

>>> COPY /tmp/H8_2.61/GMJ_two_int_indx.csv /home/grierjones/DDCASPT2/hydrogen_comps/minimal_2e_2o/chains/even/H8_chain/H8_2.61/H8_2.61.GMJ_two_int_indx.csv

>>> COPY /tmp/H8_2.61/GMJ_two_int.csv /home/grierjones/DDCASPT2/hydrogen_comps/minimal_2e_2o/chains/even/H8_chain/H8_2.61/H8_2.61.GMJ_two_int.csv

*** symbolic link created: INPORB -> H8_2.61.GssOrb
--- Start Module: scf at Tue Oct 29 12:52:02 2024 ---
 
()()()()()()()()()()()()()()()()()()()()()()()()()()()()()()()()()()()()()()()()()()()()()()()()()()

                                                &SCF

                                   only a single process is used
                       available to each process: 2.0 GB of memory, 1 thread?
()()()()()()()()()()()()()()()()()()()()()()()()()()()()()()()()()()()()()()()()()()()()()()()()()()
 
++    Input section:
      --------------
 
      Header of the integral files:
      
       Integrals generated by seward 4.2.0  , Tue Oct 29 12:51:55 2024
 
 
      Cartesian coordinates in Angstrom:
      -----------------------------------------------------
      No.  Label        X            Y            Z        
      -----------------------------------------------------
       1   H1         0.00000000   0.00000000   0.00000000
       2   H2         0.00000000   0.00000000   2.61212100
       3   H3         0.00000000   0.00000000   5.22424200
       4   H4         0.00000000   0.00000000   7.83636400
       5   H5         0.00000000   0.00000000  10.44848500
       6   H6         0.00000000   0.00000000  13.06060600
       7   H7         0.00000000   0.00000000  15.67272700
       8   H8         0.00000000   0.00000000  18.28484800
      -----------------------------------------------------
      Nuclear repulsion energy =    2.78410011
--
 
++    Orbital specifications:
      -----------------------
 
      Symmetry species               1
                                     a
      Frozen orbitals                0
      Occupied orbitals              4
      Secondary orbitals            36
      Deleted orbitals               0
      Total number of orbitals      40
      Number of basis functions     40
--
 
      Molecular charge                           0.000
 
++    Optimization specifications:
      ----------------------------
 
      SCF Algorithm: Conventional
      Minimized density differences are used
      Number of density matrices in core                5
      Maximum number of NDDO SCF iterations           400
      Maximum number of HF SCF iterations             400
      Threshold for SCF energy change            0.10E-08
      Threshold for density matrix               0.10E-03
      Threshold for Fock matrix                  0.15E-03
      Threshold for linear dependence            0.10E-08
      Threshold at which DIIS is turned on       0.15E+00
      Threshold at which QNR/C2DIIS is turned on 0.75E-01
      Threshold for Norm(delta) (QNR/C2DIIS)     0.20E-04
      DIIS extrapolation of the SCF procedure
      All orbitals punched on: SCFORB
--
 
      Input vectors read from INPORB
      Orbital file label: *Guess orbitals
 
 
++ Convergence information
                                   SCF        iterations: Energy and convergence statistics
 
Iter     Tot. SCF        One-elec.       Two-elec.     Energy      Max Dij or  Max Fij      DNorm      TNorm      AccCon     Time
         Energy          Energy          Energy        Change      Delta Norm                                                in Sec.
   1    -3.180986005    -9.675928598     3.710842484   0.00E+00    0.40E+00*   0.13E+00*    0.45E+01   0.74E+01   None         0.
   2    -3.419231346    -9.644534106     3.441202651  -0.24E+00*   0.15E+00*   0.25E-01*    0.14E+01   0.72E+01   EDIIS        0.
   3    -3.431298065    -9.583234553     3.367836379  -0.12E-01*   0.94E-01*   0.95E-02*    0.31E+00   0.71E+01   EDIIS        0.
   4    -3.433862501    -9.588716282     3.370753672  -0.26E-02*   0.60E-01*   0.64E-02*    0.17E+00   0.71E+01   c2DIIS       0.
   5    -3.434899601    -9.576218466     3.357218756  -0.10E-02*   0.25E-01*   0.38E-02*    0.40E-01   0.71E+01   QNRc2DIIS    0.
   6    -3.435220253    -9.583026914     3.363706552  -0.32E-03*   0.24E-01*   0.24E-02*    0.19E-01   0.71E+01   QNRc2DIIS    0.
   7    -3.435402318    -9.580628356     3.361125930  -0.18E-03*   0.88E-02*   0.78E-03*    0.80E-02   0.71E+01   QNRc2DIIS    0.
   8    -3.435414606    -9.578587639     3.359072924  -0.12E-04*   0.19E-02*   0.37E-03*    0.35E-02   0.71E+01   QNRc2DIIS    0.
   9    -3.435417249    -9.578998007     3.359480649  -0.26E-05*   0.19E-03*   0.19E-04     0.11E-02   0.71E+01   QNRc2DIIS    0.
  10    -3.435417262    -9.579002734     3.359485364  -0.12E-07*   0.46E-04*   0.52E-05     0.27E-03   0.71E+01   QNRc2DIIS    0.
  11    -3.435417263    -9.579001682     3.359484311  -0.84E-09    0.18E-04    0.12E-05     0.32E-04   0.71E+01   QNRc2DIIS    0.
 
       Convergence after 11 Macro Iterations
--
 
 *****************************************************************************************************************************
 *                                                                                                                           *
 *                                             SCF/KS-DFT Program, Final results                                             *
 *                                                                                                                           *
 *                                                                                                                           *
 *                                                                                                                           *
 *                                                       Final Results                                                       *
 *                                                                                                                           *
 *****************************************************************************************************************************
 
::    Total SCF energy                                 -3.4354172626
      One-electron energy                              -9.5790016820
      Two-electron energy                               3.3594843106
      Nuclear repulsion energy                          2.7841001088
      Kinetic energy (interpolated)                     2.6288177039
      Virial theorem                                    1.3068297804
      Total spin, S(S+1)                                0.0000000000
      Total spin, S                                     0.0000000000
      Max non-diagonal density matrix element           0.0000219290
      Max non-diagonal Fock matrix element              0.0000013290
 
 
      All orbitals with orbital energies smaller than  E(LUMO)+0.5 are printed
 
++    Molecular orbitals:
      -------------------
 
      Title: SCF orbitals

      Molecular orbitals for symmetry species 1: a  
 
          Orbital            1         2         3         4         5         6         7         8         9        10    
          Energy           -0.3832   -0.3696   -0.3493   -0.3279   -0.1522   -0.1224   -0.0915   -0.0686    0.3199    0.3323
          Occ. No.          2.0000    2.0000    2.0000    2.0000    0.0000    0.0000    0.0000    0.0000    0.0000    0.0000
 
        1 H1     1s         0.1721   -0.3207    0.3961   -0.3081    0.3556   -0.4927    0.4368   -0.2514   -0.1099    0.1674
        2 H1     2s         0.0326   -0.0626    0.0813   -0.0667    0.1094   -0.1598    0.1470   -0.0856    0.2117   -0.3722
        3 H1     2px        0.0000    0.0000    0.0000    0.0000   -0.0000   -0.0000    0.0000   -0.0000   -0.0000   -0.0000
        4 H1     2py        0.0000   -0.0000    0.0000    0.0000    0.0000    0.0000   -0.0000    0.0000   -0.0000    0.0000
        5 H1     2pz        0.0059   -0.0099    0.0103   -0.0066   -0.0028    0.0081   -0.0121    0.0096   -0.0079    0.0113
        6 H2     1s         0.2286   -0.3809    0.3915   -0.2443   -0.1984    0.4391   -0.5479    0.3834   -0.1783    0.2232
        7 H2     2s         0.0374   -0.0764    0.0990   -0.0750   -0.0554    0.1449   -0.1917    0.1346    0.2192   -0.3010
        8 H2     2px        0.0000    0.0000    0.0000   -0.0000    0.0000   -0.0000   -0.0000    0.0000   -0.0000    0.0000
        9 H2     2py        0.0000    0.0000    0.0000    0.0000    0.0000    0.0000    0.0000    0.0000   -0.0000    0.0000
       10 H2     2pz       -0.0011    0.0047   -0.0099    0.0102   -0.0141    0.0141   -0.0038   -0.0034    0.0023   -0.0027
       11 H3     1s         0.3555   -0.2886   -0.1558    0.4060   -0.4520    0.1476    0.4327   -0.5263   -0.1968    0.1589
       12 H3     2s         0.0671   -0.0491   -0.0498    0.1061   -0.1422    0.0437    0.1525   -0.1816    0.2695   -0.2432
       13 H3     2px       -0.0000   -0.0000   -0.0000    0.0000   -0.0000    0.0000    0.0000    0.0000    0.0000    0.0000
       14 H3     2py        0.0000    0.0000    0.0000    0.0000   -0.0000   -0.0000   -0.0000   -0.0000    0.0000   -0.0000
       15 H3     2pz        0.0061   -0.0010   -0.0089    0.0096    0.0113   -0.0159    0.0040    0.0083   -0.0030    0.0013
       16 H4     1s         0.3781   -0.2005   -0.2742    0.3771    0.3878   -0.3944   -0.2230    0.5761   -0.2162    0.0557
       17 H4     2s         0.0671   -0.0515   -0.0536    0.1034    0.1186   -0.1373   -0.0744    0.1999    0.2900   -0.0856
       18 H4     2px        0.0000    0.0000   -0.0000    0.0000   -0.0000   -0.0000   -0.0000    0.0000    0.0000    0.0000
       19 H4     2py        0.0000   -0.0000   -0.0000    0.0000   -0.0000   -0.0000   -0.0000   -0.0000   -0.0000   -0.0000
       20 H4     2pz       -0.0043    0.0076    0.0005   -0.0114    0.0153    0.0025   -0.0150    0.0031    0.0030   -0.0007
       21 H5     1s         0.3781    0.2005   -0.2742   -0.3771    0.3878    0.3944   -0.2230   -0.5761   -0.2162   -0.0557
       22 H5     2s         0.0671    0.0515   -0.0536   -0.1034    0.1186    0.1373   -0.0744   -0.1999    0.2900    0.0856
       23 H5     2px       -0.0000   -0.0000   -0.0000   -0.0000    0.0000   -0.0000   -0.0000    0.0000    0.0000    0.0000
       24 H5     2py       -0.0000   -0.0000    0.0000    0.0000    0.0000    0.0000   -0.0000    0.0000   -0.0000   -0.0000
       25 H5     2pz        0.0043    0.0076   -0.0005   -0.0114   -0.0153    0.0025    0.0150    0.0031   -0.0030   -0.0007
       26 H6     1s         0.3555    0.2886   -0.1558   -0.4060   -0.4520   -0.1476    0.4327    0.5263   -0.1968   -0.1589
       27 H6     2s         0.0671    0.0491   -0.0498   -0.1061   -0.1422   -0.0437    0.1525    0.1816    0.2695    0.2432
       28 H6     2px        0.0000   -0.0000   -0.0000    0.0000    0.0000   -0.0000    0.0000    0.0000   -0.0000   -0.0000
       29 H6     2py        0.0000    0.0000   -0.0000   -0.0000   -0.0000   -0.0000   -0.0000    0.0000   -0.0000   -0.0000
       30 H6     2pz       -0.0061   -0.0010    0.0089    0.0096   -0.0113   -0.0159   -0.0040    0.0083    0.0030    0.0013
       31 H7     1s         0.2286    0.3809    0.3915    0.2443   -0.1984   -0.4391   -0.5479   -0.3834   -0.1783   -0.2232
       32 H7     2s         0.0374    0.0764    0.0990    0.0750   -0.0554   -0.1449   -0.1917   -0.1346    0.2192    0.3010
       33 H7     2px        0.0000   -0.0000    0.0000   -0.0000   -0.0000    0.0000   -0.0000   -0.0000   -0.0000    0.0000
       34 H7     2py       -0.0000   -0.0000    0.0000   -0.0000   -0.0000    0.0000    0.0000   -0.0000    0.0000    0.0000
       35 H7     2pz        0.0011    0.0047    0.0099    0.0102    0.0141    0.0141    0.0038   -0.0034   -0.0023   -0.0027
       36 H8     1s         0.1721    0.3207    0.3961    0.3081    0.3556    0.4927    0.4368    0.2514   -0.1099   -0.1674
       37 H8     2s         0.0326    0.0626    0.0813    0.0667    0.1094    0.1598    0.1470    0.0856    0.2117    0.3722
       38 H8     2px       -0.0000    0.0000    0.0000   -0.0000    0.0000   -0.0000    0.0000   -0.0000   -0.0000    0.0000
       39 H8     2py        0.0000    0.0000    0.0000    0.0000   -0.0000    0.0000   -0.0000    0.0000   -0.0000    0.0000
       40 H8     2pz       -0.0059   -0.0099   -0.0103   -0.0066    0.0028    0.0081    0.0121    0.0096    0.0079    0.0113
--
 
 
++    Molecular charges:
      ------------------
 
      Mulliken charges per centre and basis function type
      ---------------------------------------------------
 
                H1      H2      H3      H4      H5      H6      H7      H8    
      1s       0.8809  0.9284  0.9072  0.9119  0.9119  0.9072  0.9284  0.8809
      2s       0.0865  0.0945  0.0863  0.0880  0.0880  0.0863  0.0945  0.0865
      2px      0.0000  0.0000  0.0000  0.0000  0.0000  0.0000  0.0000  0.0000
      2pz      0.0037  0.0042  0.0042  0.0042  0.0042  0.0042  0.0042  0.0037
      2py      0.0000  0.0000  0.0000  0.0000  0.0000  0.0000  0.0000  0.0000
      Total    0.9710  1.0272  0.9977  1.0041  1.0041  0.9977  1.0272  0.9710
 
      N-E      0.0290 -0.0272  0.0023 -0.0041 -0.0041  0.0023 -0.0272  0.0290
 
      Total electronic charge=    8.000000
 
      Total            charge=   -0.000000
--
 
 
  Input file to MOLDEN was generated!
 
 
++    Static properties:
      ------------------
 
 
      LoProp Charges per center
 

                   H1       H2       H3       H4       H5       H6       H7       H8    
      Nuclear      1.0000   1.0000   1.0000   1.0000   1.0000   1.0000   1.0000   1.0000
      Electronic  -0.9816  -1.0157  -0.9987  -1.0040  -1.0040  -0.9987  -1.0157  -0.9816
 
      Total        0.0184  -0.0157   0.0013  -0.0040  -0.0040   0.0013  -0.0157   0.0184
--
 
 
++    Natural Bond Order analysis
      ---------------------------
      Based on LoProp computed density
      -------------------------------------------------------------------------------------
      Atom A       Atom B       Bond Order
      -------------------------------------------------------------------------------------
      NBO located      0.972 non-bonded electrons on atom H1        
      NBO located      1.005 non-bonded electrons on atom H3        
      NBO located      1.011 non-bonded electrons on atom H4        
      NBO located      1.011 non-bonded electrons on atom H5        
      NBO located      1.005 non-bonded electrons on atom H6        
      NBO located      0.972 non-bonded electrons on atom H8        
      The remaining    2.026 electrons are to be considered as diffuse
--
 
 
++    Molecular properties:
      ---------------------
 
      Charge (e):
                      =   -0.0000
      Dipole Moment (Debye):
      Origin of the operator (Ang)=    0.0000    0.0000    0.0000
                   X=  8.9759E-15               Y= -1.3134E-14               Z= -1.4120E-07           Total=  1.4120E-07
      Quadrupole Moment (Debye*Ang):
      Origin of the operator (Ang)=    0.0000    0.0000    9.1424
                  XX= -1.9227E+01              XY=  3.3150E-29              XZ= -1.1354E-13              YY= -1.9227E+01
                  YZ=  1.0886E-13              ZZ=  4.0820E-01
      In traceless form (Debye*Ang)
                  XX= -9.8175E+00              XY=  4.9724E-29              XZ= -1.7031E-13              YY= -9.8175E+00
                  YZ=  1.6329E-13              ZZ=  1.9635E+01
--
 
 
  Input file to MOLDEN was generated!
 
 ###############################################################################
 ###############################################################################
 ###                                                                         ###
 ###                                                                         ###
 ###    RunFile label nBas                                                   ###
 ###    was used       78 times                                              ###
 ###                                                                         ###
 ###                                                                         ###
 ###############################################################################
 ###############################################################################
--- Stop Module: scf at Tue Oct 29 12:52:02 2024 /rc=_RC_ALL_IS_WELL_ ---
*** files: H8_2.61.LprOrb H8_2.61.LoProp.molden H8_2.61.scf.molden H8_2.61.ScfOrb H8_2.61.scf.h5 xmldump
    saved to directory /home/grierjones/DDCASPT2/hydrogen_comps/minimal_2e_2o/chains/even/H8_chain/H8_2.61

>>> COPY /tmp/H8_2.61/H8_2.61.scf.h5 /home/grierjones/DDCASPT2/hydrogen_comps/minimal_2e_2o/chains/even/H8_chain/H8_2.61/

*** symbolic link created: INPORB -> H8_2.61.ScfOrb
--- Start Module: rasscf at Tue Oct 29 12:52:02 2024 ---
 
()()()()()()()()()()()()()()()()()()()()()()()()()()()()()()()()()()()()()()()()()()()()()()()()()()

                                              &RASSCF

                                   only a single process is used
                       available to each process: 2.0 GB of memory, 1 thread?
()()()()()()()()()()()()()()()()()()()()()()()()()()()()()()()()()()()()()()()()()()()()()()()()()()
 
 
      Header of the ONEINT file:
      --------------------------
      
      Integrals generated by seward 4.2.0  , Tue Oct 29 12:51:55 2024
 
 
      OrdInt status: non-squared
 
 
      Cartesian coordinates in Angstrom:
      -----------------------------------------------------
      No.  Label        X            Y            Z        
      -----------------------------------------------------
       1   H1         0.00000000   0.00000000   0.00000000
       2   H2         0.00000000   0.00000000   2.61212100
       3   H3         0.00000000   0.00000000   5.22424200
       4   H4         0.00000000   0.00000000   7.83636400
       5   H5         0.00000000   0.00000000  10.44848500
       6   H6         0.00000000   0.00000000  13.06060600
       7   H7         0.00000000   0.00000000  15.67272700
       8   H8         0.00000000   0.00000000  18.28484800
      -----------------------------------------------------
      Nuclear repulsion energy =    2.78410011
 
++    Wave function specifications:
      -----------------------------
 
      Number of closed shell electrons           0
      Number of electrons in active shells       8
      Max number of holes in RAS1 space          0
      Max nr of electrons in RAS3 space          0
      Number of inactive orbitals                0
      Number of active orbitals                  8
      Number of secondary orbitals              32
      Spin quantum number                      0.0
      State symmetry                             1
--
 
++    Orbital specifications:
      -----------------------
 
      Symmetry species                           1
                                                 a
      Frozen orbitals                            0
      Inactive orbitals                          0
      Active orbitals                            8
      RAS1 orbitals                              0
      RAS2 orbitals                              8
      RAS3 orbitals                              0
      Secondary orbitals                        32
      Deleted orbitals                           0
      Number of basis functions                 40
--
 
++    CI expansion specifications:
      ----------------------------
 
      Number of CSFs                          1764
      Number of determinants                  2485
      Number of root(s) required                 1
      Root chosen for geometry opt.              1
      CI root used                               1
         
      highest root included in the CI            1
      max. size of the explicit Hamiltonian    500
--
 
++    Optimization specifications:
      ----------------------------
 
      RASSCF algorithm: Conventional
      Maximum number of macro iterations       200
      Maximum number of SX iterations          100
      Threshold for RASSCF energy            0.100E-07
      Threshold for max MO rotation          0.100E+00
      Threshold for max BLB element          0.100E-03
      Level shift parameter                  0.500E+00
      Make Quasi-Newton update
--
 
      The MO-coefficients are taken from the file:
      /home/grierjones/DDCASPT2/hydrogen_comps/minimal_2e_2o/chains/even/H8_chain/H8_2.59/H8_2.59.RasOrb                              
      Title: RASSCF average (pseudo-natural) orbitals                                      
 
      Total molecular charge    0.00
 
      ************************************************************************************************************************
      *                                                                                                                      *
      *                                            Wave function control section                                             *
      *                                                                                                                      *
      ************************************************************************************************************************
 
 
                                         RASSCF iterations: Energy and convergence statistics
                                         ----------------------------------------------------
 
      Iter CI   SX   CI       RASSCF       Energy    max ROT     max BLB   max BLB  Level Ln srch  Step   QN   Walltime
          iter iter root      energy       change     param      element    value   shift minimum  type update hh:mm:ss
 Nr of preliminary CI iterations:   7
        1   1    4    1    -3.99699605    0.00E+00  -0.35E-02    4  14 1  0.22E-02*  0.00   0.00    SX    NO    0:00:00
        2   1    4    1    -3.99702893   -0.33E-04*  0.11E-02    7  13 1 -0.71E-03*  0.00   0.00    SX    NO    0:00:00
        3   8    4    1    -3.99803290   -0.10E-02*  0.76E-03    5  39 1  0.51E-03*  0.00   0.00    SX    NO    0:00:00
        4   9    4    1    -3.99809370   -0.61E-04*  0.92E-03    7  13 1 -0.56E-03*  0.00   0.00    SX    NO    0:00:00
        5  16    4    1    -3.99811405   -0.20E-04*  0.17E-02    7  13 1 -0.39E-03*  0.01   1.03    QN   YES    0:00:00
        6  29    4    1    -3.99811537   -0.13E-05* -0.10E-02    7  13 1  0.59E-03*  0.01   0.66    QN   YES    0:00:00
        7  17    3    1    -3.99811767   -0.23E-05*  0.18E-03    7  13 1 -0.12E-03*  0.01   0.84    QN   YES    0:00:00
        8   4    3    1    -3.99811777   -0.10E-06*  0.57E-05    7  13 1 -0.37E-05   0.01   1.02    QN   YES    0:00:00
        9   9    3    1    -3.99811784   -0.64E-07* -0.79E-04    7  13 1 -0.20E-04   0.01   1.00    QN   YES    0:00:00
       10   3    3    1    -3.99811780    0.37E-07*  0.53E-04    1   9 1  0.70E-04   0.01   0.04    LS   YES    0:00:00
       11   1    3    1    -3.99811783   -0.33E-07* -0.21E-04    3  17 1 -0.24E-04   0.01   1.33    QN   YES    0:00:00
       12   3    3    1    -3.99811784   -0.41E-08   0.91E-05    7  13 1 -0.16E-04   0.01   1.02    QN   YES    0:00:00
      Convergence after 12 iterations
       13   1    3    1    -3.99811783    0.15E-09   0.91E-05    7  13 1 -0.21E-04   0.01   1.02    QN   YES    0:00:00
 
      ************************************************************************************************************************
                                                      Wave function printout:
                       occupation of active orbitals, and spin coupling of open shells (u,d: Spin up or down)
      ************************************************************************************************************************
 
      Note: transformation to natural orbitals
      has been made, which may change the order of the CSFs.
 
      printout of CI-coefficients larger than  0.05 for root  1
      energy=      -3.998118
      conf/sym  11111111     Coeff  Weight
             1  22220000  -0.34852 0.12147
            20  22200200   0.05133 0.00264
            23  22200020   0.18958 0.03594
            32  22ud0ud0   0.20441 0.04178
            40  2u2d0200   0.06461 0.00417
            41  2u2du0d0  -0.16707 0.02791
            45  2u2d0u0d   0.06917 0.00478
            49  u22dud00  -0.09379 0.00880
            56  u22d00ud   0.18589 0.03455
            58  22022000   0.05288 0.00280
            60  22020200   0.13028 0.01697
            61  2202u0d0  -0.06450 0.00416
            63  22020020   0.05220 0.00273
            69  2ud2ud00  -0.17754 0.03152
            76  2ud200ud   0.09394 0.00882
            78  u2d22000   0.05400 0.00292
            81  u2d2u0d0  -0.07045 0.00496
            85  u2d20u0d   0.14534 0.02112
            88  20222000   0.11060 0.01223
            90  20220200   0.05397 0.00291
            95  20220u0d   0.05420 0.00294
           102  ud220ud0   0.05116 0.00262
           104  ud22u00d  -0.14541 0.02115
           108  02222000   0.05021 0.00252
           117  02220002   0.11217 0.01258
           120  22uu0dd0   0.05881 0.00346
           125  2u2ud0d0  -0.05978 0.00357
           135  u22u00dd  -0.07278 0.00530
           559  22000220  -0.12082 0.01460
           578  2ud0ud20   0.13388 0.01792
           607  u2d00u2d   0.11888 0.01413
           617  20202020  -0.09559 0.00914
           646  ud20u02d  -0.09666 0.00934
           673  02200022  -0.09146 0.00837
           676  2u0du2d0   0.11248 0.01265
           704  u20d02ud   0.10045 0.01009
           715  20ud2ud0  -0.09402 0.00884
           743  udududud  -0.09080 0.00824
           745  ududuudd  -0.11006 0.01211
           772  02ud0ud2  -0.08551 0.00731
           783  uuddudud  -0.13480 0.01817
           785  uudduudd   0.05056 0.00256
           802  u02d20ud   0.08771 0.00769
           831  0u2du0d2   0.08902 0.00793
           834  20022200  -0.08762 0.00768
           861  ud02u20d  -0.08219 0.00676
           890  02020202  -0.07486 0.00560
           900  u0d22u0d   0.08986 0.00808
           929  0ud2ud02   0.09040 0.00817
           948  00222002  -0.07089 0.00503
          1595  20002220   0.09093 0.00827
          1608  ud00u22d  -0.10664 0.01137
          1624  02000222   0.07318 0.00536
          1627  u0d02u2d   0.09183 0.00843
          1636  0ud022ud   0.05305 0.00281
          1643  0ud0ud22  -0.10235 0.01047
          1652  00202022   0.06530 0.00426
          1656  u00d22ud   0.10086 0.01017
          1663  u00dud22  -0.05304 0.00281
          1671  0u0du2d2  -0.08265 0.00683
          1680  00ud2ud2   0.08872 0.00787
          1689  00022202   0.07024 0.00493
          1764  00002222  -0.10960 0.01201
 
      Natural orbitals and occupation numbers for root  1
      sym 1:   1.321003   1.281913   1.218886   1.139092   0.716726   0.782555   0.864342   0.675483
 
      ************************************************************************************************************************
      *                                                                                                                      *
      *                                                    Final results                                                     *
      *                                                                                                                      *
      ************************************************************************************************************************
 
 
++    Wave function specifications:
      -----------------------------
 
      Number of closed shell electrons           0
      Number of electrons in active shells       8
      Max number of holes in RAS1 space          0
      Max nr of electrons in RAS3 space          0
      Number of inactive orbitals                0
      Number of active orbitals                  8
      Number of secondary orbitals              32
      Spin quantum number                      0.0
      State symmetry                             1
--
 
++    Orbital specifications:
      -----------------------
 
      Symmetry species                           1
                                                 a
      Frozen orbitals                            0
      Inactive orbitals                          0
      Active orbitals                            8
      RAS1 orbitals                              0
      RAS2 orbitals                              8
      RAS3 orbitals                              0
      Secondary orbitals                        32
      Deleted orbitals                           0
      Number of basis functions                 40
--
 
++    CI expansion specifications:
      ----------------------------
 
      Number of CSFs                          1764
      Number of determinants                  2485
      Number of root(s) required                 1
      CI root used                               1
      highest root included in the CI            1
      Root passed to geometry opt.               1
--
 
++    Final optimization conditions:
      ------------------------------
 
      Average CI energy                              -3.99811783
      RASSCF energy for state  1                     -3.99811783
      Super-CI energy                                -0.00000000
      RASSCF energy change                            0.00000000
      Max change in MO coefficients               0.695E-05
      Max non-diagonal density matrix element     0.913E-05
      Maximum BLB matrix element                 -0.212E-04
      (orbital pair   7,  13 in symmetry   1)
      Norm of electronic gradient            0.566E-04
--
 
 
      Final state energy(ies):
      ------------------------
 
::    RASSCF root number  1 Total energy:     -3.99811783
 
++    Molecular orbitals:
      -------------------
 
      Pseudonatural active orbitals and approximate occupation numbers
 
 
 
 
      Molecular orbitals for symmetry species 1: a  
 
 
      Orbital                1         2         3         4         5         6         7         8         9        10
      Energy            0.0000    0.0000    0.0000    0.0000    0.0000    0.0000    0.0000    0.0000    0.3301    0.3423
      Occ. No.          1.3210    1.2819    1.2189    1.1391    0.7167    0.7826    0.8643    0.6755    0.0000    0.0000
 
    1 H1     1s         0.1992   -0.3515    0.4101   -0.3277    0.4189   -0.4682   -0.3559   -0.2447   -0.0800   -0.1125
    2 H1     2s         0.0149   -0.0268    0.0324   -0.0271    0.0520   -0.0531   -0.0368   -0.0324    0.2137    0.3752
    3 H1     2px        0.0000   -0.0000    0.0000   -0.0000    0.0000    0.0000    0.0000   -0.0000   -0.0000   -0.0000
    4 H1     2py       -0.0000   -0.0000    0.0000    0.0000   -0.0000    0.0000    0.0000    0.0000   -0.0000   -0.0000
    5 H1     2pz        0.0008   -0.0012    0.0010   -0.0005    0.0022   -0.0016   -0.0007   -0.0017   -0.0053   -0.0080
    6 H2     1s         0.2722   -0.4205    0.3832   -0.2018   -0.5239    0.4227    0.1827    0.3643   -0.1412   -0.1771
    7 H2     2s         0.0176   -0.0333    0.0401   -0.0296   -0.0789    0.0507    0.0119    0.0613    0.2263    0.3117
    8 H2     2px        0.0000    0.0000   -0.0000    0.0000    0.0000   -0.0000   -0.0000    0.0000   -0.0000    0.0000
    9 H2     2py        0.0000    0.0000    0.0000   -0.0000   -0.0000    0.0000    0.0000   -0.0000   -0.0000   -0.0000
   10 H2     2pz        0.0007   -0.0001   -0.0011    0.0014    0.0005   -0.0006    0.0001    0.0000   -0.0001   -0.0000
   11 H3     1s         0.3641   -0.2986   -0.1455    0.4415    0.3937    0.1416    0.4693   -0.4776   -0.1572   -0.1185
   12 H3     2s         0.0258   -0.0181   -0.0207    0.0468    0.0652    0.0133    0.0553   -0.0797    0.2741    0.2472
   13 H3     2px       -0.0000   -0.0000   -0.0000   -0.0000   -0.0000    0.0000   -0.0000    0.0000    0.0000    0.0000
   14 H3     2py        0.0000    0.0000   -0.0000   -0.0000    0.0000    0.0000    0.0000   -0.0000   -0.0000    0.0000
   15 H3     2pz        0.0000    0.0009   -0.0014    0.0005    0.0001    0.0007    0.0001   -0.0012   -0.0002    0.0000
   16 H4     1s         0.3934   -0.1687   -0.3324    0.3770   -0.1937   -0.4064   -0.3873    0.5221   -0.1702   -0.0485
   17 H4     2s         0.0267   -0.0178   -0.0245    0.0428   -0.0261   -0.0607   -0.0419    0.0887    0.2949    0.0891
   18 H4     2px       -0.0000    0.0000   -0.0000    0.0000    0.0000   -0.0000    0.0000   -0.0000    0.0000    0.0000
   19 H4     2py        0.0000   -0.0000   -0.0000    0.0000    0.0000    0.0000    0.0000   -0.0000   -0.0000   -0.0000
   20 H4     2pz        0.0004    0.0011   -0.0008   -0.0011    0.0012    0.0001    0.0003   -0.0007    0.0001   -0.0003
   21 H5     1s         0.3934    0.1687   -0.3324   -0.3770   -0.1937    0.4064   -0.3873   -0.5221   -0.1702    0.0485
   22 H5     2s         0.0267    0.0178   -0.0245   -0.0428   -0.0261    0.0607   -0.0419   -0.0887    0.2949   -0.0891
   23 H5     2px        0.0000   -0.0000   -0.0000    0.0000    0.0000   -0.0000   -0.0000   -0.0000    0.0000   -0.0000
   24 H5     2py       -0.0000    0.0000    0.0000   -0.0000   -0.0000   -0.0000   -0.0000   -0.0000    0.0000   -0.0000
   25 H5     2pz       -0.0004    0.0011    0.0008   -0.0011   -0.0012    0.0001   -0.0003   -0.0007   -0.0001   -0.0003
   26 H6     1s         0.3641    0.2986   -0.1455   -0.4415    0.3937   -0.1416    0.4693    0.4776   -0.1572    0.1185
   27 H6     2s         0.0258    0.0181   -0.0207   -0.0468    0.0652   -0.0133    0.0553    0.0797    0.2741   -0.2472
   28 H6     2px       -0.0000    0.0000    0.0000   -0.0000   -0.0000   -0.0000    0.0000   -0.0000    0.0000   -0.0000
   29 H6     2py        0.0000   -0.0000    0.0000    0.0000   -0.0000    0.0000    0.0000   -0.0000   -0.0000    0.0000
   30 H6     2pz       -0.0000    0.0009    0.0014    0.0005   -0.0001    0.0007   -0.0001   -0.0012    0.0002    0.0000
   31 H7     1s         0.2722    0.4205    0.3832    0.2018   -0.5239   -0.4227    0.1827   -0.3643   -0.1412    0.1771
   32 H7     2s         0.0176    0.0333    0.0401    0.0296   -0.0789   -0.0507    0.0119   -0.0613    0.2263   -0.3117
   33 H7     2px        0.0000   -0.0000    0.0000    0.0000    0.0000    0.0000   -0.0000   -0.0000   -0.0000    0.0000
   34 H7     2py       -0.0000   -0.0000   -0.0000    0.0000    0.0000    0.0000   -0.0000   -0.0000    0.0000   -0.0000
   35 H7     2pz       -0.0007   -0.0001    0.0011    0.0014   -0.0005   -0.0006   -0.0001    0.0000    0.0001   -0.0000
   36 H8     1s         0.1992    0.3515    0.4101    0.3277    0.4189    0.4682   -0.3559    0.2447   -0.0800    0.1125
   37 H8     2s         0.0149    0.0268    0.0324    0.0271    0.0520    0.0531   -0.0368    0.0324    0.2137   -0.3752
   38 H8     2px        0.0000    0.0000    0.0000    0.0000    0.0000    0.0000   -0.0000   -0.0000   -0.0000    0.0000
   39 H8     2py       -0.0000   -0.0000   -0.0000   -0.0000   -0.0000    0.0000   -0.0000    0.0000    0.0000    0.0000
   40 H8     2pz       -0.0008   -0.0012   -0.0010   -0.0005   -0.0022   -0.0016    0.0007   -0.0017    0.0053   -0.0080
 
 
      Orbital               11        12        13        14        15        16        17        18        19        20
      Energy            0.3660    0.4048    0.4616    0.5440    0.6430    0.7421    0.7601    0.8624    0.8624    0.8773
      Occ. No.          0.0000    0.0000    0.0000    0.0000    0.0000    0.0000    0.0000    0.0000    0.0000    0.0000
 
    1 H1     1s         0.0824   -0.0069    0.0806    0.1489    0.1610   -0.1338   -0.0915    0.0000    0.0000   -0.0000
    2 H1     2s        -0.4717    0.5184    0.5152    0.4645    0.3557   -0.2315   -0.1482   -0.0000   -0.0000    0.0000
    3 H1     2px        0.0000   -0.0000    0.0000    0.0000   -0.0000   -0.0000   -0.0000   -0.0082   -0.1520   -0.2882
    4 H1     2py       -0.0000    0.0000    0.0000   -0.0000    0.0000   -0.0000   -0.0000    0.1520   -0.0082   -0.0201
    5 H1     2pz        0.0088   -0.0128   -0.0278   -0.0670   -0.1411    0.3268    0.3020   -0.0000    0.0000    0.0000
    6 H2     1s         0.1031   -0.0145   -0.0138   -0.1201   -0.2108    0.1566    0.0802   -0.0000   -0.0000   -0.0000
    7 H2     2s        -0.2019   -0.0687   -0.4038   -0.6847   -0.7060    0.4244    0.2207    0.0000   -0.0000   -0.0000
    8 H2     2px       -0.0000    0.0000    0.0000    0.0000   -0.0000    0.0000   -0.0000   -0.0156   -0.2895   -0.4481
    9 H2     2py        0.0000    0.0000    0.0000    0.0000    0.0000    0.0000   -0.0000    0.2895   -0.0156   -0.0312
   10 H2     2pz        0.0051   -0.0223   -0.0455   -0.0437    0.0423   -0.3361   -0.3466    0.0000   -0.0000    0.0000
   11 H3     1s        -0.0434    0.0937    0.0052    0.0150    0.1961   -0.1789   -0.0592   -0.0000   -0.0000    0.0000
   12 H3     2s         0.0943   -0.4465   -0.4174    0.1242    0.6774   -0.4810   -0.1654   -0.0000    0.0000    0.0000
   13 H3     2px       -0.0000   -0.0000   -0.0000    0.0000    0.0000   -0.0000    0.0000   -0.0212   -0.3917   -0.3956
   14 H3     2py       -0.0000   -0.0000    0.0000    0.0000   -0.0000    0.0000    0.0000    0.3917   -0.0212   -0.0276
   15 H3     2pz        0.0037   -0.0023    0.0388    0.1300    0.1366    0.2239    0.3125   -0.0000    0.0000   -0.0000
   16 H4     1s        -0.1272    0.0575   -0.0039    0.0943   -0.0813    0.1842    0.0220    0.0000   -0.0000    0.0000
   17 H4     2s         0.3477   -0.2565    0.4073    0.6025   -0.2738    0.4831    0.0583    0.0000   -0.0000   -0.0000
   18 H4     2px       -0.0000    0.0000    0.0000   -0.0000   -0.0000    0.0000    0.0000   -0.0241   -0.4457   -0.1571
   19 H4     2py       -0.0000    0.0000    0.0000    0.0000   -0.0000    0.0000    0.0000    0.4457   -0.0241   -0.0109
   20 H4     2pz        0.0029    0.0146    0.0369   -0.0713   -0.2674   -0.0762   -0.2805    0.0000    0.0000    0.0000
   21 H5     1s        -0.1272   -0.0575   -0.0039   -0.0943   -0.0813   -0.1842    0.0220   -0.0000   -0.0000   -0.0000
   22 H5     2s         0.3477    0.2565    0.4073   -0.6025   -0.2738   -0.4831    0.0583   -0.0000    0.0000   -0.0000
   23 H5     2px       -0.0000   -0.0000   -0.0000   -0.0000   -0.0000    0.0000    0.0000   -0.0241   -0.4457    0.1571
   24 H5     2py        0.0000   -0.0000    0.0000    0.0000    0.0000    0.0000   -0.0000    0.4457   -0.0241    0.0109
   25 H5     2pz       -0.0029    0.0146   -0.0369   -0.0713    0.2674   -0.0762    0.2805    0.0000   -0.0000   -0.0000
   26 H6     1s        -0.0434   -0.0937    0.0052   -0.0150    0.1961    0.1789   -0.0592    0.0000   -0.0000    0.0000
   27 H6     2s         0.0943    0.4465   -0.4174   -0.1242    0.6774    0.4810   -0.1654    0.0000   -0.0000   -0.0000
   28 H6     2px        0.0000   -0.0000    0.0000   -0.0000    0.0000    0.0000   -0.0000   -0.0212   -0.3917    0.3956
   29 H6     2py       -0.0000    0.0000    0.0000    0.0000    0.0000    0.0000   -0.0000    0.3917   -0.0212    0.0276
   30 H6     2pz       -0.0037   -0.0023   -0.0388    0.1300   -0.1366    0.2239   -0.3125   -0.0000    0.0000    0.0000
   31 H7     1s         0.1031    0.0145   -0.0138    0.1201   -0.2108   -0.1566    0.0802    0.0000    0.0000   -0.0000
   32 H7     2s        -0.2019    0.0687   -0.4038    0.6847   -0.7060   -0.4244    0.2207   -0.0000   -0.0000   -0.0000
   33 H7     2px        0.0000    0.0000   -0.0000    0.0000    0.0000    0.0000    0.0000   -0.0156   -0.2895    0.4481
   34 H7     2py       -0.0000    0.0000   -0.0000    0.0000   -0.0000   -0.0000    0.0000    0.2895   -0.0156    0.0312
   35 H7     2pz       -0.0051   -0.0223    0.0455   -0.0437   -0.0423   -0.3361    0.3466    0.0000   -0.0000    0.0000
   36 H8     1s         0.0824    0.0069    0.0806   -0.1489    0.1610    0.1338   -0.0915    0.0000   -0.0000   -0.0000
   37 H8     2s        -0.4717   -0.5184    0.5152   -0.4645    0.3557    0.2315   -0.1482    0.0000    0.0000    0.0000
   38 H8     2px        0.0000    0.0000   -0.0000    0.0000   -0.0000    0.0000    0.0000   -0.0082   -0.1520    0.2882
   39 H8     2py       -0.0000    0.0000   -0.0000    0.0000    0.0000   -0.0000    0.0000    0.1520   -0.0082    0.0201
   40 H8     2pz       -0.0088   -0.0128    0.0278   -0.0670    0.1411    0.3268   -0.3020   -0.0000    0.0000   -0.0000
 
 
      Orbital               21        22        23        24        25        26        27        28        29        30
      Energy            0.8773    0.9009    0.9009    0.9308    0.9308    0.9644    0.9644    0.9968    0.9968    1.0244
      Occ. No.          0.0000    0.0000    0.0000    0.0000    0.0000    0.0000    0.0000    0.0000    0.0000    0.0000
 
    1 H1     1s        -0.0000    0.0000   -0.0000    0.0000    0.0000   -0.0000    0.0000    0.0000    0.0000    0.0000
    2 H1     2s         0.0000   -0.0000   -0.0000    0.0000   -0.0000   -0.0000    0.0000    0.0000    0.0000    0.0000
    3 H1     2px       -0.0201    0.1190    0.3772   -0.4514   -0.0743    0.3081   -0.3527   -0.3152   -0.2818   -0.2324
    4 H1     2py        0.2882    0.3772   -0.1190   -0.0743    0.4514    0.3527    0.3081   -0.2818    0.3152   -0.2192
    5 H1     2pz       -0.0000    0.0000   -0.0000    0.0000    0.0000   -0.0000    0.0000    0.0000    0.0000    0.0000
    6 H2     1s        -0.0000   -0.0000    0.0000   -0.0000   -0.0000    0.0000   -0.0000   -0.0000   -0.0000   -0.0000
    7 H2     2s         0.0000    0.0000    0.0000   -0.0000    0.0000    0.0000   -0.0000   -0.0000   -0.0000   -0.0000
    8 H2     2px       -0.0312    0.1214    0.3846   -0.1658   -0.0273   -0.1025    0.1173    0.3085    0.2758    0.3497
    9 H2     2py        0.4481    0.3846   -0.1214   -0.0273    0.1658   -0.1173   -0.1025    0.2758   -0.3085    0.3298
   10 H2     2pz        0.0000   -0.0000   -0.0000   -0.0000    0.0000    0.0000   -0.0000   -0.0000    0.0000   -0.0000
   11 H3     1s        -0.0000   -0.0000   -0.0000    0.0000   -0.0000   -0.0000    0.0000    0.0000   -0.0000    0.0000
   12 H3     2s        -0.0000   -0.0000   -0.0000    0.0000   -0.0000   -0.0000    0.0000    0.0000    0.0000    0.0000
   13 H3     2px       -0.0276    0.0006    0.0020    0.3985    0.0656   -0.2725    0.3119    0.0039    0.0035   -0.3057
   14 H3     2py        0.3956    0.0020   -0.0006    0.0656   -0.3985   -0.3119   -0.2725    0.0035   -0.0039   -0.2883
   15 H3     2pz       -0.0000    0.0000    0.0000   -0.0000   -0.0000    0.0000    0.0000   -0.0000   -0.0000   -0.0000
   16 H4     1s         0.0000    0.0000    0.0000   -0.0000    0.0000    0.0000   -0.0000   -0.0000   -0.0000   -0.0000
   17 H4     2s         0.0000   -0.0000    0.0000   -0.0000    0.0000    0.0000   -0.0000   -0.0000    0.0000    0.0000
   18 H4     2px       -0.0109   -0.1201   -0.3805    0.2991    0.0493    0.2008   -0.2298   -0.3109   -0.2780    0.1209
   19 H4     2py        0.1571   -0.3805    0.1201    0.0493   -0.2991    0.2298    0.2008   -0.2780    0.3109    0.1140
   20 H4     2pz       -0.0000   -0.0000   -0.0000    0.0000   -0.0000   -0.0000    0.0000    0.0000    0.0000    0.0000
   21 H5     1s        -0.0000    0.0000   -0.0000    0.0000    0.0000    0.0000    0.0000    0.0000   -0.0000   -0.0000
   22 H5     2s        -0.0000    0.0000   -0.0000    0.0000   -0.0000   -0.0000    0.0000    0.0000   -0.0000   -0.0000
   23 H5     2px        0.0109   -0.1201   -0.3805   -0.2991   -0.0493    0.2008   -0.2298    0.3109    0.2780    0.1209
   24 H5     2py       -0.1571   -0.3805    0.1201   -0.0493    0.2991    0.2298    0.2008    0.2780   -0.3109    0.1140
   25 H5     2pz        0.0000    0.0000    0.0000   -0.0000   -0.0000    0.0000   -0.0000   -0.0000    0.0000   -0.0000
   26 H6     1s        -0.0000   -0.0000    0.0000   -0.0000    0.0000    0.0000    0.0000   -0.0000    0.0000    0.0000
   27 H6     2s         0.0000   -0.0000    0.0000   -0.0000    0.0000    0.0000   -0.0000   -0.0000   -0.0000    0.0000
   28 H6     2px        0.0276    0.0006    0.0020   -0.3985   -0.0656   -0.2725    0.3119   -0.0039   -0.0035   -0.3057
   29 H6     2py       -0.3956    0.0020   -0.0006   -0.0656    0.3985   -0.3119   -0.2725   -0.0035    0.0039   -0.2883
   30 H6     2pz       -0.0000    0.0000   -0.0000    0.0000   -0.0000   -0.0000    0.0000    0.0000   -0.0000   -0.0000
   31 H7     1s        -0.0000    0.0000   -0.0000    0.0000   -0.0000    0.0000    0.0000   -0.0000    0.0000   -0.0000
   32 H7     2s        -0.0000    0.0000   -0.0000    0.0000   -0.0000   -0.0000    0.0000    0.0000    0.0000   -0.0000
   33 H7     2px        0.0312    0.1214    0.3846    0.1658    0.0273   -0.1025    0.1173   -0.3085   -0.2758    0.3497
   34 H7     2py       -0.4481    0.3846   -0.1214    0.0273   -0.1658   -0.1173   -0.1025   -0.2758    0.3085    0.3298
   35 H7     2pz        0.0000   -0.0000    0.0000   -0.0000    0.0000    0.0000   -0.0000   -0.0000   -0.0000    0.0000
   36 H8     1s         0.0000   -0.0000   -0.0000   -0.0000    0.0000   -0.0000    0.0000   -0.0000    0.0000   -0.0000
   37 H8     2s        -0.0000    0.0000    0.0000   -0.0000   -0.0000    0.0000   -0.0000   -0.0000   -0.0000    0.0000
   38 H8     2px        0.0201    0.1190    0.3772    0.4514    0.0743    0.3081   -0.3527    0.3152    0.2818   -0.2324
   39 H8     2py       -0.2882    0.3772   -0.1190    0.0743   -0.4514    0.3527    0.3081    0.2818   -0.3152   -0.2192
   40 H8     2pz       -0.0000    0.0000   -0.0000    0.0000   -0.0000   -0.0000   -0.0000    0.0000    0.0000   -0.0000
 
 
      Orbital               31        32        33        34        35        36        37        38        39        40
      Energy            1.0244    1.0421    1.0429    1.0429    1.0516    1.0897    1.1497    1.2192    1.2849    1.3324
      Occ. No.          0.0000    0.0000    0.0000    0.0000    0.0000    0.0000    0.0000    0.0000    0.0000    0.0000
 
    1 H1     1s         0.0000   -0.0817   -0.0000    0.0000   -0.1143    0.1180   -0.1055    0.0927   -0.0717    0.0401
    2 H1     2s         0.0000   -0.1582   -0.0000    0.0000   -0.2440    0.2623   -0.2257    0.1752   -0.1168    0.0582
    3 H1     2px       -0.2192   -0.0000    0.1717    0.0057   -0.0000    0.0000   -0.0000    0.0000   -0.0000    0.0000
    4 H1     2py        0.2324    0.0000   -0.0057    0.1717   -0.0000    0.0000    0.0000   -0.0000    0.0000   -0.0000
    5 H1     2pz        0.0000   -0.1559   -0.0000    0.0000   -0.3222    0.4339   -0.4672    0.4336   -0.3326    0.1805
    6 H2     1s        -0.0000    0.2483    0.0000   -0.0000    0.2988   -0.2547    0.1588   -0.0736    0.0092    0.0125
    7 H2     2s        -0.0000    0.5221    0.0000   -0.0000    0.6417   -0.5221    0.2912   -0.1248    0.0295    0.0013
    8 H2     2px        0.3298    0.0000   -0.3173   -0.0105   -0.0000   -0.0000    0.0000   -0.0000    0.0000   -0.0000
    9 H2     2py       -0.3497   -0.0000    0.0105   -0.3173    0.0000   -0.0000   -0.0000    0.0000   -0.0000    0.0000
   10 H2     2pz       -0.0000    0.2660    0.0000   -0.0000    0.2956   -0.1052   -0.2237    0.4881   -0.5517    0.3620
   11 H3     1s         0.0000   -0.4462   -0.0000    0.0000   -0.3454    0.1415    0.0320   -0.0623    0.0180    0.0189
   12 H3     2s         0.0000   -0.9512   -0.0000    0.0000   -0.7471    0.2878    0.0488   -0.0753    0.0114    0.0240
   13 H3     2px       -0.2883   -0.0000    0.4261    0.0141    0.0000    0.0000   -0.0000    0.0000   -0.0000    0.0000
   14 H3     2py        0.3057    0.0000   -0.0141    0.4261   -0.0000    0.0000    0.0000   -0.0000    0.0000   -0.0000
   15 H3     2pz        0.0000   -0.2487   -0.0000    0.0000    0.0832   -0.4615    0.4636   -0.0027   -0.4738    0.4828
   16 H4     1s        -0.0000    0.5781    0.0000   -0.0000    0.1545    0.0819   -0.0786   -0.0525    0.0542    0.0026
   17 H4     2s        -0.0000    1.2400    0.0000   -0.0000    0.3336    0.1685   -0.1341   -0.0769    0.0629   -0.0013
   18 H4     2px        0.1140    0.0000   -0.4839   -0.0160   -0.0000    0.0000    0.0000   -0.0000   -0.0000    0.0000
   19 H4     2py       -0.1209   -0.0000    0.0160   -0.4839   -0.0000   -0.0000   -0.0000    0.0000   -0.0000   -0.0000
   20 H4     2pz        0.0000    0.1023    0.0000   -0.0000   -0.4468    0.3241    0.3261   -0.4604   -0.1937    0.5536
   21 H5     1s         0.0000   -0.5781   -0.0000    0.0000    0.1545   -0.0819   -0.0786    0.0525    0.0542   -0.0026
   22 H5     2s         0.0000   -1.2400   -0.0000    0.0000    0.3336   -0.1685   -0.1341    0.0769    0.0629    0.0013
   23 H5     2px        0.1140   -0.0000    0.4839    0.0160    0.0000   -0.0000    0.0000    0.0000   -0.0000   -0.0000
   24 H5     2py       -0.1209    0.0000   -0.0160    0.4839    0.0000    0.0000    0.0000   -0.0000   -0.0000   -0.0000
   25 H5     2pz       -0.0000    0.1023    0.0000   -0.0000    0.4468    0.3241   -0.3261   -0.4604    0.1937    0.5536
   26 H6     1s        -0.0000    0.4461    0.0000   -0.0000   -0.3454   -0.1415    0.0320    0.0623    0.0180   -0.0189
   27 H6     2s        -0.0000    0.9512    0.0000   -0.0000   -0.7472   -0.2878    0.0488    0.0753    0.0114   -0.0240
   28 H6     2px       -0.2883    0.0000   -0.4261   -0.0141   -0.0000    0.0000   -0.0000   -0.0000    0.0000   -0.0000
   29 H6     2py        0.3057   -0.0000    0.0141   -0.4261    0.0000   -0.0000   -0.0000    0.0000    0.0000    0.0000
   30 H6     2pz        0.0000   -0.2487   -0.0000    0.0000   -0.0832   -0.4615   -0.4636   -0.0027    0.4738    0.4828
   31 H7     1s         0.0000   -0.2483   -0.0000    0.0000    0.2988    0.2547    0.1588    0.0736    0.0092   -0.0125
   32 H7     2s         0.0000   -0.5221   -0.0000    0.0000    0.6417    0.5221    0.2912    0.1248    0.0295   -0.0013
   33 H7     2px        0.3298   -0.0000    0.3173    0.0105    0.0000   -0.0000    0.0000    0.0000   -0.0000    0.0000
   34 H7     2py       -0.3497    0.0000   -0.0105    0.3173   -0.0000    0.0000   -0.0000   -0.0000    0.0000    0.0000
   35 H7     2pz       -0.0000    0.2660    0.0000   -0.0000   -0.2956   -0.1052    0.2237    0.4881    0.5517    0.3620
   36 H8     1s        -0.0000    0.0817    0.0000   -0.0000   -0.1143   -0.1180   -0.1055   -0.0927   -0.0717   -0.0401
   37 H8     2s        -0.0000    0.1582    0.0000   -0.0000   -0.2440   -0.2623   -0.2257   -0.1752   -0.1168   -0.0582
   38 H8     2px       -0.2192    0.0000   -0.1717   -0.0057   -0.0000    0.0000   -0.0000    0.0000   -0.0000   -0.0000
   39 H8     2py        0.2324   -0.0000    0.0057   -0.1717    0.0000   -0.0000    0.0000   -0.0000    0.0000   -0.0000
   40 H8     2pz        0.0000   -0.1559   -0.0000    0.0000    0.3222    0.4339    0.4672    0.4336    0.3326    0.1805
--
 
      Von Neumann Entropy (Root  1) =  3.81669
 

      Mulliken population analysis for root number:  1
      -----------------------------------------------
 
 
++    Molecular charges:
      ------------------
 
      Mulliken charges per centre and basis function type
      ---------------------------------------------------
 
                H1      H2      H3      H4      H5      H6      H7      H8    
      1s       0.9926  1.0013  1.0018  1.0016  1.0016  1.0018  1.0013  0.9926
      2s       0.0059  0.0002 -0.0021 -0.0017 -0.0017 -0.0021  0.0002  0.0059
      2px      0.0000  0.0000  0.0000  0.0000  0.0000  0.0000  0.0000  0.0000
      2pz     -0.0000  0.0002  0.0002  0.0002  0.0002  0.0002  0.0002 -0.0000
      2py      0.0000  0.0000  0.0000  0.0000  0.0000  0.0000  0.0000  0.0000
      Total    0.9984  1.0017  0.9999  1.0000  1.0000  0.9999  1.0017  0.9984
 
      N-E      0.0016 -0.0017  0.0001  0.0000  0.0000  0.0001 -0.0017  0.0016
 
      Total electronic charge=    8.000000
 
      Total            charge=   -0.000000
--
 
 

      Expectation values of various properties for root number:  1
      -----------------------------------------------------------
 
 
++    Molecular properties:
      ---------------------
 
      Charge (e):
                      =   -0.0000
      Dipole Moment (Debye):
      Origin of the operator (Ang)=    0.0000    0.0000    0.0000
                   X= -1.4096E-14               Y= -3.9805E-13               Z=  4.1657E-07           Total=  4.1657E-07
      Quadrupole Moment (Debye*Ang):
      Origin of the operator (Ang)=    0.0000    0.0000    9.1424
                  XX= -1.2141E+01              XY=  1.7686E-26              XZ= -2.5152E-12              YY= -1.2141E+01
                  YZ=  3.0802E-12              ZZ= -1.1875E+01
      In traceless form (Debye*Ang)
                  XX= -1.3291E-01              XY=  2.6529E-26              XZ= -3.7727E-12              YY= -1.3291E-01
                  YZ=  4.6202E-12              ZZ=  2.6581E-01
--
 

      LoProp population analysis for root number:  1
      -----------------------------------------------
 
 
++    LoProp analysis:
      ----------------
 
 
 
  Input file to MOLDEN was generated!
 
 
++    Static properties:
      ------------------
 
 
      LoProp Charges per center
 

                   H1       H2       H3       H4       H5       H6       H7       H8    
      Nuclear      1.0000   1.0000   1.0000   1.0000   1.0000   1.0000   1.0000   1.0000
      Electronic  -1.0001  -0.9999  -1.0000  -1.0000  -1.0000  -1.0000  -0.9999  -1.0001
 
      Total       -0.0001   0.0001   0.0000  -0.0000  -0.0000   0.0000   0.0001  -0.0001
--
 
 
      Natural Bond Order analysis for root number:  1
 
++    Natural Bond Order analysis
      ---------------------------
      Based on LoProp computed density
      -------------------------------------------------------------------------------------
      Atom A       Atom B       Bond Order
      -------------------------------------------------------------------------------------
      The remaining    8.000 electrons are to be considered as diffuse
--
 
--
 
 
  Input file to MOLDEN was generated!
 
      Average orbitals are written to the RASORB file
      Natural orbitals for root   1 are written to the RASORB.1 file
      Spin density orbitals for root   1 are written to the SPDORB.1 file
 
--- Stop Module: rasscf at Tue Oct 29 12:52:04 2024 /rc=_RC_ALL_IS_WELL_ ---
*** files: H8_2.61.LprOrb H8_2.61.rasscf.molden H8_2.61.LoProp.molden H8_2.61.RasOrb H8_2.61.RasOrb.1 H8_2.61.rasscf.h5 H8_2.61.SpdOrb.1 xmldump
    saved to directory /home/grierjones/DDCASPT2/hydrogen_comps/minimal_2e_2o/chains/even/H8_chain/H8_2.61
--- Module rasscf spent 1 second ---

>>> COPY /tmp/H8_2.61/H8_2.61.rasscf.h5 /home/grierjones/DDCASPT2/hydrogen_comps/minimal_2e_2o/chains/even/H8_chain/H8_2.61/

>>> COPY /tmp/H8_2.61/GMJ_Fock_MO.csv /home/grierjones/DDCASPT2/hydrogen_comps/minimal_2e_2o/chains/even/H8_chain/H8_2.61/H8_2.61.GMJ_Fock_MO.csv

*** symbolic link created: INPORB -> H8_2.61.RasOrb
--- Start Module: caspt2 at Tue Oct 29 12:52:04 2024 ---
 
()()()()()()()()()()()()()()()()()()()()()()()()()()()()()()()()()()()()()()()()()()()()()()()()()()

                                              &CASPT2

                                   only a single process is used
                       available to each process: 2.0 GB of memory, 1 thread?
()()()()()()()()()()()()()()()()()()()()()()()()()()()()()()()()()()()()()()()()()()()()()()()()()()
 
 Cholesky algorithm in CASPT2 =    1
 
 ###############################################################################
 ###############################################################################
 ###                                                                         ###
 ###                                                                         ###
 ###    User changed nr of frozen orbitals.                                  ###
 ###                                                                         ###
 ###                                                                         ###
 ###############################################################################
 ###############################################################################
 
++    Wave function specifications:
      -----------------------------
 
      Number of closed shell electrons           0
      Number of electrons in active shells       8
      Max number of holes in RAS1 space          0
      Max number of electrons in RAS3 space      0
      Number of inactive orbitals                0
      Number of active orbitals                  8
      Number of secondary orbitals              32
      Spin quantum number                      0.0
      State symmetry                             1
      Number of CSFs                          1764
      Number of root(s) available                1
      Root passed to geometry opt.               1
      A file JOBMIX will be created.
      This is a CASSCF or RASSCF reference function
--
 
++    Orbital specifications:
      -----------------------
 
      Symmetry species                           1
                                                 a
      Frozen orbitals                            0
      Inactive orbitals                          0
      Active orbitals                            8
      Secondary orbitals                        32
      Deleted orbitals                           0
      Number of basis functions                 40
--
 
      Type of Fock operator: STANDARD
      Type of 0-order Hamiltonian: STANDARD WITH DEFAULT IPEA
        "IP-EA" denominator shift =      0.25
      The input orbitals and the CI vector will be transformed.
 
--------------------------------------------------------------------------------
 Estimated memory requirements:
  POLY3 :                   450746
  RHS:                      417296
  SIGMA :                   326032
  PRPCTL:                        0
 Available workspace:    230388092
 
++ CASPT2 computation for group   1
 
********************************************************************************
 Multi-State initialization phase begins for group   1
--------------------------------------------------------------------------------
********************************************************************************
 Compute H0 matrices for state    1
--------------------------------------------------------------------------------
--------------------------------------------------------------------------------
 H0 matrices have been computed.
 
********************************************************************************
  CASPT2 EQUATION SOLUTION
--------------------------------------------------------------------------------
 
  Total nr of CASPT2 parameters:
   Before reduction:       49280
   After  reduction:       48704
 
 The contributions to the second order correlation energy in atomic units.
-----------------------------------------------------------------------------------------------------------------------------
  IT.      VJTU        VJTI        ATVX        AIVX        VJAI        BVAT        BJAT        BJAI        TOTAL       RNORM  
-----------------------------------------------------------------------------------------------------------------------------
   1     0.000000    0.000000   -0.000642    0.000000    0.000000   -0.001769    0.000000    0.000000   -0.002410    0.000581
   2     0.000000    0.000000   -0.000649    0.000000    0.000000   -0.001771    0.000000    0.000000   -0.002420    0.000099
   3     0.000000    0.000000   -0.000650    0.000000    0.000000   -0.001771    0.000000    0.000000   -0.002421    0.000026
   4     0.000000    0.000000   -0.000649    0.000000    0.000000   -0.001771    0.000000    0.000000   -0.002420    0.000004
-------------------------------------------------------------------------------------------------------------------
 
  FINAL CASPT2 RESULT:
 
  Correlation energy /Case, /Symm, and sums:
 VJTU      0.00000000  0.00000000
 VJTIP     0.00000000  0.00000000
 VJTIM     0.00000000  0.00000000
 ATVX     -0.00064924 -0.00064924
 AIVX      0.00000000  0.00000000
 VJAIP     0.00000000  0.00000000
 VJAIM     0.00000000  0.00000000
 BVATP    -0.00158964 -0.00158964
 BVATM    -0.00018140 -0.00018140
 BJATP     0.00000000  0.00000000
 BJATM     0.00000000  0.00000000
 BJAIP     0.00000000  0.00000000
 BJAIM     0.00000000  0.00000000
 Summed:  -0.00242028 -0.00242028
 
      Reference energy:          -3.9981178350
      E2 (Non-variational):      -0.0024202775
      E2 (Variational):          -0.0024202854
      Total energy:              -4.0005381204
      Residual norm:              0.0000008164
      Reference weight:           0.99844
 
      Contributions to the CASPT2 correlation energy
      Active & Virtual Only:         -0.0024202775
      One Inactive Excited:           0.0000000000
      Two Inactive Excited:           0.0000000000
 
 
++ Denominators, etc.
----------------------------------------------------------------------------------------------------
 Report on small energy denominators, large coefficients, and large energy contributions.
CASE  SYMM ACTIVE-MIX  NON-ACTIVE INDICES          DENOMINATOR     RHS VALUE       COEFFICIENT     CONTRIBUTION
--
 
   (Skipping property calculation,
    use PROP keyword to activate)
--
 
  Total CASPT2 energies:
::    CASPT2 Root  1     Total energy:     -4.00053812
 
  A NEW JOBIPH FILE NAMED 'JOBMIX' IS PREPARED.
********************************************************************************
--- Stop Module: caspt2 at Tue Oct 29 12:52:04 2024 /rc=_RC_ALL_IS_WELL_ ---
*** files: xmldump
    saved to directory /home/grierjones/DDCASPT2/hydrogen_comps/minimal_2e_2o/chains/even/H8_chain/H8_2.61

>>> EXPORT i = B

>>> EXPORT j = P

>>> IF (-FILE GMJ_e2_${i}_${j}.csv)
(Skipped)

>>> END FOREACH

>>> EXPORT j = M

>>> IF (-FILE GMJ_e2_${i}_${j}.csv)
(Skipped)

>>> END FOREACH

>>> END FOREACH

>>> EXPORT i = E

>>> EXPORT j = P

>>> IF (-FILE GMJ_e2_${i}_${j}.csv)
(Skipped)

>>> END FOREACH

>>> EXPORT j = M

>>> IF (-FILE GMJ_e2_${i}_${j}.csv)
(Skipped)

>>> END FOREACH

>>> END FOREACH

>>> EXPORT i = F

>>> EXPORT j = P

>>> IF (-FILE GMJ_e2_${i}_${j}.csv)

>>> COPY /tmp/H8_2.61/GMJ_RHS_F_P.csv /home/grierjones/DDCASPT2/hydrogen_comps/minimal_2e_2o/chains/even/H8_chain/H8_2.61/GMJ_RHS_F_P.csv

>>> COPY /tmp/H8_2.61/GMJ_IVECW_F_P.csv /home/grierjones/DDCASPT2/hydrogen_comps/minimal_2e_2o/chains/even/H8_chain/H8_2.61/GMJ_IVECW_F_P.csv

>>> COPY /tmp/H8_2.61/GMJ_e2_F_P.csv /home/grierjones/DDCASPT2/hydrogen_comps/minimal_2e_2o/chains/even/H8_chain/H8_2.61/GMJ_e2_F_P.csv

>>> END FOREACH

>>> EXPORT j = M

>>> IF (-FILE GMJ_e2_${i}_${j}.csv)

>>> COPY /tmp/H8_2.61/GMJ_RHS_F_M.csv /home/grierjones/DDCASPT2/hydrogen_comps/minimal_2e_2o/chains/even/H8_chain/H8_2.61/GMJ_RHS_F_M.csv

>>> COPY /tmp/H8_2.61/GMJ_IVECW_F_M.csv /home/grierjones/DDCASPT2/hydrogen_comps/minimal_2e_2o/chains/even/H8_chain/H8_2.61/GMJ_IVECW_F_M.csv

>>> COPY /tmp/H8_2.61/GMJ_e2_F_M.csv /home/grierjones/DDCASPT2/hydrogen_comps/minimal_2e_2o/chains/even/H8_chain/H8_2.61/GMJ_e2_F_M.csv

>>> END FOREACH

>>> END FOREACH

>>> EXPORT i = G

>>> EXPORT j = P

>>> IF (-FILE GMJ_e2_${i}_${j}.csv)
(Skipped)

>>> END FOREACH

>>> EXPORT j = M

>>> IF (-FILE GMJ_e2_${i}_${j}.csv)
(Skipped)

>>> END FOREACH

>>> END FOREACH

>>> EXPORT i = H

>>> EXPORT j = P

>>> IF (-FILE GMJ_e2_${i}_${j}.csv)
(Skipped)

>>> END FOREACH

>>> EXPORT j = M

>>> IF (-FILE GMJ_e2_${i}_${j}.csv)
(Skipped)

>>> END FOREACH

>>> END FOREACH

>>> EXPORT i = A

>>> IF (-FILE GMJ_e2_$i.csv)
(Skipped)

>>> END FOREACH

>>> EXPORT i = C

>>> IF (-FILE GMJ_e2_$i.csv)

>>> COPY /tmp/H8_2.61/GMJ_RHS_C.csv /home/grierjones/DDCASPT2/hydrogen_comps/minimal_2e_2o/chains/even/H8_chain/H8_2.61/GMJ_RHS_C.csv

>>> COPY /tmp/H8_2.61/GMJ_IVECW_C.csv /home/grierjones/DDCASPT2/hydrogen_comps/minimal_2e_2o/chains/even/H8_chain/H8_2.61/GMJ_IVECW_C.csv

>>> COPY /tmp/H8_2.61/GMJ_e2_C.csv /home/grierjones/DDCASPT2/hydrogen_comps/minimal_2e_2o/chains/even/H8_chain/H8_2.61/GMJ_e2_C.csv

>>> END FOREACH

>>> EXPORT i = D

>>> IF (-FILE GMJ_e2_$i.csv)
(Skipped)

>>> END FOREACH

.########################.
.# Non-zero return code #.
.########################.

    Timing: Wall=9.59 User=6.91 System=2.67
***************************************
*** WorkDir at /tmp/H8_2.61 cleaned ***
***************************************
