[Molden Format]
[N_Atoms]
                     2
[Atoms] (AU)
BE1         1      4           0.00000000      0.00000000      0.00000000
BE2         2      4           0.00000000      0.00000000      2.64561657
[Charge] (Mulliken)
  6.874500968478969E-013
 -6.936673457857978E-013
[GTO] (AU)
   1
   s  14
  2.262859900E+04  8.443999941E-05
  3.372318100E+03  4.601499968E-04
  7.603504000E+02  2.285389984E-03
  2.117404800E+02  9.648129932E-03
  6.722346800E+01  3.494469975E-02
  2.337217700E+01  1.061099893E-01
  8.721373000E+00  2.458240383E-01
  3.468091000E+00  3.862428773E-01
  1.452144000E+00  3.105526078E-01
  6.086150000E-01  6.415933955E-02
  2.576860000E-01 -2.265049984E-03
  1.041760000E-01 -5.217499963E-04
  4.242700000E-02 -8.757499938E-04
  1.484900000E-02  1.242199991E-04
   s  14
  2.262859900E+04 -1.586999994E-05
  3.372318100E+03 -8.656999968E-05
  7.603504000E+02 -4.302199984E-04
  2.117404800E+02 -1.825079993E-03
  6.722346800E+01 -6.682749976E-03
  2.337217700E+01 -2.095119992E-02
  8.721373000E+00 -5.200308981E-02
  3.468091000E+00 -9.849176964E-02
  1.452144000E+00 -1.355800695E-01
  6.086150000E-01 -6.429875976E-02
  2.576860000E-01  3.125414989E-01
  1.041760000E-01  6.270468577E-01
  4.242700000E-02  2.110231492E-01
  1.484900000E-02 -4.104669985E-03
   p   9
  3.371018400E+01  1.069960000E-03
  8.057649500E+00  6.828550001E-03
  2.836471400E+00  2.119065000E-02
  1.099965700E+00  5.843696001E-02
  4.433964000E-01  2.020920800E-01
  1.822264000E-01  4.582953101E-01
  7.572410000E-02  3.691239601E-01
  3.168540000E-02  6.611471001E-02
  1.108990000E-02  1.405160000E-03
 
   2
   s  14
  2.262859900E+04  8.443999941E-05
  3.372318100E+03  4.601499968E-04
  7.603504000E+02  2.285389984E-03
  2.117404800E+02  9.648129932E-03
  6.722346800E+01  3.494469975E-02
  2.337217700E+01  1.061099893E-01
  8.721373000E+00  2.458240383E-01
  3.468091000E+00  3.862428773E-01
  1.452144000E+00  3.105526078E-01
  6.086150000E-01  6.415933955E-02
  2.576860000E-01 -2.265049984E-03
  1.041760000E-01 -5.217499963E-04
  4.242700000E-02 -8.757499938E-04
  1.484900000E-02  1.242199991E-04
   s  14
  2.262859900E+04 -1.586999994E-05
  3.372318100E+03 -8.656999968E-05
  7.603504000E+02 -4.302199984E-04
  2.117404800E+02 -1.825079993E-03
  6.722346800E+01 -6.682749976E-03
  2.337217700E+01 -2.095119992E-02
  8.721373000E+00 -5.200308981E-02
  3.468091000E+00 -9.849176964E-02
  1.452144000E+00 -1.355800695E-01
  6.086150000E-01 -6.429875976E-02
  2.576860000E-01  3.125414989E-01
  1.041760000E-01  6.270468577E-01
  4.242700000E-02  2.110231492E-01
  1.484900000E-02 -4.104669985E-03
   p   9
  3.371018400E+01  1.069960000E-03
  8.057649500E+00  6.828550001E-03
  2.836471400E+00  2.119065000E-02
  1.099965700E+00  5.843696001E-02
  4.433964000E-01  2.020920800E-01
  1.822264000E-01  4.582953101E-01
  7.572410000E-02  3.691239601E-01
  3.168540000E-02  6.611471001E-02
  1.108990000E-02  1.405160000E-03
 
[MO]
Sym=     1a  
Ene=    -4.7896
Spin= Alpha
Occup=    1.00000
   1         0.70478983
   2         0.00188287
   3        -0.00000000
   4         0.00000000
   5         0.00438916
   6         0.70478983
   7         0.00188287
   8        -0.00000000
   9        -0.00000000
  10        -0.00438916
Sym=     1a  
Ene=    -4.7896
Spin= Beta
Occup=    1.00000
   1         0.70478983
   2         0.00188287
   3        -0.00000000
   4         0.00000000
   5         0.00438916
   6         0.70478983
   7         0.00188287
   8        -0.00000000
   9        -0.00000000
  10        -0.00438916
Sym=     2a  
Ene=    -4.7771
Spin= Alpha
Occup=    1.00000
   1        -0.71094841
   2        -0.01091980
   3        -0.00000000
   4         0.00000000
   5        -0.00632868
   6         0.71094841
   7         0.01091980
   8        -0.00000000
   9         0.00000000
  10        -0.00632868
Sym=     2a  
Ene=    -4.7771
Spin= Beta
Occup=    1.00000
   1        -0.71094841
   2        -0.01091980
   3        -0.00000000
   4         0.00000000
   5        -0.00632868
   6         0.71094841
   7         0.01091980
   8        -0.00000000
   9         0.00000000
  10        -0.00632868
Sym=     3a  
Ene=    -0.4812
Spin= Alpha
Occup=    1.00000
   1        -0.11051231
   2         0.45388578
   3         0.00000000
   4        -0.00000000
   5         0.24027546
   6        -0.11051231
   7         0.45388578
   8        -0.00000000
   9         0.00000000
  10        -0.24027546
Sym=     3a  
Ene=    -0.4812
Spin= Beta
Occup=    1.00000
   1        -0.11051231
   2         0.45388578
   3         0.00000000
   4        -0.00000000
   5         0.24027546
   6        -0.11051231
   7         0.45388578
   8        -0.00000000
   9         0.00000000
  10        -0.24027546
Sym=     4a  
Ene=    -0.2073
Spin= Alpha
Occup=    1.00000
   1        -0.02071008
   2        -0.69494625
   3         0.00000000
   4         0.00000000
   5         0.33118861
   6         0.02071008
   7         0.69494625
   8         0.00000000
   9         0.00000000
  10         0.33118861
Sym=     4a  
Ene=    -0.2073
Spin= Beta
Occup=    1.00000
   1        -0.02071008
   2        -0.69494625
   3         0.00000000
   4         0.00000000
   5         0.33118861
   6         0.02071008
   7         0.69494625
   8         0.00000000
   9         0.00000000
  10         0.33118861
Sym=     5a  
Ene=    -0.0208
Spin= Alpha
Occup=    0.00000
   1         0.00000000
   2        -0.00000000
   3        -0.21925700
   4         0.51686089
   5        -0.00000000
   6         0.00000000
   7         0.00000000
   8        -0.21925700
   9         0.51686089
  10         0.00000000
Sym=     5a  
Ene=    -0.0208
Spin= Beta
Occup=    0.00000
   1         0.00000000
   2        -0.00000000
   3        -0.21925700
   4         0.51686089
   5        -0.00000000
   6         0.00000000
   7         0.00000000
   8        -0.21925700
   9         0.51686089
  10         0.00000000
Sym=     6a  
Ene=    -0.0208
Spin= Alpha
Occup=    0.00000
   1         0.00000000
   2         0.00000000
   3         0.51686089
   4         0.21925700
   5        -0.00000000
   6        -0.00000000
   7        -0.00000000
   8         0.51686089
   9         0.21925700
  10        -0.00000000
Sym=     6a  
Ene=    -0.0208
Spin= Beta
Occup=    0.00000
   1         0.00000000
   2         0.00000000
   3         0.51686089
   4         0.21925700
   5        -0.00000000
   6        -0.00000000
   7        -0.00000000
   8         0.51686089
   9         0.21925700
  10        -0.00000000
Sym=     7a  
Ene=     0.0439
Spin= Alpha
Occup=    0.00000
   1         0.10684481
   2         0.38350728
   3        -0.00000000
   4        -0.00000000
   5        -0.75540333
   6         0.10684481
   7         0.38350728
   8         0.00000000
   9        -0.00000000
  10         0.75540333
Sym=     7a  
Ene=     0.0439
Spin= Beta
Occup=    0.00000
   1         0.10684481
   2         0.38350728
   3        -0.00000000
   4        -0.00000000
   5        -0.75540333
   6         0.10684481
   7         0.38350728
   8         0.00000000
   9        -0.00000000
  10         0.75540333
Sym=     8a  
Ene=     0.2419
Spin= Alpha
Occup=    0.00000
   1         0.00000000
   2         0.00000000
   3         0.17415828
   4        -1.08534851
   5         0.00000000
   6         0.00000000
   7        -0.00000000
   8        -0.17415828
   9         1.08534851
  10         0.00000000
Sym=     8a  
Ene=     0.2419
Spin= Beta
Occup=    0.00000
   1         0.00000000
   2         0.00000000
   3         0.17415828
   4        -1.08534851
   5         0.00000000
   6         0.00000000
   7        -0.00000000
   8        -0.17415828
   9         1.08534851
  10         0.00000000
Sym=     9a  
Ene=     0.2419
Spin= Alpha
Occup=    0.00000
   1        -0.00000000
   2        -0.00000000
   3        -1.08534851
   4        -0.17415828
   5         0.00000000
   6        -0.00000000
   7         0.00000000
   8         1.08534851
   9         0.17415828
  10        -0.00000000
Sym=     9a  
Ene=     0.2419
Spin= Beta
Occup=    0.00000
   1        -0.00000000
   2        -0.00000000
   3        -1.08534851
   4        -0.17415828
   5         0.00000000
   6        -0.00000000
   7         0.00000000
   8         1.08534851
   9         0.17415828
  10        -0.00000000
Sym=    10a  
Ene=     0.9263
Spin= Alpha
Occup=    0.00000
   1         1.06468742
   2         4.43665630
   3        -0.00000000
   4        -0.00000000
   5         2.48943256
   6        -1.06468742
   7        -4.43665630
   8        -0.00000000
   9        -0.00000000
  10         2.48943256
Sym=    10a  
Ene=     0.9263
Spin= Beta
Occup=    0.00000
   1         1.06468742
   2         4.43665630
   3        -0.00000000
   4        -0.00000000
   5         2.48943256
   6        -1.06468742
   7        -4.43665630
   8        -0.00000000
   9        -0.00000000
  10         2.48943256
