[Molden Format]
[N_Atoms]
                     2
[Atoms] (AU)
LI1         1      3           0.00000000      0.00000000      0.00000000
O2          2      8           0.00000000      0.00000000      5.29123315
[Charge] (Mulliken)
  0.546456454184664     
 -0.546456454184732     
[GTO] (AU)
   1
   s  14
  9.497934400E+03  9.668999974E-05
  1.416811200E+03  6.087099984E-04
  3.214599400E+02  3.101519992E-03
  9.112416300E+01  1.266904997E-02
  2.999989100E+01  4.248012989E-02
  1.101763100E+01  1.150183297E-01
  4.372801000E+00  2.398650094E-01
  1.831256000E+00  3.584300090E-01
  8.022610000E-01  3.048527792E-01
  3.626480000E-01  8.824261976E-02
  1.139950000E-01 -8.445899977E-04
  5.123700000E-02 -7.943959979E-03
  2.246800000E-02 -3.764419990E-03
  7.860000000E-03 -8.868999976E-05
   s  14
  9.497934400E+03 -1.244999993E-05
  1.416811200E+03 -7.838999954E-05
  3.214599400E+02 -4.007099976E-04
  9.112416300E+01 -1.645249990E-03
  2.999989100E+01 -5.634599967E-03
  1.101763100E+01 -1.590780991E-02
  4.372801000E+00 -3.612581979E-02
  1.831256000E+00 -6.459927962E-02
  8.022610000E-01 -1.008321794E-01
  3.626480000E-01 -9.757613942E-02
  1.139950000E-01  2.301215886E-01
  5.123700000E-02  6.102389764E-01
  2.246800000E-02  2.849406083E-01
  7.860000000E-03  4.026899976E-03
   p   9
  1.311950400E+01  1.524940000E-03
  3.077424200E+00  8.314830000E-03
  1.098800500E+00  1.933203000E-02
  4.357784000E-01  4.934293000E-02
  1.802432000E-01  1.623554000E-01
  7.613330000E-02  3.847505400E-01
  3.254650000E-02  4.336100400E-01
  1.401820000E-02  1.287005900E-01
  4.906400000E-03 -1.018520000E-03
 
   2
   s  14
  1.053749500E+05  1.238600013E-04
  1.567924000E+04  5.120100053E-04
  3.534544700E+03  2.152910022E-03
  9.873651600E+02  8.528440089E-03
  3.159787500E+02  3.018049031E-02
  1.116542800E+02  9.099702095E-02
  4.269945100E+01  2.177936423E-01
  1.739559600E+01  3.686245738E-01
  7.438309000E+00  3.366707335E-01
  3.222862000E+00  9.657630101E-02
  1.253877000E+00  2.144520022E-03
  4.951550000E-01  1.194350012E-03
  1.916650000E-01  5.390200056E-04
  6.708300000E-02  2.103400022E-04
   s  14
  1.053749500E+05 -2.815000008E-05
  1.567924000E+04 -1.163000003E-04
  3.534544700E+03 -4.909200013E-04
  9.873651600E+02 -1.946160005E-03
  3.159787500E+02 -7.005300019E-03
  1.116542800E+02 -2.167814006E-02
  4.269945100E+01 -5.641213015E-02
  1.739559600E+01 -1.127053003E-01
  7.438309000E+00 -1.589119704E-01
  3.222862000E+00 -3.355083009E-02
  1.253877000E+00  3.531902810E-01
  4.951550000E-01  5.534199315E-01
  1.916650000E-01  2.301839106E-01
  6.708300000E-02  1.127267003E-02
   p   9
  2.000000000E+02  9.173000030E-04
  4.653336700E+01  7.377140024E-03
  1.462180900E+01  3.483515011E-02
  5.313064000E+00  1.144397004E-01
  2.102525000E+00  2.554966408E-01
  8.502230000E-01  3.722557412E-01
  3.375970000E-01  3.323314911E-01
  1.288920000E-01  1.400847905E-01
  4.511200000E-02  2.395784008E-02
 
[MO]
Sym=     1a  
Ene=   -20.2870
Spin= Alpha
Occup=    1.00000
   1        -0.00001918
   2        -0.00031799
   3        -0.00000000
   4        -0.00000000
   5        -0.00047823
   6         1.00001552
   7         0.00147158
   8        -0.00000000
   9        -0.00000000
  10        -0.00048394
Sym=     1a  
Ene=   -20.2560
Spin= Beta
Occup=    1.00000
   1        -0.00001623
   2        -0.00019565
   3        -0.00000000
   4        -0.00000000
   5        -0.00027587
   6         1.00000955
   7        -0.00023125
   8        -0.00000000
   9        -0.00000000
  10        -0.00044108
Sym=     2a  
Ene=    -2.5450
Spin= Alpha
Occup=    1.00000
   1         0.99991521
   2         0.01217426
   3         0.00000000
   4         0.00000000
   5        -0.00185513
   6         0.00004660
   7         0.00085287
   8         0.00000000
   9         0.00000000
  10        -0.00051477
Sym=     2a  
Ene=    -2.5434
Spin= Beta
Occup=    1.00000
   1         0.99991349
   2         0.01229905
   3         0.00000000
   4         0.00000000
   5        -0.00193024
   6         0.00004791
   7         0.00083162
   8         0.00000000
   9         0.00000000
  10        -0.00052211
Sym=     3a  
Ene=    -1.0599
Spin= Alpha
Occup=    1.00000
   1         0.00293920
   2        -0.01958666
   3        -0.00000000
   4         0.00000000
   5        -0.02072378
   6         0.00208641
   7        -0.99130749
   8        -0.00000000
   9        -0.00000000
  10         0.00259772
Sym=     3a  
Ene=    -0.9211
Spin= Beta
Occup=    1.00000
   1         0.00302485
   2        -0.02874013
   3        -0.00000000
   4         0.00000000
   5        -0.03485482
   6         0.00094483
   7        -0.98568639
   8        -0.00000000
   9        -0.00000000
  10         0.00481893
Sym=     4a  
Ene=    -0.4026
Spin= Alpha
Occup=    1.00000
   1         0.00000000
   2        -0.00000000
   3         0.03306608
   4        -0.00927162
   5        -0.00000000
   6         0.00000000
   7         0.00000000
   8         0.95915392
   9        -0.26894371
  10         0.00000000
Sym=     4a  
Ene=    -0.2823
Spin= Beta
Occup=    1.00000
   1        -0.00000000
   2         0.00000000
   3         0.02590899
   4         0.09240115
   5         0.00000000
   6        -0.00000000
   7        -0.00000000
   8         0.26628283
   9         0.94966422
  10        -0.00000000
Sym=     5a  
Ene=    -0.3215
Spin= Alpha
Occup=    1.00000
   1        -0.00000000
   2         0.00000000
   3         0.01920094
   4         0.06847772
   5         0.00000000
   6        -0.00000000
   7        -0.00000000
   8         0.26747876
   9         0.95392937
  10        -0.00000000
Sym=     5a  
Ene=    -0.2619
Spin= Beta
Occup=    1.00000
   1         0.01536993
   2        -0.27149195
   3         0.00000000
   4         0.00000000
   5        -0.16208970
   6         0.00813317
   7         0.10637722
   8         0.00000000
   9         0.00000000
  10         0.90247127
Sym=     6a  
Ene=    -0.2386
Spin= Alpha
Occup=    1.00000
   1         0.01599907
   2        -0.42059528
   3        -0.00000000
   4         0.00000000
   5        -0.19010304
   6         0.01071277
   7         0.12977018
   8        -0.00000000
   9         0.00000000
  10         0.82520098
Sym=     6a  
Ene=    -0.0182
Spin= Beta
Occup=    0.00000
   1        -0.00876475
   2         0.84312920
   3        -0.00000000
   4        -0.00000000
   5        -0.51744035
   6         0.00194632
   7         0.00332755
   8         0.00000000
   9         0.00000000
  10         0.18915920
Sym=     7a  
Ene=    -0.0205
Spin= Alpha
Occup=    0.00000
   1        -0.00678237
   2         0.79610679
   3        -0.00000000
   4        -0.00000000
   5        -0.54869677
   6         0.00340460
   7         0.02024771
   8        -0.00000000
   9         0.00000000
  10         0.28674879
Sym=     7a  
Ene=     0.0474
Spin= Beta
Occup=    0.00000
   1        -0.00000000
   2        -0.00000000
   3         0.95798325
   4        -0.26861546
   5        -0.00000000
   6        -0.00000000
   7        -0.00000000
   8         0.04181760
   9        -0.01172552
  10         0.00000000
Sym=     8a  
Ene=     0.0462
Spin= Alpha
Occup=    0.00000
   1        -0.00000000
   2        -0.00000000
   3         0.96669295
   4        -0.27105763
   5         0.00000000
   6        -0.00000000
   7        -0.00000000
   8        -0.12494950
   9         0.03503544
  10         0.00000000
Sym=     8a  
Ene=     0.0545
Spin= Beta
Occup=    0.00000
   1        -0.00000000
   2         0.00000000
   3         0.26997579
   4         0.96283469
   5        -0.00000000
   6         0.00000000
   7         0.00000000
   8        -0.05149424
   9        -0.18364773
  10         0.00000000
Sym=     9a  
Ene=     0.0488
Spin= Alpha
Occup=    0.00000
   1        -0.00000000
   2         0.00000000
   3         0.27053563
   4         0.96483129
   5        -0.00000000
   6         0.00000000
   7         0.00000000
   8        -0.04486996
   9        -0.16002305
  10         0.00000000
Sym=     9a  
Ene=     0.1496
Spin= Beta
Occup=    0.00000
   1        -0.00199942
   2        -0.50558380
   3        -0.00000000
   4        -0.00000000
   5        -0.89272488
   6         0.02938878
   7         0.34402220
   8         0.00000000
   9        -0.00000000
  10        -0.42549308
Sym=    10a  
Ene=     0.1483
Spin= Alpha
Occup=    0.00000
   1        -0.00348730
   2        -0.47952959
   3         0.00000000
   4        -0.00000000
   5        -0.86865039
   6         0.02814044
   7         0.31829728
   8         0.00000000
   9         0.00000000
  10        -0.51779810
Sym=    10a  
Ene=     0.3951
Spin= Beta
Occup=    0.00000
   1         0.00000000
   2         0.00000000
   3        -0.13362900
   4         0.03746915
   5         0.00000000
   6        -0.00000000
   7        -0.00000000
   8         0.96635392
   9        -0.27096257
  10         0.00000000
