[Molden Format]
[N_Atoms]
                     2
[Atoms] (AU)
BE1         1      4           0.00000000      0.00000000      0.00000000
N2          2      7           0.00000000      0.00000000      2.45664396
[Charge] (Mulliken)
  0.335633132405882     
 -0.335633132405953     
[GTO] (AU)
   1
   s  14
  2.262859900E+04  8.443999941E-05
  3.372318100E+03  4.601499968E-04
  7.603504000E+02  2.285389984E-03
  2.117404800E+02  9.648129932E-03
  6.722346800E+01  3.494469975E-02
  2.337217700E+01  1.061099893E-01
  8.721373000E+00  2.458240383E-01
  3.468091000E+00  3.862428773E-01
  1.452144000E+00  3.105526078E-01
  6.086150000E-01  6.415933955E-02
  2.576860000E-01 -2.265049984E-03
  1.041760000E-01 -5.217499963E-04
  4.242700000E-02 -8.757499938E-04
  1.484900000E-02  1.242199991E-04
   s  14
  2.262859900E+04 -1.586999994E-05
  3.372318100E+03 -8.656999968E-05
  7.603504000E+02 -4.302199984E-04
  2.117404800E+02 -1.825079993E-03
  6.722346800E+01 -6.682749976E-03
  2.337217700E+01 -2.095119992E-02
  8.721373000E+00 -5.200308981E-02
  3.468091000E+00 -9.849176964E-02
  1.452144000E+00 -1.355800695E-01
  6.086150000E-01 -6.429875976E-02
  2.576860000E-01  3.125414989E-01
  1.041760000E-01  6.270468577E-01
  4.242700000E-02  2.110231492E-01
  1.484900000E-02 -4.104669985E-03
   p   9
  3.371018400E+01  1.069960000E-03
  8.057649500E+00  6.828550001E-03
  2.836471400E+00  2.119065000E-02
  1.099965700E+00  5.843696001E-02
  4.433964000E-01  2.020920800E-01
  1.822264000E-01  4.582953101E-01
  7.572410000E-02  3.691239601E-01
  3.168540000E-02  6.611471001E-02
  1.108990000E-02  1.405160000E-03
 
   2
   s  14
  7.476171500E+04  1.182599996E-04
  1.112365400E+04  5.172899983E-04
  2.512685700E+03  2.266659992E-03
  7.037772900E+02  9.145289970E-03
  2.254787900E+02  3.239342989E-02
  7.961581000E+01  9.770792967E-02
  3.023728300E+01  2.317036792E-01
  1.226362200E+01  3.768898887E-01
  5.265086000E+00  3.177420689E-01
  2.333471000E+00  8.211308973E-02
  9.018560000E-01  3.312089989E-03
  3.583360000E-01  3.720819988E-03
  1.410930000E-01  3.165419989E-03
  4.938300000E-02  4.595799985E-04
   s  14
  7.476171500E+04 -2.707000010E-05
  1.112365400E+04 -1.183700004E-04
  2.512685700E+03 -5.203800020E-04
  7.037772900E+02 -2.102930008E-03
  2.254787900E+02 -7.568200028E-03
  7.961581000E+01 -2.346767009E-02
  3.023728300E+01 -6.042901023E-02
  1.226362200E+01 -1.170549104E-01
  5.265086000E+00 -1.555321506E-01
  2.333471000E+00 -2.468935009E-02
  9.018560000E-01  3.625054514E-01
  3.583360000E-01  5.550845021E-01
  1.410930000E-01  2.148376908E-01
  4.938300000E-02  8.983850034E-03
   p   9
  1.266665700E+02  1.233630000E-03
  2.983738900E+01  9.493409996E-03
  9.394038000E+00  4.293961998E-02
  3.405104000E+00  1.362925399E-01
  1.350000000E+00  2.921362499E-01
  5.576960000E-01  3.887887598E-01
  2.324490000E-01  2.946801399E-01
  9.426400000E-02  8.012875997E-02
  3.299200000E-02  5.405199998E-04
 
[MO]
Sym=     1a  
Ene=   -15.6040
Spin= Alpha
Occup=    1.00000
   1        -0.00102186
   2        -0.00350219
   3         0.00000000
   4         0.00000000
   5        -0.00282386
   6         1.00050720
   7         0.00075512
   8        -0.00000000
   9        -0.00000000
  10        -0.00159097
Sym=     1a  
Ene=   -15.5310
Spin= Beta
Occup=    1.00000
   1        -0.00046473
   2        -0.00163295
   3         0.00000000
   4         0.00000000
   5        -0.00110467
   6         1.00019118
   7        -0.00578605
   8        -0.00000000
   9        -0.00000000
  10        -0.00113888
Sym=     2a  
Ene=    -4.7432
Spin= Alpha
Occup=    1.00000
   1         0.99832192
   2         0.00113168
   3         0.00000000
   4         0.00000000
   5         0.00121727
   6        -0.00123652
   7         0.00639835
   8        -0.00000000
   9        -0.00000000
  10        -0.00714082
Sym=     2a  
Ene=    -4.7576
Spin= Beta
Occup=    1.00000
   1         0.99876592
   2         0.00217095
   3         0.00000000
   4         0.00000000
   5         0.00018169
   6        -0.00109590
   7         0.00562768
   8        -0.00000000
   9        -0.00000000
  10        -0.00474859
Sym=     3a  
Ene=    -1.1810
Spin= Alpha
Occup=    1.00000
   1         0.10760867
   2        -0.00797887
   3        -0.00000000
   4        -0.00000000
   5        -0.05005493
   6         0.00285987
   7        -0.96540546
   8         0.00000000
   9         0.00000000
  10         0.10652635
Sym=     3a  
Ene=    -0.9066
Spin= Beta
Occup=    1.00000
   1        -0.11606947
   2         0.11242515
   3        -0.00000000
   4        -0.00000000
   5         0.11607261
   6        -0.01201212
   7         0.84131468
   8         0.00000000
   9         0.00000000
  10        -0.23697062
Sym=     4a  
Ene=    -0.6469
Spin= Alpha
Occup=    1.00000
   1        -0.13373979
   2         0.06521144
   3         0.00000000
   4         0.00000000
   5         0.12578199
   6        -0.01714442
   7        -0.20751227
   8         0.00000000
   9         0.00000000
  10        -0.96733123
Sym=     4a  
Ene=    -0.3864
Spin= Beta
Occup=    1.00000
   1         0.00000000
   2        -0.00000000
   3         0.42686265
   4         0.18814750
   5        -0.00000000
   6         0.00000000
   7         0.00000000
   8         0.67151806
   9         0.29598383
  10         0.00000000
Sym=     5a  
Ene=    -0.5863
Spin= Alpha
Occup=    1.00000
   1         0.00000000
   2        -0.00000000
   3        -0.05569282
   4         0.12635398
   5        -0.00000000
   6         0.00000000
   7         0.00000000
   8        -0.38012093
   9         0.86240544
  10         0.00000000
Sym=     5a  
Ene=    -0.3264
Spin= Beta
Occup=    1.00000
   1        -0.01057831
   2        -0.85666940
   3        -0.00000000
   4        -0.00000000
   5         0.51468235
   6         0.00276719
   7         0.19363009
   8        -0.00000000
   9        -0.00000000
  10         0.02692689
Sym=     6a  
Ene=    -0.5318
Spin= Alpha
Occup=    1.00000
   1         0.00000000
   2        -0.00000000
   3         0.14861066
   4         0.06550286
   5        -0.00000000
   6         0.00000000
   7         0.00000000
   8         0.85152950
   9         0.37532716
  10         0.00000000
Sym=     6a  
Ene=     0.0036
Spin= Beta
Occup=    0.00000
   1        -0.00000000
   2        -0.00000000
   3        -0.30921561
   4         0.70153787
   5         0.00000000
   6         0.00000000
   7         0.00000000
   8        -0.17127402
   9         0.38858067
  10        -0.00000000
Sym=     7a  
Ene=     0.0917
Spin= Alpha
Occup=    0.00000
   1         0.04656752
   2         0.96013104
   3        -0.00000000
   4        -0.00000000
   5        -0.41741649
   6        -0.01810351
   7        -0.20807712
   8         0.00000000
   9         0.00000000
  10         0.19409287
Sym=     7a  
Ene=     0.1464
Spin= Beta
Occup=    0.00000
   1        -0.08788989
   2         0.03919585
   3         0.00000000
   4         0.00000000
   5         0.38764657
   6        -0.04426759
   7        -0.51450324
   8        -0.00000000
   9        -0.00000000
  10        -0.86427173
Sym=     8a  
Ene=     0.2037
Spin= Alpha
Occup=    0.00000
   1         0.00000000
   2        -0.00000000
   3         0.42802215
   4        -0.97108211
   5         0.00000000
   6        -0.00000000
   7        -0.00000000
   8        -0.20448162
   9         0.46392096
  10         0.00000000
Sym=     8a  
Ene=     0.2124
Spin= Beta
Occup=    0.00000
   1        -0.00000000
   2         0.00000000
   3        -0.88133653
   4        -0.38846515
   5         0.00000000
   6        -0.00000000
   7        -0.00000000
   8         0.71276174
   9         0.31416274
  10        -0.00000000
Sym=     9a  
Ene=     0.2266
Spin= Alpha
Occup=    0.00000
   1         0.00000000
   2        -0.00000000
   3        -0.96792596
   4        -0.42663102
   5         0.00000000
   6        -0.00000000
   7         0.00000000
   8         0.48359416
   9         0.21315295
  10         0.00000000
Sym=     9a  
Ene=     0.3376
Spin= Beta
Occup=    0.00000
   1         0.00000000
   2         0.00000000
   3         0.30114840
   4        -0.68323525
   5         0.00000000
   6        -0.00000000
   7        -0.00000000
   8        -0.39619423
   9         0.89887200
  10         0.00000000
Sym=    10a  
Ene=     0.4938
Spin= Alpha
Occup=    0.00000
   1        -0.18667926
   2        -0.96758417
   3        -0.00000000
   4        -0.00000000
   5        -1.33273328
   6         0.19580441
   7         1.25719259
   8         0.00000000
   9         0.00000000
  10        -0.52014807
Sym=    10a  
Ene=     0.5188
Spin= Beta
Occup=    0.00000
   1        -0.21044977
   2        -1.05562063
   3        -0.00000000
   4        -0.00000000
   5        -1.24101115
   6         0.19362392
   7         1.26049915
   8         0.00000000
   9         0.00000000
  10        -0.67192823
