[Molden Format]
[N_Atoms]
                     2
[Atoms] (AU)
B1          1      5           0.00000000      0.00000000      0.00000000
LI2         2      3           0.00000000      0.00000000      5.10226054
[Charge] (Mulliken)
 -0.197576465112148     
  0.197576465112148     
[GTO] (AU)
   1
   s  14
  3.336021700E+04  1.039699991E-04
  4.972095200E+03  5.254399956E-04
  1.125641700E+03  2.509059979E-03
  3.164913600E+02  1.031887991E-02
  1.020072600E+02  3.636632969E-02
  3.629587300E+01  1.064607991E-01
  1.397141000E+01  2.403999880E-01
  5.741156000E+00  3.748581168E-01
  2.494268000E+00  3.100066974E-01
  1.114202000E+00  7.922455933E-02
  4.215490000E-01 -4.947589958E-03
  1.696330000E-01 -7.737119935E-03
  6.853500000E-02 -1.501079987E-03
  2.398700000E-02 -1.333299989E-04
   s  14
  3.336021700E+04 -2.030000008E-05
  4.972095200E+03 -1.025700004E-04
  1.125641700E+03 -4.911300020E-04
  3.164913600E+02 -2.026570008E-03
  1.020072600E+02 -7.261010030E-03
  3.629587300E+01 -2.197722009E-02
  1.397141000E+01 -5.408428022E-02
  5.741156000E+00 -1.022402604E-01
  2.494268000E+00 -1.423595206E-01
  1.114202000E+00 -4.658690019E-02
  4.215490000E-01  3.799402916E-01
  1.696330000E-01  5.890463624E-01
  6.853500000E-02  1.749075107E-01
  2.398700000E-02 -1.142030005E-03
   p   9
  5.500000000E+01  1.229800005E-03
  1.336610100E+01  8.827380035E-03
  4.135394000E+00  3.843340015E-02
  1.481256000E+00  1.150031805E-01
  6.021360000E-01  2.733674011E-01
  2.556360000E-01  4.061972116E-01
  1.111510000E-01  3.014967912E-01
  4.764800000E-02  7.684809030E-02
  1.667700000E-02 -8.170000032E-06
 
   2
   s  14
  9.497934400E+03  9.668999974E-05
  1.416811200E+03  6.087099984E-04
  3.214599400E+02  3.101519992E-03
  9.112416300E+01  1.266904997E-02
  2.999989100E+01  4.248012989E-02
  1.101763100E+01  1.150183297E-01
  4.372801000E+00  2.398650094E-01
  1.831256000E+00  3.584300090E-01
  8.022610000E-01  3.048527792E-01
  3.626480000E-01  8.824261976E-02
  1.139950000E-01 -8.445899977E-04
  5.123700000E-02 -7.943959979E-03
  2.246800000E-02 -3.764419990E-03
  7.860000000E-03 -8.868999976E-05
   s  14
  9.497934400E+03 -1.244999993E-05
  1.416811200E+03 -7.838999954E-05
  3.214599400E+02 -4.007099976E-04
  9.112416300E+01 -1.645249990E-03
  2.999989100E+01 -5.634599967E-03
  1.101763100E+01 -1.590780991E-02
  4.372801000E+00 -3.612581979E-02
  1.831256000E+00 -6.459927962E-02
  8.022610000E-01 -1.008321794E-01
  3.626480000E-01 -9.757613942E-02
  1.139950000E-01  2.301215886E-01
  5.123700000E-02  6.102389764E-01
  2.246800000E-02  2.849406083E-01
  7.860000000E-03  4.026899976E-03
   p   9
  1.311950400E+01  1.524940000E-03
  3.077424200E+00  8.314830000E-03
  1.098800500E+00  1.933203000E-02
  4.357784000E-01  4.934293000E-02
  1.802432000E-01  1.623554000E-01
  7.613330000E-02  3.847505400E-01
  3.254650000E-02  4.336100400E-01
  1.401820000E-02  1.287005900E-01
  4.906400000E-03 -1.018520000E-03
 
[MO]
Sym=     1a  
Ene=    -7.5652
Spin= Alpha
Occup=    2.00000
   1         0.99992929
   2         0.01511685
   3        -0.00000000
   4         0.00000000
   5        -0.00004066
   6        -0.00005346
   7        -0.00040133
   8         0.00000000
   9        -0.00000000
  10         0.00054795
Sym=     2a  
Ene=    -2.5420
Spin= Alpha
Occup=    2.00000
   1         0.00000911
   2         0.00106039
   3        -0.00000000
   4        -0.00000000
   5         0.00029240
   6         0.99988553
   7         0.01277404
   8        -0.00000000
   9         0.00000000
  10         0.00101942
Sym=     3a  
Ene=    -0.4323
Spin= Alpha
Occup=    2.00000
   1        -0.02364642
   2         0.89723196
   3        -0.00000000
   4         0.00000000
   5         0.03420829
   6        -0.01973201
   7         0.12639973
   8         0.00000000
   9         0.00000000
  10        -0.11531852
Sym=     4a  
Ene=    -0.0243
Spin= Alpha
Occup=    1.00000
   1         0.00000000
   2         0.00000000
   3        -0.25261678
   4        -0.75454564
   5        -0.00000000
   6         0.00000000
   7        -0.00000000
   8        -0.14645832
   9        -0.43745900
  10        -0.00000000
Sym=     5a  
Ene=    -0.0000
Spin= Alpha
Occup=    1.00000
   1        -0.00000000
   2         0.00000000
   3         0.75454564
   4        -0.25261678
   5        -0.00000000
   6         0.00000000
   7        -0.00000000
   8         0.43745900
   9        -0.14645832
  10        -0.00000000
Sym=     6a  
Ene=    -0.0107
Spin= Alpha
Occup=    0.00000
   1        -0.00269302
   2        -0.16406656
   3        -0.00000000
   4        -0.00000000
   5         0.09780012
   6        -0.01348079
   7         0.89854020
   8         0.00000000
   9        -0.00000000
  10         0.39779021
Sym=     7a  
Ene=     0.0900
Spin= Alpha
Occup=    0.00000
   1         0.04535574
   2         0.57942197
   3         0.00000000
   4        -0.00000000
   5        -0.48413889
   6         0.01435496
   7        -0.24524678
   8        -0.00000000
   9         0.00000000
  10         0.82139071
Sym=     8a  
Ene=     0.1057
Spin= Alpha
Occup=    0.00000
   1         0.00000000
   2        -0.00000000
   3        -0.62589174
   4        -0.14541902
   5        -0.00000000
   6         0.00000000
   7        -0.00000000
   8         0.88912672
   9         0.20657875
  10        -0.00000000
Sym=     9a  
Ene=     0.1057
Spin= Alpha
Occup=    0.00000
   1         0.00000000
   2         0.00000000
   3        -0.14541902
   4         0.62589174
   5        -0.00000000
   6         0.00000000
   7        -0.00000000
   8         0.20657875
   9        -0.88912672
  10         0.00000000
Sym=    10a  
Ene=     0.2427
Spin= Alpha
Occup=    0.00000
   1         0.05216677
   2         0.55275531
   3         0.00000000
   4        -0.00000000
   5         0.95345273
   6        -0.04642600
   7        -0.59595674
   8         0.00000000
   9        -0.00000000
  10         0.73830480
