   This run of MOLCAS is using the pymolcas driver

                             OPE
                             OPE          NMOL  CASOP  ENMOLC A   SO
                 OPE        NMOLC        AS  OP EN  MO LC     AS  OP
                OPENM       OL CA        SO  PE NM  OL CA     SOP EN
                OP EN      MO   LC       AS  OP ENMOL  CASO   PENMOL
                OP  EN     MO   LC       AS  OP EN     MO     LC ASO
               OP   E  NMOL  C  AS       OP  EN MO     LC     AS  OP
               OP  E   NMO   LC AS        OPEN  MO     LCASOP EN   M
               O  PEN   MO  LCA  SO
            OPE   NMO   L   CAS    OP
        OPENMOL  CASOP     ENMOL   CASOPE
     OPENMOLCA   SOPENMOLCASOPEN   MOLCASOPE
    OPENMOLCAS   OP           EN   MOL    CAS
    OPENMOLCAS       OP  ENM        O     LCA
    OPENMOLCAS    OPEN  MOLCASO     P  E  NMO
    OPENMOLCAS     OP               E  N  MOL
    OPENMOLCA   SO           PENM   O  L  CAS    OPEN    MO    LCAS
    OPENMOLCA   SOP           ENM   O  L  CAS   OP  EN  MOLC  AS   O
    OPENMOLCA   SOPE           NM      O  LCA   S      OP  EN MO
    OPENMOLC                AS         O  PEN   M      OL  CA  SOPE
    OPENMO        LCASOPE  NMOL        C  ASO   P      ENMOLC     AS
    OPE     NMO      LCA  SO     P     E   NM   OL  CA SO  PE N   MO
          OPENMOLCA            SOPE   NMO        LCAS  O    P  ENMO
     OPENMOLCASOPENMOLCASOPENMOLCASOPENMOLCA
        OPENMOLCASOPENMOLCASOPENMOLCASOPE
            OPENMOLCASOPENMOLCASOPENM
               OPENMOLCASOPENMOLCA        version: 24.02
                   OPENMOLCASO
                       OPE                tag: 126-g611b04c8f

 OpenMolcas is free software; you can redistribute it and/or modify it
 under the terms of the GNU Lesser General Public License version 2.1.
 OpenMolcas is distributed in the hope that it will be useful, but it
 is provided "as is" and without any express or implied warranties.
 For more details see the full text of the license in the file
 LICENSE or in <http://www.gnu.org/licenses/>.

                 Copyright (C) The OpenMolcas Authors
           For the author list and the recommended citation,
                   consult the file CONTRIBUTORS.md

           *************************************************
           * pymolcas version py2.28                       *
           *   build c4a6d18ded8cb6cad61d2372a9abd97c      *
           *   (after the EMIL interpreter by V. Veryazov) *
           *************************************************

configuration info
------------------
Host name: debian (Linux)
C Compiler ID: GNU
C flags: -std=gnu99
Fortran Compiler ID: Intel
Fortran flags: -fpp -i8 -heap-arrays
Definitions: _MOLCAS_;_I8_;_LINUX_
Parallel: OFF (GA=OFF)


   ------------------------------------------------------------------
  |
  |              Project: 2.70
  |       Submitted from: /home/grierjones/DDCASPT2/delta_ML/BLi/2.70
  |         Scratch area: /tmp/2.70
  |      Save outputs to: /home/grierjones/DDCASPT2/delta_ML/BLi/2.70
  |               Molcas: /usr/local
  |
  | Scratch area is empty
  |
  |       MOLCAS_DRIVER = /usr/local/pymolcas
  | MOLCAS_KEEP_WORKDIR = NO
  |  MOLCAS_NEW_WORKDIR = YES
  |       MOLCAS_NPROCS = 1
  |       MOLCAS_SOURCE = /usr/local
  |    MOLCAS_STRUCTURE = 0
  |
   ------------------------------------------------------------------

++ ---------   Input file   ---------

&GATEWAY
coord=2.70.xyz
Basis = ANO-RCC-MB
Group = nosymm
End of Input

&SEWARD
End of Input

&SCF
UHF

&MBPT2
Frozen
0

&RASSCF
Title= RASSCF
FileOrb
/home/grierjones/DDCASPT2/delta_ML/BLi/2.60/2.60.RasOrb

NACTEL
2 0 0
Inactive
3
RAS2
2
Symmetry
1
Spin
1
orblisting
all
ITERation
200 100
CIMX
200
SDAV
500

&CASPT2
Imaginary Shift
0.0
Frozen
0

-- ----------------------------------

--- Start Module: gateway at Thu Apr 25 13:36:58 2024 ---
 
()()()()()()()()()()()()()()()()()()()()()()()()()()()()()()()()()()()()()()()()()()()()()()()()()()

                                              &GATEWAY

                                   only a single process is used
                       available to each process: 2.0 GB of memory, 1 thread?
                                             pid: 97147
()()()()()()()()()()()()()()()()()()()()()()()()()()()()()()()()()()()()()()()()()()()()()()()()()()
 
 
++    Symmetry information:
      ---------------------
 
                    Character Table for C1 
 
                             E  
                    a        1  x, y, xy, Rz, z, xz, Ry, yz, Rx, I
--
 
 
++    Basis set information:
      ----------------------
 
 
      Basis set label: B.ANO-RCC...2S1P.
 
      Electronic valence basis set:
      ------------------
      Associated Effective Charge   5.000000 au
      Associated Actual Charge      5.000000 au
      Nuclear Model: Point charge
 
      Shell  nPrim  nBasis  Cartesian Spherical Contaminant
         s      14       2        X                  
         p       9       1        X                  
 
 
      Basis set label: LI.ANO-RCC...2S1P.
 
      Electronic valence basis set:
      ------------------
      Associated Effective Charge   3.000000 au
      Associated Actual Charge      3.000000 au
      Nuclear Model: Point charge
 
      Shell  nPrim  nBasis  Cartesian Spherical Contaminant
         s      14       2        X                  
         p       9       1        X                  
--
 
 
++    Molecular structure info:
      -------------------------
 
                    ************************************************ 
                    **** Cartesian Coordinates / Bohr, Angstrom **** 
                    ************************************************ 
 
     Center  Label                x              y              z                     x              y              z
        1      B1               0.000000       0.000000       0.000000              0.000000       0.000000       0.000000
        2      LI2              0.000000       0.000000       5.102261              0.000000       0.000000       2.700000
--
 
 
            Nuclear Potential Energy              2.93987339 au
 
--- Stop Module: gateway at Thu Apr 25 13:36:58 2024 /rc=_RC_ALL_IS_WELL_ ---
*** files: xmldump
    saved to directory /home/grierjones/DDCASPT2/delta_ML/BLi/2.70

--- Start Module: seward at Thu Apr 25 13:36:58 2024 ---
 
()()()()()()()()()()()()()()()()()()()()()()()()()()()()()()()()()()()()()()()()()()()()()()()()()()

                                              &SEWARD

                                   only a single process is used
                       available to each process: 2.0 GB of memory, 1 thread?
                                             pid: 97151
()()()()()()()()()()()()()()()()()()()()()()()()()()()()()()()()()()()()()()()()()()()()()()()()()()
 
               SEWARD will generate:
                  Multipole Moment integrals up to order  2
                  Kinetic Energy integrals
                  Nuclear Attraction integrals (point charge)
                  One-Electron Hamiltonian integrals
                  Velocity integrals
                  Relativistic Douglas-Kroll-Hess integrals:
                    - Parametrization         : EXP
                    - DKH order of Hamiltonian: 2
                    - DKH order of Properties : 0
                         - multipole moment operators
                         - electric potential operators
                         - contact operators
                  Orbital angular momentum around ( 0.0000  0.0000  1.9860 )
                  Velocity quadrupole around ( 0.0000  0.0000  1.9860 )
                  Atomic mean-field integrals
                  Two-Electron Repulsion integrals
 
                   Integrals are discarded if absolute value <: 1.00E-14
                   Integral cutoff threshold is set to       <: 1.00E-16
 
            Nuclear Potential Energy              2.93987339 au
 
 
      Basis set specifications :
      Symmetry species         a  
      Basis functions           10
 
 
      Input file to MOLDEN was generated!
 
--- Stop Module: seward at Thu Apr 25 13:36:59 2024 /rc=_RC_ALL_IS_WELL_ ---
*** files: 2.70.GssOrb 2.70.guessorb.h5 2.70.guessorb.molden xmldump
    saved to directory /home/grierjones/DDCASPT2/delta_ML/BLi/2.70

*** symbolic link created: INPORB -> 2.70.GssOrb
--- Start Module: scf at Thu Apr 25 13:36:59 2024 ---
 
()()()()()()()()()()()()()()()()()()()()()()()()()()()()()()()()()()()()()()()()()()()()()()()()()()

                                                &SCF

                                   only a single process is used
                       available to each process: 2.0 GB of memory, 1 thread?
                                             pid: 97156
()()()()()()()()()()()()()()()()()()()()()()()()()()()()()()()()()()()()()()()()()()()()()()()()()()
 
++    Input section:
      --------------
 
      Header of the integral files:
      
       Integrals generated by Gateway/Seward, Thu Apr 25 13:36:58 2024
 
 
      Cartesian coordinates in Angstrom:
      -----------------------------------------------------
      No.  Label        X            Y            Z        
      -----------------------------------------------------
       1   B1         0.00000000   0.00000000   0.00000000
       2   LI2        0.00000000   0.00000000   2.70000000
      -----------------------------------------------------
      Nuclear repulsion energy =    2.93987339
--
 
++    Orbital specifications:
      -----------------------
 
      Symmetry species               1
                                     a
      Frozen orbitals                0
      Occupied orbitals alpha        4
      Occupied orbitals beta         4
      Secondary orbitals alpha       6
      Secondary orbitals beta        6
      Deleted orbitals               0
      Total number of orbitals      10
      Number of basis functions     10
--
 
      Molecular charge                           0.000
 
++    Optimization specifications:
      ----------------------------
 
      SCF Algorithm: Conventional USCF
      D(i)-D(i-1) density differences are used
      Number of density matrices in core                 5
      Maximum number of NDDO SCF iterations            400
      Maximum number of HF SCF iterations              400
      Threshold for SCF energy change             1.00E-09
      Threshold for density matrix                1.00E-04
      Threshold for Fock matrix                   1.50E-04
      Threshold for linear dependence             1.00E-09
      Threshold at which DIIS is turned on        1.50E-01
      Maximum depth in the DIIS procedure                5
      Maximum depth in the BFGS Hessian update          30
      Threshold at which QNR/C2DIIS is turned on  7.50E-02
      Threshold for Norm(delta) (QNR/C2DIIS)      1.00E-03
      All orbitals punched on: UHFORB
--
 
      Input vectors read from INPORB
      Orbital file label: *Guess orbitals
 
 
++ Convergence information
                               UHF SCF        iterations: Energy and convergence statistics
 
Iter     Tot. SCF        One-elec.       Two-elec.     Energy      Max Dij or  Max Fij      DNorm      TNorm      AccCon     Time
         Energy          Energy          Energy        Change      Delta Norm                                                in Sec.
   1   -31.875260605   -48.976554723    14.161420724   0.00E+00    5.09E-01*   6.18E-02*    3.93E+00   9.57E+00   None         0.
   2   -31.934282432   -48.186930385    13.312774559  -5.90E-02*   1.08E-01*   2.14E-02*    1.38E+00   9.24E+00   EDIIS        0.
   3   -31.939421403   -48.331691728    13.452396930  -5.14E-03*   4.99E-02*   1.41E-02*    3.87E-01   9.30E+00   c2DIIS       0.
   4   -31.940397412   -48.290232186    13.409961380  -9.76E-04*   2.58E-02*   2.08E-03*    1.32E-01   9.28E+00   QNRc2DIIS    0.
   5   -31.940469533   -48.301722798    13.421379871  -7.21E-05*   1.67E-02*   1.24E-03*    4.75E-02   9.29E+00   QNRc2DIIS    0.
   6   -31.940485049   -48.300336030    13.419977587  -1.55E-05*   1.37E-03*   1.65E-04*    3.33E-02   9.29E+00   QNRc2DIIS    0.
   7   -31.940485233   -48.299767317    13.419408690  -1.84E-07*   6.62E-04    5.38E-05     2.34E-03   9.29E+00   QNRc2DIIS    0.
   8   -31.940485256   -48.299866557    13.419507907  -2.29E-08*   3.22E-05    1.21E-06     1.01E-03   9.29E+00   QNRc2DIIS    0.
   9   -31.940485256   -48.299887451    13.419528801  -1.84E-11    9.78E-06    5.57E-07     3.87E-05   9.29E+00   QNRc2DIIS    0.
 
       Convergence after   9 Macro Iterations
--
 
 *****************************************************************************************************************************
 *                                                                                                                           *
 *                                             SCF/KS-DFT Program, Final results                                             *
 *                                                                                                                           *
 *                                                                                                                           *
 *                                                                                                                           *
 *                                                       Final Results                                                       *
 *                                                                                                                           *
 *****************************************************************************************************************************
 
::    Total SCF energy                                -31.9404852560
      One-electron energy                             -48.2998874514
      Two-electron energy                              13.4195288015
      Nuclear repulsion energy                          2.9398733939
      Kinetic energy (interpolated)                    32.1732569280
      Virial theorem                                    0.9927650573
      Total spin, S(S+1)                               -0.0000000000
      Total spin, S                                    -0.0000000000
      Max non-diagonal density matrix element           0.0000068654
      Max non-diagonal Fock matrix element              0.0000002763
 
 
      All orbitals with orbital energies smaller than  E(LUMO)+0.5 are printed
 
++    Molecular orbitals:
      -------------------
 
      Title: UHF orbitals (alpha)

      Molecular orbitals for symmetry species 1: a  
 
          Orbital            1         2         3         4         5         6         7         8         9        10    
          Energy           -7.6200   -2.4614   -0.4636   -0.1854    0.0251    0.0513    0.0513    0.1666    0.1666    0.2008
          Occ. No.          1.0000    1.0000    1.0000    1.0000    0.0000    0.0000    0.0000    0.0000    0.0000    0.0000
 
        1 B1     1s         0.9999    0.0001   -0.0211   -0.0219    0.0150    0.0000   -0.0000   -0.0000   -0.0000    0.0645
        2 B1     2s         0.0146    0.0013    0.9222   -0.3409    0.0856    0.0000   -0.0000   -0.0000   -0.0000    0.7066
        3 B1     2px       -0.0000    0.0000   -0.0000    0.0000   -0.0000    0.2690   -0.1200   -0.9218   -0.3309   -0.0000
        4 B1     2py       -0.0000   -0.0000    0.0000   -0.0000   -0.0000    0.1200    0.2690   -0.3309    0.9218    0.0000
        5 B1     2pz        0.0014    0.0007    0.0164    0.6718   -0.4233   -0.0000   -0.0000   -0.0000   -0.0000    0.7235
        6 LI2    1s        -0.0001    0.9999   -0.0189   -0.0322    0.0086    0.0000    0.0000    0.0000    0.0000   -0.0387
        7 LI2    2s        -0.0006    0.0124    0.1103    0.5921    0.6688    0.0000    0.0000    0.0000    0.0000   -0.6548
        8 LI2    2px       -0.0000   -0.0000    0.0000    0.0000   -0.0000    0.8181   -0.3651    0.4644    0.1667    0.0000
        9 LI2    2py        0.0000    0.0000   -0.0000    0.0000   -0.0000    0.3651    0.8181    0.1667   -0.4644   -0.0000
       10 LI2    2pz        0.0007    0.0018   -0.0821   -0.1360    0.6430    0.0000    0.0000   -0.0000   -0.0000    0.9760
--
 
 
      Input file to MOLDEN was generated!
 
 
++    Static properties:
      ------------------
 
 
      LoProp Charges per center
 

                   B1       LI2   
      Nuclear      5.0000   3.0000
      Electronic  -5.1325  -2.8675
 
      Total       -0.1325   0.1325
--
 
 
      All orbitals with orbital energies smaller than  E(LUMO)+0.5 are printed
 
++    Molecular orbitals:
      -------------------
 
      Title: UHF orbitals (beta)

      Molecular orbitals for symmetry species 1: a  
 
          Orbital            1         2         3         4         5         6         7         8         9        10    
          Energy           -7.6200   -2.4614   -0.4636   -0.1854    0.0251    0.0513    0.0513    0.1666    0.1666    0.2008
          Occ. No.          1.0000    1.0000    1.0000    1.0000    0.0000    0.0000    0.0000    0.0000    0.0000    0.0000
 
        1 B1     1s         0.9999    0.0001   -0.0211   -0.0219    0.0150    0.0000   -0.0000   -0.0000   -0.0000    0.0645
        2 B1     2s         0.0146    0.0013    0.9222   -0.3409    0.0856    0.0000   -0.0000   -0.0000   -0.0000    0.7066
        3 B1     2px       -0.0000    0.0000   -0.0000    0.0000   -0.0000    0.2690   -0.1200   -0.9218   -0.3309   -0.0000
        4 B1     2py       -0.0000   -0.0000    0.0000   -0.0000   -0.0000    0.1200    0.2690   -0.3309    0.9218    0.0000
        5 B1     2pz        0.0014    0.0007    0.0164    0.6718   -0.4233   -0.0000   -0.0000   -0.0000   -0.0000    0.7235
        6 LI2    1s        -0.0001    0.9999   -0.0189   -0.0322    0.0086    0.0000    0.0000    0.0000    0.0000   -0.0387
        7 LI2    2s        -0.0006    0.0124    0.1103    0.5921    0.6688    0.0000    0.0000    0.0000    0.0000   -0.6548
        8 LI2    2px       -0.0000   -0.0000    0.0000    0.0000   -0.0000    0.8181   -0.3651    0.4644    0.1667    0.0000
        9 LI2    2py        0.0000    0.0000   -0.0000    0.0000   -0.0000    0.3651    0.8181    0.1667   -0.4644   -0.0000
       10 LI2    2pz        0.0007    0.0018   -0.0821   -0.1360    0.6430    0.0000    0.0000   -0.0000   -0.0000    0.9760
--
 
 
++    Molecular charges:
      ------------------
 
      Mulliken charges per centre and basis function type
      ---------------------------------------------------
 
                            B1                      LI2   
                     alpha        beta       alpha        beta
      1s           1.0001      1.0001      1.0002      1.0002
      2s           0.9500      0.9500      0.4288      0.4288
      2px          0.0000      0.0000      0.0000      0.0000
      2pz          0.5649      0.5649      0.0560      0.0560
      2py          0.0000      0.0000      0.0000      0.0000
      Total        2.5150      2.5150      1.4850      1.4850
      Total              5.0300                  2.9700
 
      Charge           -0.0300                  0.0300
 
      Total electronic charge=    8.000000
 
      Total            charge=   -0.000000
--
 
 
      Input file to MOLDEN was generated!
 
 
++    Static properties:
      ------------------
 
 
      LoProp Charges per center
 

                   B1       LI2   
      Nuclear      5.0000   3.0000
      Electronic  -5.1325  -2.8675
 
      Total       -0.1325   0.1325
--
 
 
++    Natural Bond Order analysis
      ---------------------------
      Based on LoProp computed density
      -------------------------------------------------------------------------------------
      Atom A       Atom B       Bond Order
        B1           LI2            0.761
      -------------------------------------------------------------------------------------
      NBO located      1.521 electrons involved in    1 bonds.
      NBO located      1.000 non-bonded electrons on atom B1        
      NBO located      0.996 non-bonded electrons on atom LI2       
      The remaining    0.675 electrons are to be considered as diffuse
--
 
 
++    Molecular orbitals:
      -------------------
 
      Title: Natural orbitals

      Molecular orbitals for symmetry species 1: a  
 
          Orbital            1         2         3         4         5         6         7         8         9        10    
          Energy           -7.6200   -2.4614   -0.4636   -0.1854    0.0251    0.0513    0.0513    0.1666    0.1666    0.2008
          Occ. No.          2.0000    2.0000    2.0000    2.0000    0.0000    0.0000    0.0000    0.0000    0.0000    0.0000
 
        1 B1     1s         0.9999    0.0001   -0.0211   -0.0218   -0.0150    0.0000   -0.0000   -0.0000    0.0000    0.0645
        2 B1     2s         0.0146    0.0013    0.9224   -0.3406   -0.0857    0.0000   -0.0000   -0.0000    0.0000    0.7064
        3 B1     2px       -0.0000    0.0000   -0.0000    0.0000    0.0000    0.2690   -0.1200   -0.9218    0.3309   -0.0000
        4 B1     2py       -0.0000   -0.0000    0.0000   -0.0000    0.0000    0.1200    0.2690   -0.3309   -0.9218    0.0000
        5 B1     2pz        0.0014    0.0007    0.0167    0.6719    0.4236   -0.0000   -0.0000   -0.0000    0.0000    0.7232
        6 LI2    1s        -0.0001    0.9999   -0.0189   -0.0322   -0.0086    0.0000    0.0000    0.0000   -0.0000   -0.0387
        7 LI2    2s        -0.0006    0.0124    0.1101    0.5920   -0.6685    0.0000    0.0000    0.0000   -0.0000   -0.6550
        8 LI2    2px       -0.0000   -0.0000    0.0000    0.0000    0.0000    0.8181   -0.3651    0.4644   -0.1667    0.0000
        9 LI2    2py        0.0000    0.0000   -0.0000    0.0000    0.0000    0.3651    0.8181    0.1667    0.4644   -0.0000
       10 LI2    2pz        0.0007    0.0018   -0.0818   -0.1354   -0.6431    0.0000    0.0000   -0.0000    0.0000    0.9761
--
 
 
++    Molecular properties:
      ---------------------
 
      Charge (e):
                      =   -0.0000
      Dipole Moment (Debye):
      Origin of the operator (Ang)=    0.0000    0.0000    0.0000
                   X= -1.8516E-13               Y= -1.6898E-14               Z=  3.5315E+00           Total=  3.5315E+00
      Quadrupole Moment (Debye*Ang):
      Origin of the operator (Ang)=    0.0000    0.0000    1.0509
                  XX= -1.3055E+01              XY= -2.4861E-28              XZ= -3.1420E-13              YY= -1.3055E+01
                  YZ= -7.3080E-15              ZZ= -8.1999E+00
      In traceless form (Debye*Ang)
                  XX= -2.4275E+00              XY= -3.7291E-28              XZ= -4.7130E-13              YY= -2.4275E+00
                  YZ= -1.0962E-14              ZZ=  4.8550E+00
--
 
 
      Input file to MOLDEN was generated!
 
 ###############################################################################
 ###############################################################################
 ###                                                                         ###
 ###                                                                         ###
 ###    WARNING: RunFile label nBas                                          ###
 ###    was used       87 times                                              ###
 ###                                                                         ###
 ###                                                                         ###
 ###############################################################################
 ###############################################################################
--- Stop Module: scf at Thu Apr 25 13:36:59 2024 /rc=_RC_ALL_IS_WELL_ ---
*** files: 2.70.LprOrb 2.70.LoProp.molden 2.70.scf.molden 2.70.scf.h5 2.70.UhfOrb 2.70.UnaOrb xmldump
    saved to directory /home/grierjones/DDCASPT2/delta_ML/BLi/2.70

*** symbolic link created: INPORB -> 2.70.UnaOrb
--- Start Module: mbpt2 at Thu Apr 25 13:36:59 2024 ---
 
()()()()()()()()()()()()()()()()()()()()()()()()()()()()()()()()()()()()()()()()()()()()()()()()()()

                                               &MBPT2

                                   only a single process is used
                       available to each process: 2.0 GB of memory, 1 thread?
                                             pid: 97159
()()()()()()()()()()()()()()()()()()()()()()()()()()()()()()()()()()()()()()()()()()()()()()()()()()
 
 
 ###############################################################################
 ###############################################################################
 ###                                                                         ###
 ###                                                                         ###
 ###    WARNING: MP2 implementation intended for RHF references only         ###
 ###                                                                         ###
 ###                                                                         ###
 ###############################################################################
 ###############################################################################
MBPT2 WARNING: Reference function according to RunFile:UHF-SCF 
I'll assume you know what you're doing and continue
 
 
WARNING!
Default frozen orbitals as non valence orbitals is overwritten by user input.
Default values:   2
 
 
      Cartesian coordinates in Angstrom:
      -----------------------------------------------------
      No.  Label        X            Y            Z        
      -----------------------------------------------------
       1   B1         0.00000000   0.00000000   0.00000000
       2   LI2        0.00000000   0.00000000   2.70000000
      -----------------------------------------------------
      Nuclear repulsion energy =    2.93987339
 
      Contents of RUNFILE file:
      -------------------------
 
      Symmetry species                           1
                                                 a
      Number of basis functions                 10
      Frozen occupied orbitals                   0
      Active occupied orbitals                   4
      Active external orbitals                   6
      Deleted external orbitals                  0
 
 
      Energies of the active occupied orbitals
 
      symmetry species 1                    -7.619995     -2.461386     -0.463620     -0.185413
 
 
      Energies of the active external orbitals
 
      symmetry species 1                     0.025083      0.051339      0.051339      0.166592      0.166592
                                             0.200842
 
 
      ********************************************************************************************************
      *                                               Results                                                *
      ********************************************************************************************************
 
 Conventional algorithm used...

       SCF energy                           =      -31.9404852560 a.u.
       Second-order correlation energy      =       -0.0370285363 a.u.

       Total energy                         =      -31.9775137923 a.u.
       Reference weight ( Cref**2 )         =        0.95373
 
::    Total MBPT2 energy                              -31.9775137923
 
 
       Zeroth-order energy (E0)             =      -18.5209564546 a.u.
 
       Shanks-type energy S1(E)             =      -31.9776162480 a.u.
 
 


       Data processing and timing information:

       Section                                              time(sec)
                                                          CPU  Elapsed

      Input data processing                              0.02      0.03
      Transformation of integrals                        0.00      0.00
      MBPT2 calculations (BJAI)                          0.00      0.00
      Total MBPT2 calculations                           0.02      0.03
 
 
--- Stop Module: mbpt2 at Thu Apr 25 13:36:59 2024 /rc=_RC_ALL_IS_WELL_ ---
*** files: xmldump
    saved to directory /home/grierjones/DDCASPT2/delta_ML/BLi/2.70

*** symbolic link created: INPORB -> 2.70.UnaOrb
--- Start Module: rasscf at Thu Apr 25 13:36:59 2024 ---
 
()()()()()()()()()()()()()()()()()()()()()()()()()()()()()()()()()()()()()()()()()()()()()()()()()()

                                              &RASSCF

                                   only a single process is used
                       available to each process: 2.0 GB of memory, 1 thread?
                                             pid: 97162
()()()()()()()()()()()()()()()()()()()()()()()()()()()()()()()()()()()()()()()()()()()()()()()()()()
 
 
      Header of the ONEINT file:
      --------------------------
      
      Integrals generated by Gateway/Seward, Thu Apr 25 13:36:58 2024
 
 
      OrdInt status: non-squared
 
 
      Cartesian coordinates in Angstrom:
      -----------------------------------------------------
      No.  Label        X            Y            Z        
      -----------------------------------------------------
       1   B1         0.00000000   0.00000000   0.00000000
       2   LI2        0.00000000   0.00000000   2.70000000
      -----------------------------------------------------
      Nuclear repulsion energy =    2.93987339
 
++    Wave function specifications:
      -----------------------------
 
      Number of closed shell electrons           6
      Number of electrons in active shells       2
      Max number of holes in RAS1 space          0
      Max nr of electrons in RAS3 space          0
      Number of inactive orbitals                3
      Number of active orbitals                  2
      Number of secondary orbitals               5
      Spin quantum number                      0.0
      State symmetry                             1
--
 
++    Orbital specifications:
      -----------------------
 
      Symmetry species                           1
                                                 a
      Frozen orbitals                            0
      Inactive orbitals                          3
      Active orbitals                            2
      RAS1 orbitals                              0
      RAS2 orbitals                              2
      RAS3 orbitals                              0
      Secondary orbitals                         5
      Deleted orbitals                           0
      Number of basis functions                 10
--
 
++    CI expansion specifications:
      ----------------------------
 
      Number of CSFs                             3
      Number of determinants                     3
      Number of root(s) required                 1
      Root chosen for geometry opt.              1
      CI root used                               1
         
      highest root included in the CI            1
      max. size of the explicit Hamiltonian      3
--
 
++    Optimization specifications:
      ----------------------------
 
      RASSCF algorithm: Conventional
      Maximum number of macro iterations       200
      Maximum number of SX iterations          100
      Threshold for RASSCF energy            1.000E-08
      Threshold for max MO rotation          1.000E-01
      Threshold for max BLB element          1.000E-04
      Level shift parameter                  5.000E-01
      Make Quasi-Newton update
--
 
      The MO-coefficients are taken from the file:
      /home/grierjones/DDCASPT2/delta_ML/BLi/2.60/2.60.RasOrb                                                                                                                                                                                                         
      Title: RASSCF average (pseudo-natural) orbitals                                      
 
      Total molecular charge    0.00
 
      ************************************************************************************************************************
      *                                                                                                                      *
      *                                            Wave function control section                                             *
      *                                                                                                                      *
      ************************************************************************************************************************
 
 
                                         RASSCF iterations: Energy and convergence statistics
                                         ----------------------------------------------------
 
      Iter CI   SX   CI       RASSCF       Energy    max ROT     max BLB   max BLB  Level Ln srch  Step   QN   Walltime
          iter iter root      energy       change     param      element    value   shift minimum  type update hh:mm:ss
 Nr of preliminary CI iterations:   1
        1   1    3    1   -31.89176960    0.00E+00   1.65E-03    3   7 1 -3.34E-03*  0.49   0.00    SX    NO    0:00:00
        2   1    3    1   -31.89179019   -2.06E-05* -1.25E-03    3   7 1 -2.49E-03*  0.49   0.00    SX    NO    0:00:00
        3   1    3    1   -31.89180143   -1.12E-05*  1.01E-03    3   7 1 -1.88E-03*  0.49   0.00    SX    NO    0:00:00
        4   1    3    1   -31.89180808   -6.65E-06* -8.27E-04    3   7 1 -1.43E-03*  0.49   0.00    SX    NO    0:00:00
        5   1    3    1   -31.89181221   -4.13E-06*  1.23E-03    3   7 1 -1.10E-03*  0.49   2.50    LS   YES    0:00:00
        6   1    3    1   -31.89181662   -4.41E-06*  1.84E-03    3   7 1 -6.12E-04*  0.49   2.50    LS   YES    0:00:00
        7   1    3    1   -31.89181928   -2.67E-06* -2.98E-04    3  10 1 -6.37E-04*  0.49   1.07    QN   YES    0:00:00
        8   1    3    1   -31.89181964   -3.61E-07*  4.38E-04    3  10 1 -4.08E-04*  0.49   2.47    LS   YES    0:00:00
        9   1    3    1   -31.89181984   -1.99E-07*  1.65E-04    3   7 1  1.14E-04*  0.49   1.00    QN   YES    0:00:00
       10   1    2    1   -31.89181987   -2.91E-08*  2.20E-05    3   7 1  2.13E-05   0.49   1.10    QN   YES    0:00:00
       11   1    2    1   -31.89181987   -5.13E-10  -5.74E-06    3   7 1  5.89E-06   0.49   1.27    QN   YES    0:00:00
      Convergence after 11 iterations
       12   1    2    1   -31.89181987   -8.70E-11  -5.74E-06    3   6 1  3.33E-06   0.49   1.27    QN   YES    0:00:00
 
      ************************************************************************************************************************
                                                      Wave function printout:
                       occupation of active orbitals, and spin coupling of open shells (u,d: Spin up or down)
      ************************************************************************************************************************
 
      Note: transformation to natural orbitals
      has been made, which may change the order of the CSFs.
 
      printout of CI-coefficients larger than  0.05 for root  1
      energy=     -31.891820
      conf/sym  11     Coeff  Weight
             2  ud   1.00000 1.00000
 
      Natural orbitals and occupation numbers for root  1
      sym 1:   1.000000   1.000000
 
      ************************************************************************************************************************
      *                                                                                                                      *
      *                                                    Final results                                                     *
      *                                                                                                                      *
      ************************************************************************************************************************
 
 
++    Wave function specifications:
      -----------------------------
 
      Number of closed shell electrons           6
      Number of electrons in active shells       2
      Max number of holes in RAS1 space          0
      Max nr of electrons in RAS3 space          0
      Number of inactive orbitals                3
      Number of active orbitals                  2
      Number of secondary orbitals               5
      Spin quantum number                      0.0
      State symmetry                             1
--
 
++    Orbital specifications:
      -----------------------
 
      Symmetry species                           1
                                                 a
      Frozen orbitals                            0
      Inactive orbitals                          3
      Active orbitals                            2
      RAS1 orbitals                              0
      RAS2 orbitals                              2
      RAS3 orbitals                              0
      Secondary orbitals                         5
      Deleted orbitals                           0
      Number of basis functions                 10
--
 
++    CI expansion specifications:
      ----------------------------
 
      Number of CSFs                             3
      Number of determinants                     3
      Number of root(s) required                 1
      CI root used                               1
      highest root included in the CI            1
      Root passed to geometry opt.               1
--
 
++    Final optimization conditions:
      ------------------------------
 
      Average CI energy                             -31.89181987
      RASSCF energy for state  1                    -31.89181987
      Super-CI energy                                -0.00000000
      RASSCF energy change                           -0.00000000
      Max change in MO coefficients              -7.299E-06
      Max non-diagonal density matrix element    -5.740E-06
      Maximum BLB matrix element                  3.327E-06
      (orbital pair   3,   6 in symmetry   1)
      Norm of electronic gradient            3.817E-06
--
 
 
      Final state energy(ies):
      ------------------------
 
::    RASSCF root number  1 Total energy:    -31.89181987
 
++    Molecular orbitals:
      -------------------
 
      Pseudonatural active orbitals and approximate occupation numbers
 
 
 
 
      Molecular orbitals for symmetry species 1: a  
 
 
      Orbital                 1         2         3         4         5         6         7         8         9        10
      Energy            -7.5652   -2.5420   -0.4323   -0.0243   -0.0000   -0.0107    0.0900    0.1057    0.1057    0.2428
      Occ. No.           2.0000    2.0000    2.0000    1.0000    1.0000    0.0000    0.0000    0.0000    0.0000    0.0000
 
     1 B1     1s         0.9999    0.0000   -0.0236    0.0000   -0.0000   -0.0027    0.0454    0.0000    0.0000    0.0522
     2 B1     2s         0.0151    0.0011    0.8972    0.0000    0.0000   -0.1641    0.5794   -0.0000    0.0000    0.5528
     3 B1     2px       -0.0000   -0.0000   -0.0000   -0.2526    0.7545   -0.0000    0.0000   -0.6259   -0.1454    0.0000
     4 B1     2py        0.0000   -0.0000    0.0000   -0.7545   -0.2526   -0.0000   -0.0000   -0.1454    0.6259   -0.0000
     5 B1     2pz       -0.0000    0.0003    0.0342   -0.0000   -0.0000    0.0978   -0.4841   -0.0000   -0.0000    0.9535
     6 LI2    1s        -0.0001    0.9999   -0.0197    0.0000    0.0000   -0.0135    0.0144    0.0000    0.0000   -0.0464
     7 LI2    2s        -0.0004    0.0128    0.1264   -0.0000   -0.0000    0.8985   -0.2452   -0.0000   -0.0000   -0.5960
     8 LI2    2px        0.0000   -0.0000    0.0000   -0.1465    0.4375    0.0000   -0.0000    0.8891    0.2066    0.0000
     9 LI2    2py       -0.0000    0.0000    0.0000   -0.4375   -0.1465   -0.0000    0.0000    0.2066   -0.8891   -0.0000
    10 LI2    2pz        0.0005    0.0010   -0.1153   -0.0000   -0.0000    0.3978    0.8214   -0.0000    0.0000    0.7383
--
 
      Von Neumann Entropy (Root   1) =  1.00000
 

      Mulliken population analysis for root number:  1
      -----------------------------------------------
 
 
++    Molecular charges:
      ------------------
 
      Mulliken charges per centre and basis function type
      ---------------------------------------------------
 
                B1      LI2   
      1s       2.0003  1.9998
      2s       1.7710  0.1021
      2px      0.7102  0.2898
      2pz      0.0059  0.1208
      2py      0.7102  0.2898
      Total    5.1976  2.8024
 
      N-E     -0.1976  0.1976
 
      Total electronic charge=    8.000000
 
      Total            charge=    0.000000
--
 
 

      Expectation values of various properties for root number:  1
      -----------------------------------------------------------
 
 
++    Molecular properties:
      ---------------------
 
      Charge (e):
                      =    0.0000
      Dipole Moment (Debye):
      Origin of the operator (Ang)=    0.0000    0.0000    0.0000
                   X=  3.0216E-13               Y= -6.4102E-13               Z=  4.7419E+00           Total=  4.7419E+00
      Quadrupole Moment (Debye*Ang):
      Origin of the operator (Ang)=    0.0000    0.0000    1.0509
                  XX= -1.7100E+01              XY= -1.1049E-12              XZ= -4.7685E-13              YY= -1.7100E+01
                  YZ= -1.2759E-12              ZZ= -3.2197E+00
      In traceless form (Debye*Ang)
                  XX= -6.9402E+00              XY= -1.6574E-12              XZ= -7.1528E-13              YY= -6.9402E+00
                  YZ= -1.9139E-12              ZZ=  1.3880E+01
--
 

      LoProp population analysis for root number:  1
      -----------------------------------------------
 
 
++    LoProp analysis:
      ----------------
 
 
 
      Input file to MOLDEN was generated!
 
 
++    Static properties:
      ------------------
 
 
      LoProp Charges per center
 

                   B1       LI2   
      Nuclear      5.0000   3.0000
      Electronic  -5.4461  -2.5539
 
      Total       -0.4461   0.4461
--
 
 
      Natural Bond Order analysis for root number:  1
 
++    Natural Bond Order analysis
      ---------------------------
      Based on LoProp computed density
      -------------------------------------------------------------------------------------
      Atom A       Atom B       Bond Order
      -------------------------------------------------------------------------------------
      NBO located      0.996 non-bonded electrons on atom B1        
      NBO located      0.980 non-bonded electrons on atom B1        
      The remaining    2.341 electrons are to be considered as diffuse
--
 
--
 
 
      Input file to MOLDEN was generated!
 
      Average orbitals are written to the RASORB file
      Natural orbitals for root   1 are written to the RASORB.1 file
      Spin density orbitals for root   1 are written to the SPDORB.1 file
 
--- Stop Module: rasscf at Thu Apr 25 13:37:00 2024 /rc=_RC_ALL_IS_WELL_ ---
*** files: 2.70.LprOrb 2.70.rasscf.molden 2.70.LoProp.molden 2.70.RasOrb.1 2.70.RasOrb 2.70.rasscf.h5 2.70.SpdOrb.1 xmldump
    saved to directory /home/grierjones/DDCASPT2/delta_ML/BLi/2.70

*** symbolic link created: INPORB -> 2.70.RasOrb
--- Start Module: caspt2 at Thu Apr 25 13:37:00 2024 ---
 
()()()()()()()()()()()()()()()()()()()()()()()()()()()()()()()()()()()()()()()()()()()()()()()()()()

                                              &CASPT2

                                   only a single process is used
                       available to each process: 2.0 GB of memory, 1 thread?
                                             pid: 97166
()()()()()()()()()()()()()()()()()()()()()()()()()()()()()()()()()()()()()()()()()()()()()()()()()()
 
 ###############################################################################
 ###############################################################################
 ###                                                                         ###
 ###                                                                         ###
 ###    WARNING: User changed nr of frozen orbitals.                         ###
 ###                                                                         ###
 ###                                                                         ###
 ###############################################################################
 ###############################################################################
 
++    Wave function specifications:
      -----------------------------
 
      Number of closed shell electrons           6
      Number of electrons in active shells       2
      Max number of holes in RAS1 space          0
      Max number of electrons in RAS3 space      0
      Number of inactive orbitals                3
      Number of active orbitals                  2
      Number of secondary orbitals               5
      Spin quantum number                      0.0
      State symmetry                             1
      Number of CSFs                             3
      Number of CASSCF root(s) available         1
      CASPT2 state passed to geometry opt.       1
      A file JOBMIX will be created
      This is a CASSCF or RASSCF reference function
--
 
++    Orbital specifications:
      -----------------------
 
      Symmetry species                           1
                                                 a
      Frozen orbitals                            0
      Inactive orbitals                          3
      Active orbitals                            2
      Secondary orbitals                         5
      Deleted orbitals                           0
      Number of basis functions                 10
--
 
++    CASPT2 specifications:
      ----------------------
 
      Type of calculation                        SS-CASPT2
      Fock operator                              state-specific
      IPEA shift                                 0.25
      Real shift                                 0.00
      Imaginary shift                            0.00
      The input orbitals will be transformed to quasi-canonical
--
 
--------------------------------------------------------------------------------
 Estimated memory requirements:
  POLY3 :                   250070
  RHS:                      250476
  SIGMA :                   250480
  PRPCTL:                        0
 Available workspace:    230392690
 
++ CASPT2 computation for group   1
 
********************************************************************************
 Multi-State initialization phase begins for group   1
--------------------------------------------------------------------------------
********************************************************************************
 Compute H0 matrices for state    1
--------------------------------------------------------------------------------
--------------------------------------------------------------------------------
 H0 matrices have been computed.
 
********************************************************************************
  CASPT2 EQUATION SOLUTION
--------------------------------------------------------------------------------
 
  Total nr of CASPT2 parameters:
   Before reduction:         620
   After  reduction:         457
 
 Variance of |WF0>:       0.0301279874
 
 The contributions to the second order correlation energy in atomic units.
-----------------------------------------------------------------------------------------------------------------------------
  IT.      VJTU        VJTI        ATVX        AIVX        VJAI        BVAT        BJAT        BJAI        TOTAL       RNORM  
-----------------------------------------------------------------------------------------------------------------------------
   1    -0.000000   -0.000000    0.000000   -0.000000   -0.002839   -0.016383   -0.009552   -0.010033   -0.038806    0.003119
   2    -0.000000   -0.000000    0.000000   -0.000000   -0.002840   -0.017081   -0.009609   -0.010032   -0.039562    0.000221
   3    -0.000000   -0.000000    0.000000   -0.000000   -0.002843   -0.017083   -0.009609   -0.010034   -0.039569    0.000019
-----------------------------------------------------------------------------------------------------------------------------
 
  FINAL CASPT2 RESULT:
 
      Reference energy:         -31.8918198731
      E2 (Non-variational):      -0.0395673045
      E2 (Variational):          -0.0395672848
      Total energy:             -31.9313871579
      Residual norm:              0.0000005412
      Reference weight:           0.92706
 
      Contributions to the CASPT2 correlation energy
      Active & Virtual Only:         -0.0170831660
      One Inactive Excited:          -0.0096072561
      Two Inactive Excited:          -0.0128768824
 
 
++ Denominators, etc.
--------------------------------------------------------------------------------------------------------------
 Report on small energy denominators, large coefficients, and large energy contributions.
CASE  SYMM ACTIVE-MIX  NON-ACTIVE INDICES          DENOMINATOR     RHS VALUE       COEFFICIENT     CONTRIBUTION
ATVX     1  Mu1.0001  Se1.006                       0.10728154     -0.00000000      0.00000000     -0.00000000
ATVX     1  Mu1.0002  Se1.006                       0.10728154     -0.00000000      0.00000000     -0.00000000
ATVX     1  Mu1.0001  Se1.007                       0.20802005     -0.00000000      0.00000000     -0.00000000
ATVX     1  Mu1.0002  Se1.007                       0.20802005      0.00000000     -0.00000000     -0.00000000
ATVX     1  Mu1.0001  Se1.008                       0.22372291      0.00000012      0.04039683      0.00000000
ATVX     1  Mu1.0002  Se1.008                       0.22372291      0.00000000      0.00056163      0.00000000
ATVX     1  Mu1.0001  Se1.009                       0.22372291     -0.00000000     -0.00056163      0.00000000
ATVX     1  Mu1.0002  Se1.009                       0.22372291      0.00000012      0.04039683      0.00000000
VJAIP    1  Mu1.0002  Se1.008 In1.003 In1.003       1.07099655     -0.03912375      0.03566891     -0.00139550
VJAIP    1  Mu1.0001  Se1.009 In1.003 In1.003       1.07099655     -0.03912375      0.03566891     -0.00139550
BVATP    1  Mu1.0001  Se1.006 Se1.006               0.11039642     -0.00000000      0.00000000     -0.00000000
BVATP    1  Mu1.0001  Se1.007 Se1.006               0.21113492     -0.00000000      0.00000000     -0.00000000
BVATP    1  Mu1.0001  Se1.008 Se1.006               0.22683778      0.00000000     -0.00000000     -0.00000000
BVATP    1  Mu1.0001  Se1.008 Se1.008               0.34327915      0.05302750     -0.16107747     -0.00854154
BVATP    1  Mu1.0001  Se1.009 Se1.006               0.22683778      0.00000000     -0.00000000     -0.00000000
BVATP    1  Mu1.0001  Se1.009 Se1.009               0.34327915     -0.05302750      0.16107747     -0.00854154
BJATP    1  Mu1.0001  In1.003 Se1.008 Se1.006       0.67651627     -0.01774113      0.02636750     -0.00046779
BJATP    1  Mu1.0001  In1.003 Se1.008 Se1.007       0.77725478      0.03425104     -0.04425600     -0.00151581
BJATP    1  Mu1.0002  In1.003 Se1.009 Se1.006       0.67651627      0.01774113     -0.02636750     -0.00046779
BJATP    1  Mu1.0002  In1.003 Se1.009 Se1.007       0.77725478     -0.03425104      0.04425600     -0.00151581
BJATM    1  Mu1.0001  In1.003 Se1.008 Se1.007       0.77725478      0.03418890     -0.04431463     -0.00151507
BJATM    1  Mu1.0002  In1.003 Se1.009 Se1.007       0.77725478     -0.03418890      0.04431463     -0.00151507
BJAIP    1  Se1.006 In1.003 Se1.007 In1.003         0.94382524     -0.02658336      0.02816554     -0.00074873
BJAIP    1  Se1.007 In1.003 Se1.007 In1.003         1.04456374      0.05682506     -0.05440077     -0.00309133
BJAIP    1  Se1.007 In1.003 Se1.010 In1.003         1.19731746     -0.03948431      0.03297731     -0.00130209
BJAIP    1  Se1.010 In1.003 Se1.010 In1.003         1.35007118      0.06750240     -0.04999914     -0.00337506
--
 
   (Skipping property calculation,
    use PROP keyword to activate)
--
 
  Total CASPT2 energies:
::    CASPT2 Root  1     Total energy:    -31.93138716
 
  A NEW JOBIPH FILE NAMED 'JOBMIX' IS PREPARED.
********************************************************************************
--- Stop Module: caspt2 at Thu Apr 25 13:37:00 2024 /rc=_RC_ALL_IS_WELL_ ---
*** files: xmldump
    saved to directory /home/grierjones/DDCASPT2/delta_ML/BLi/2.70

.##################.
.# Happy landing! #.
.##################.

    Timing: Wall=2.28 User=1.55 System=0.24
************************************
*** WorkDir at /tmp/2.70 removed ***
************************************
