   This run of MOLCAS is using the pymolcas driver

                             OPE
                             OPE          NMOL  CASOP  ENMOLC A   SO
                 OPE        NMOLC        AS  OP EN  MO LC     AS  OP
                OPENM       OL CA        SO  PE NM  OL CA     SOP EN
                OP EN      MO   LC       AS  OP ENMOL  CASO   PENMOL
                OP  EN     MO   LC       AS  OP EN     MO     LC ASO
               OP   E  NMOL  C  AS       OP  EN MO     LC     AS  OP
               OP  E   NMO   LC AS        OPEN  MO     LCASOP EN   M
               O  PEN   MO  LCA  SO
            OPE   NMO   L   CAS    OP
        OPENMOL  CASOP     ENMOL   CASOPE
     OPENMOLCA   SOPENMOLCASOPEN   MOLCASOPE
    OPENMOLCAS   OP           EN   MOL    CAS
    OPENMOLCAS       OP  ENM        O     LCA
    OPENMOLCAS    OPEN  MOLCASO     P  E  NMO
    OPENMOLCAS     OP               E  N  MOL
    OPENMOLCA   SO           PENM   O  L  CAS    OPEN    MO    LCAS
    OPENMOLCA   SOP           ENM   O  L  CAS   OP  EN  MOLC  AS   O
    OPENMOLCA   SOPE           NM      O  LCA   S      OP  EN MO
    OPENMOLC                AS         O  PEN   M      OL  CA  SOPE
    OPENMO        LCASOPE  NMOL        C  ASO   P      ENMOLC     AS
    OPE     NMO      LCA  SO     P     E   NM   OL  CA SO  PE N   MO
          OPENMOLCA            SOPE   NMO        LCAS  O    P  ENMO
     OPENMOLCASOPENMOLCASOPENMOLCASOPENMOLCA
        OPENMOLCASOPENMOLCASOPENMOLCASOPE
            OPENMOLCASOPENMOLCASOPENM
               OPENMOLCASOPENMOLCA        version: 44d3b5344-dirty
                   OPENMOLCASO
                       OPE                tag:

 OpenMolcas is free software; you can redistribute it and/or modify it
 under the terms of the GNU Lesser General Public License version 2.1.
 OpenMolcas is distributed in the hope that it will be useful, but it
 is provided "as is" and without any express or implied warranties.
 For more details see the full text of the license in the file
 LICENSE or in <http://www.gnu.org/licenses/>.

                 Copyright (C) The OpenMolcas Authors
           For the author list and the recommended citation,
                   consult the file CONTRIBUTORS.md

           *************************************************
           * pymolcas version py2.28                       *
           *   build c4a6d18ded8cb6cad61d2372a9abd97c      *
           *   (after the EMIL interpreter by V. Veryazov) *
           *************************************************

configuration info
------------------
C Compiler ID: GNU
C flags: -std=gnu99
Fortran Compiler ID: Intel
Fortran flags: -fpp -i8 -r8 -heap-arrays
Definitions: _MOLCAS_;_I8_;_LINUX_
Parallel: OFF (GA=OFF)


   ----------------------------------------------------------------------------------------------------------
  |
  |              Project: H6_2.01
  |       Submitted from: /home/grierjones/DDCASPT2/hydrogen_comps/minimal_2e_2o/chains/even/H6_chain/H6_2.01
  |         Scratch area: /tmp/H6_2.01
  |      Save outputs to: /home/grierjones/DDCASPT2/hydrogen_comps/minimal_2e_2o/chains/even/H6_chain/H6_2.01
  |               Molcas: /home/grierjones/Test/build
  |
  | Scratch area is empty
  |
  |       MOLCAS_DRIVER = /usr/local/pymolcas
  | MOLCAS_KEEP_WORKDIR = NO
  |  MOLCAS_NEW_WORKDIR = YES
  |       MOLCAS_NPROCS = 1
  |       MOLCAS_SOURCE = /home/grierjones/Test/build
  |    MOLCAS_STRUCTURE = 0
  |
   ----------------------------------------------------------------------------------------------------------

++ ---------   Input file   ---------

&GATEWAY
coord=H6_2.01.xyz
Basis = ANO-RCC-VDZP
Group = nosymm
Expert
End of Input

&SEWARD
End of Input

&MOTRA
Frozen=0

>>> COPY $WorkDir/GMJ_one_int_indx.csv $CurrDir/H6_2.01.GMJ_one_int_indx.csv

>>> COPY $WorkDir/GMJ_one_int.csv $CurrDir/H6_2.01.GMJ_one_int.csv

>>> COPY $WorkDir/GMJ_two_int_indx.csv $CurrDir/H6_2.01.GMJ_two_int_indx.csv

>>> COPY $WorkDir/GMJ_two_int.csv $CurrDir/H6_2.01.GMJ_two_int.csv

&SCF

>>> COPY $WorkDir/H6_2.01.scf.h5 $CurrDir/

&RASSCF
Title= RASSCF
FileOrb
/home/grierjones/DDCASPT2/hydrogen_comps/minimal_2e_2o/chains/even/H6_chain/H6_1.98/H6_1.98.RasOrb

NACTEL
6 0 0
Inactive
0
RAS2
6
Symmetry
1
Spin
1
orblisting
all
ITERation
200 100
CIMX
200
SDAV
500

>>> COPY $WorkDir/H6_2.01.rasscf.h5 $CurrDir/

>>> COPY $WorkDir/GMJ_Fock_MO.csv $CurrDir/H6_2.01.GMJ_Fock_MO.csv

&CASPT2
Frozen
0
Imaginary Shift
0.0

>>> FOREACH i IN (B,E,F,G,H)

  >>> FOREACH j IN (P,M)

    >>> IF (-FILE GMJ_e2_${i}_${j}.csv)

      >>> COPY $WorkDir/GMJ_RHS_${i}_${j}.csv $CurrDir/GMJ_RHS_${i}_${j}.csv

      >>> COPY $WorkDir/GMJ_IVECW_${i}_${j}.csv $CurrDir/GMJ_IVECW_${i}_${j}.csv

      >>> COPY $WorkDir/GMJ_e2_${i}_${j}.csv $CurrDir/GMJ_e2_${i}_${j}.csv

    >>> END IF

  >>> END FOREACH

>>> END FOREACH

>>> FOREACH i IN (A,C,D)

  >>> IF (-FILE GMJ_e2_$i.csv)

    >>> COPY $WorkDir/GMJ_RHS_$i.csv $CurrDir/GMJ_RHS_$i.csv

    >>> COPY $WorkDir/GMJ_IVECW_$i.csv $CurrDir/GMJ_IVECW_$i.csv

    >>> COPY $WorkDir/GMJ_e2_$i.csv $CurrDir/GMJ_e2_$i.csv

  >>> END IF

>>> END FOREACH

-- ----------------------------------

--- Start Module: gateway at Fri Aug  9 15:38:31 2024 ---
 
()()()()()()()()()()()()()()()()()()()()()()()()()()()()()()()()()()()()()()()()()()()()()()()()()()

                                              &GATEWAY

                                   only a single process is used
                       available to each process: 2.0 GB of memory, 1 thread?
()()()()()()()()()()()()()()()()()()()()()()()()()()()()()()()()()()()()()()()()()()()()()()()()()()
 
 ###############################################################################
 ###############################################################################
 ###                                                                         ###
 ###                                                                         ###
 ###                                                                         ###
 ###    WARNING: EXPERT option is ON!                                        ###
 ###                                                                         ###
 ###                                                                         ###
 ###############################################################################
 ###############################################################################
 
++    Symmetry information:
      ---------------------
 
                    Character Table for C1 
 
                             E  
                    a        1  x, y, xy, Rz, z, xz, Ry, yz, Rx, I
--
 
 
++    Basis set information:
      ----------------------
 
 
      Basis set label: H.ANO-RCC...2S1P.
 
      Electronic valence basis set:
      ------------------
      Associated Effective Charge   1.000000 au
      Associated Actual Charge      1.000000 au
      Nuclear Model: Point charge
 
      Shell  nPrim  nBasis  Cartesian Spherical Contaminant
         s       8       2        X                  
         p       4       1        X                  
--
 
 
++    Molecular structure info:
      -------------------------
 
                    ************************************************ 
                    **** Cartesian Coordinates / Bohr, Angstrom **** 
                    ************************************************ 
 
     Center  Label                x              y              z                     x              y              z
        1      H1               0.000000       0.000000       0.000000              0.000000       0.000000       0.000000
        2      H2               0.000000       0.000000       3.790906              0.000000       0.000000       2.006061
        3      H3               0.000000       0.000000       7.581810              0.000000       0.000000       4.012121
        4      H4               0.000000       0.000000      11.372716              0.000000       0.000000       6.018182
        5      H5               0.000000       0.000000      15.163620              0.000000       0.000000       8.024242
        6      H6               0.000000       0.000000      18.954526              0.000000       0.000000      10.030303
 
                    *************************************** 
                    *    InterNuclear Distances / Bohr    * 
                    *************************************** 
 
               1 H1            2 H2            3 H3            4 H4            5 H5            6 H6    
    1 H1       0.000000
    2 H2       3.790906        0.000000
    3 H3       7.581810        3.790904        0.000000
    4 H4      11.372716        7.581810        3.790906        0.000000
    5 H5      15.163620       11.372714        7.581810        3.790904        0.000000
    6 H6      18.954526       15.163620       11.372716        7.581810        3.790906        0.000000
 
                    ******************************************* 
                    *    InterNuclear Distances / Angstrom    * 
                    ******************************************* 
 
               1 H1            2 H2            3 H3            4 H4            5 H5            6 H6    
    1 H1       0.000000
    2 H2       2.006061        0.000000
    3 H3       4.012121        2.006060        0.000000
    4 H4       6.018182        4.012121        2.006061        0.000000
    5 H5       8.024242        6.018181        4.012121        2.006060        0.000000
    6 H6      10.030303        8.024242        6.018182        4.012121        2.006061        0.000000
--
 
 
            Nuclear Potential Energy              2.29496647 au
 
 ###############################################################################
 ###############################################################################
 ###                                                                         ###
 ###                                                                         ###
 ###    There were warnings during the execution                             ###
 ###    Please, check the output with care!                                  ###
 ###                                                                         ###
 ###                                                                         ###
 ###############################################################################
 ###############################################################################
--- Stop Module: gateway at Fri Aug  9 15:38:31 2024 /rc=_RC_ALL_IS_WELL_ ---
*** files: xmldump
    saved to directory /home/grierjones/DDCASPT2/hydrogen_comps/minimal_2e_2o/chains/even/H6_chain/H6_2.01

--- Start Module: seward at Fri Aug  9 15:38:31 2024 ---
 
()()()()()()()()()()()()()()()()()()()()()()()()()()()()()()()()()()()()()()()()()()()()()()()()()()

                                              &SEWARD

                                   only a single process is used
                       available to each process: 2.0 GB of memory, 1 thread?
()()()()()()()()()()()()()()()()()()()()()()()()()()()()()()()()()()()()()()()()()()()()()()()()()()
 
 ###############################################################################
 ###############################################################################
 ###                                                                         ###
 ###                                                                         ###
 ###                                                                         ###
 ###    WARNING: EXPERT option is ON!                                        ###
 ###                                                                         ###
 ###                                                                         ###
 ###############################################################################
 ###############################################################################
               SEWARD will generate:
                  Multipole Moment integrals up to order  2
                  Kinetic Energy integrals
                  Nuclear Attraction integrals (point charge)
                  One-Electron Hamiltonian integrals
                  Velocity integrals
                  Relativistic Douglas-Kroll-Hess integrals:
                    - Parametrization         : EXP
                    - DKH order of Hamiltonian: 2
                    - DKH order of Properties : 0
                         - multipole moment operators
                         - electric potential operators
                         - contact operators
                  Atomic mean-field integrals
                  Two-Electron Repulsion integrals
 
                   Integrals are discarded if absolute value <: 0.10E-13
                   Integral cutoff threshold is set to       <: 0.10E-15
 
            Nuclear Potential Energy              2.29496647 au
 
 
      Basis set specifications :
      Symmetry species         a  
      Basis functions           30
 
 
  Input file to MOLDEN was generated!
 
 ###############################################################################
 ###############################################################################
 ###                                                                         ###
 ###                                                                         ###
 ###    There were warnings during the execution                             ###
 ###    Please, check the output with care!                                  ###
 ###                                                                         ###
 ###                                                                         ###
 ###############################################################################
 ###############################################################################
--- Stop Module: seward at Fri Aug  9 15:38:31 2024 /rc=_RC_ALL_IS_WELL_ ---
*** files: H6_2.01.GssOrb H6_2.01.guessorb.h5 H6_2.01.guessorb.molden xmldump
    saved to directory /home/grierjones/DDCASPT2/hydrogen_comps/minimal_2e_2o/chains/even/H6_chain/H6_2.01

*** symbolic link created: INPORB -> H6_2.01.GssOrb
--- Start Module: motra at Fri Aug  9 15:38:31 2024 ---
 
()()()()()()()()()()()()()()()()()()()()()()()()()()()()()()()()()()()()()()()()()()()()()()()()()()

                                               &MOTRA

                                   only a single process is used
                       available to each process: 2.0 GB of memory, 1 thread?
()()()()()()()()()()()()()()()()()()()()()()()()()()()()()()()()()()()()()()()()()()()()()()()()()()
 
 
      *** WARNING: Default frozen orbitals is overwritten by user input.
      *** Default values:   0
 
      Header of the integral files:
      
       Integrals generated by seward 4.2.0  , Fri Aug  9 15:38:31 2024
 
 
      Header of MO coefficients source file:
      *Guess orbitals                                                                 
 
 
      Cartesian coordinates in Angstrom:
      -----------------------------------------------------
      No.  Label        X            Y            Z        
      -----------------------------------------------------
       1   H1         0.00000000   0.00000000   0.00000000
       2   H2         0.00000000   0.00000000   2.00606100
       3   H3         0.00000000   0.00000000   4.01212100
       4   H4         0.00000000   0.00000000   6.01818200
       5   H5         0.00000000   0.00000000   8.02424200
       6   H6         0.00000000   0.00000000  10.03030300
      -----------------------------------------------------
      Nuclear repulsion energy =    2.29496647
 
      Orbital specifications:
      -----------------------
 
      Symmetry species:              1
      Number of basis functions:    30
      Frozen orbitals:               0
      Deleted orbitals:              0
      Number of orbitals used:      30

       SYMMETRY  BASIS FUNCTIONS       ORBITALS      INTEGRALS   CPU(SEC)  I/O(SEC)
 
        1 1 1 1   30  30  30  30    30  30  30  30      108345       0.00      0.00

       TOTAL CPU TIME(SEC)    0.85TOTAL I/O TIME(SEC)    1.52
 
--- Stop Module: motra at Fri Aug  9 15:38:33 2024 /rc=_RC_ALL_IS_WELL_ ---
*** files: xmldump
    saved to directory /home/grierjones/DDCASPT2/hydrogen_comps/minimal_2e_2o/chains/even/H6_chain/H6_2.01
--- Module motra spent 1 second ---

>>> COPY /tmp/H6_2.01/GMJ_one_int_indx.csv /home/grierjones/DDCASPT2/hydrogen_comps/minimal_2e_2o/chains/even/H6_chain/H6_2.01/H6_2.01.GMJ_one_int_indx.csv

>>> COPY /tmp/H6_2.01/GMJ_one_int.csv /home/grierjones/DDCASPT2/hydrogen_comps/minimal_2e_2o/chains/even/H6_chain/H6_2.01/H6_2.01.GMJ_one_int.csv

>>> COPY /tmp/H6_2.01/GMJ_two_int_indx.csv /home/grierjones/DDCASPT2/hydrogen_comps/minimal_2e_2o/chains/even/H6_chain/H6_2.01/H6_2.01.GMJ_two_int_indx.csv

>>> COPY /tmp/H6_2.01/GMJ_two_int.csv /home/grierjones/DDCASPT2/hydrogen_comps/minimal_2e_2o/chains/even/H6_chain/H6_2.01/H6_2.01.GMJ_two_int.csv

*** symbolic link created: INPORB -> H6_2.01.GssOrb
--- Start Module: scf at Fri Aug  9 15:38:33 2024 ---
 
()()()()()()()()()()()()()()()()()()()()()()()()()()()()()()()()()()()()()()()()()()()()()()()()()()

                                                &SCF

                                   only a single process is used
                       available to each process: 2.0 GB of memory, 1 thread?
()()()()()()()()()()()()()()()()()()()()()()()()()()()()()()()()()()()()()()()()()()()()()()()()()()
 
++    Input section:
      --------------
 
      Header of the integral files:
      
       Integrals generated by seward 4.2.0  , Fri Aug  9 15:38:31 2024
 
 
      Cartesian coordinates in Angstrom:
      -----------------------------------------------------
      No.  Label        X            Y            Z        
      -----------------------------------------------------
       1   H1         0.00000000   0.00000000   0.00000000
       2   H2         0.00000000   0.00000000   2.00606100
       3   H3         0.00000000   0.00000000   4.01212100
       4   H4         0.00000000   0.00000000   6.01818200
       5   H5         0.00000000   0.00000000   8.02424200
       6   H6         0.00000000   0.00000000  10.03030300
      -----------------------------------------------------
      Nuclear repulsion energy =    2.29496647
--
 
++    Orbital specifications:
      -----------------------
 
      Symmetry species               1
                                     a
      Frozen orbitals                0
      Occupied orbitals              3
      Secondary orbitals            27
      Deleted orbitals               0
      Total number of orbitals      30
      Number of basis functions     30
--
 
      Molecular charge                           0.000
 
++    Optimization specifications:
      ----------------------------
 
      SCF Algorithm: Conventional
      Minimized density differences are used
      Number of density matrices in core                5
      Maximum number of NDDO SCF iterations           400
      Maximum number of HF SCF iterations             400
      Threshold for SCF energy change            0.10E-08
      Threshold for density matrix               0.10E-03
      Threshold for Fock matrix                  0.15E-03
      Threshold for linear dependence            0.10E-08
      Threshold at which DIIS is turned on       0.15E+00
      Threshold at which QNR/C2DIIS is turned on 0.75E-01
      Threshold for Norm(delta) (QNR/C2DIIS)     0.20E-04
      DIIS extrapolation of the SCF procedure
      All orbitals punched on: SCFORB
--
 
      Input vectors read from INPORB
      Orbital file label: *Guess orbitals
 
 
++ Convergence information
                                   SCF        iterations: Energy and convergence statistics
 
Iter     Tot. SCF        One-elec.       Two-elec.     Energy      Max Dij or  Max Fij      DNorm      TNorm      AccCon     Time
         Energy          Energy          Energy        Change      Delta Norm                                                in Sec.
   1    -2.636287087    -7.791549859     2.860296304   0.00E+00    0.32E+00*   0.10E+00*    0.35E+01   0.68E+01   None         0.
   2    -2.761396735    -7.773020722     2.716657518  -0.13E+00*   0.99E-01*   0.19E-01*    0.11E+01   0.66E+01   EDIIS        0.
   3    -2.767639533    -7.730002987     2.667396986  -0.62E-02*   0.49E-01*   0.77E-02*    0.20E+00   0.66E+01   EDIIS        0.
   4    -2.768519359    -7.731076537     2.667590710  -0.88E-03*   0.25E-01*   0.48E-02*    0.92E-01   0.66E+01   c2DIIS       0.
   5    -2.768790428    -7.725876695     2.662119799  -0.27E-03*   0.59E-02*   0.16E-02*    0.13E-01   0.66E+01   QNRc2DIIS    0.
   6    -2.768820101    -7.727914762     2.664128193  -0.30E-04*   0.50E-02*   0.70E-03*    0.20E-02   0.66E+01   QNRc2DIIS    0.
   7    -2.768830320    -7.727465325     2.663668537  -0.10E-04*   0.80E-03*   0.15E-03     0.36E-03   0.66E+01   QNRc2DIIS    0.
   8    -2.768830593    -7.727179170     2.663382109  -0.27E-06*   0.17E-04    0.67E-05     0.12E-03   0.66E+01   QNRc2DIIS    0.
   9    -2.768830594    -7.727167481     2.663370419  -0.39E-09    0.57E-06    0.20E-06     0.10E-04   0.66E+01   QNRc2DIIS    0.
 
       Convergence after  9 Macro Iterations
--
 
 *****************************************************************************************************************************
 *                                                                                                                           *
 *                                             SCF/KS-DFT Program, Final results                                             *
 *                                                                                                                           *
 *                                                                                                                           *
 *                                                                                                                           *
 *                                                       Final Results                                                       *
 *                                                                                                                           *
 *****************************************************************************************************************************
 
::    Total SCF energy                                 -2.7688305936
      One-electron energy                              -7.7271674806
      Two-electron energy                               2.6633704186
      Nuclear repulsion energy                          2.2949664684
      Kinetic energy (interpolated)                     2.0483035175
      Virial theorem                                    1.3517677287
      Total spin, S(S+1)                                0.0000000000
      Total spin, S                                     0.0000000000
      Max non-diagonal density matrix element           0.0000006018
      Max non-diagonal Fock matrix element              0.0000000379
 
 
      All orbitals with orbital energies smaller than  E(LUMO)+0.5 are printed
 
++    Molecular orbitals:
      -------------------
 
      Title: SCF orbitals

      Molecular orbitals for symmetry species 1: a  
 
          Orbital            1         2         3         4         5         6         7         8    
          Energy           -0.4414   -0.4053   -0.3535   -0.1176   -0.0407    0.0336    0.3176    0.3506
          Occ. No.          2.0000    2.0000    2.0000    0.0000    0.0000    0.0000    0.0000    0.0000
 
        1 H1     1s         0.2181   -0.3873    0.3934   -0.5128    0.6033   -0.3938   -0.1500    0.1745
        2 H1     2s         0.0265   -0.0556    0.0713   -0.1783    0.2458   -0.1788    0.3192   -0.5393
        3 H1     2px       -0.0000    0.0000   -0.0000   -0.0000    0.0000   -0.0000    0.0000   -0.0000
        4 H1     2py       -0.0000    0.0000    0.0000   -0.0000   -0.0000    0.0000   -0.0000    0.0000
        5 H1     2pz        0.0118   -0.0166    0.0119    0.0047   -0.0201    0.0273   -0.0381    0.0486
        6 H2     1s         0.3117   -0.4490    0.3165    0.2858   -0.6910    0.6572   -0.2022    0.1649
        7 H2     2s         0.0353   -0.0882    0.0988    0.0928   -0.2787    0.2715    0.2419   -0.2439
        8 H2     2px       -0.0000    0.0000   -0.0000   -0.0000    0.0000   -0.0000    0.0000    0.0000
        9 H2     2py        0.0000   -0.0000    0.0000    0.0000   -0.0000    0.0000   -0.0000    0.0000
       10 H2     2pz       -0.0003    0.0105   -0.0190    0.0261   -0.0139   -0.0139    0.0097   -0.0364
       11 H3     1s         0.4167   -0.0925   -0.4487    0.5183    0.2443   -0.8203   -0.2191    0.0874
       12 H3     2s         0.0534    0.0049   -0.1169    0.1821    0.1031   -0.3338    0.2935   -0.1176
       13 H3     2px        0.0000    0.0000   -0.0000    0.0000    0.0000   -0.0000    0.0000    0.0000
       14 H3     2py        0.0000   -0.0000    0.0000   -0.0000   -0.0000    0.0000   -0.0000   -0.0000
       15 H3     2pz        0.0072    0.0101   -0.0157   -0.0213    0.0261    0.0122   -0.0104   -0.0219
       16 H4     1s         0.4167    0.0925   -0.4487   -0.5183    0.2443    0.8203   -0.2191   -0.0874
       17 H4     2s         0.0534   -0.0049   -0.1169   -0.1821    0.1031    0.3338    0.2935    0.1176
       18 H4     2px       -0.0000    0.0000   -0.0000    0.0000    0.0000   -0.0000   -0.0000    0.0000
       19 H4     2py       -0.0000    0.0000    0.0000   -0.0000   -0.0000   -0.0000    0.0000   -0.0000
       20 H4     2pz       -0.0072    0.0101    0.0157   -0.0213   -0.0261    0.0122    0.0104   -0.0219
       21 H5     1s         0.3117    0.4490    0.3165   -0.2858   -0.6910   -0.6572   -0.2022   -0.1649
       22 H5     2s         0.0353    0.0882    0.0988   -0.0928   -0.2787   -0.2715    0.2419    0.2439
       23 H5     2px       -0.0000   -0.0000   -0.0000    0.0000    0.0000   -0.0000   -0.0000   -0.0000
       24 H5     2py       -0.0000    0.0000    0.0000   -0.0000   -0.0000    0.0000    0.0000   -0.0000
       25 H5     2pz        0.0003    0.0105    0.0190    0.0261    0.0139   -0.0139   -0.0097   -0.0364
       26 H6     1s         0.2181    0.3873    0.3934    0.5128    0.6033    0.3938   -0.1500   -0.1745
       27 H6     2s         0.0265    0.0556    0.0713    0.1783    0.2458    0.1788    0.3192    0.5393
       28 H6     2px       -0.0000    0.0000    0.0000   -0.0000    0.0000   -0.0000    0.0000   -0.0000
       29 H6     2py       -0.0000   -0.0000   -0.0000    0.0000   -0.0000   -0.0000   -0.0000   -0.0000
       30 H6     2pz       -0.0118   -0.0166   -0.0119    0.0047    0.0201    0.0273    0.0381    0.0486
--
 
 
++    Molecular charges:
      ------------------
 
      Mulliken charges per centre and basis function type
      ---------------------------------------------------
 
                H1      H2      H3      H4      H5      H6    
      1s       0.8857  0.9696  0.9402  0.9402  0.9696  0.8857
      2s       0.0574  0.0664  0.0504  0.0504  0.0664  0.0574
      2px      0.0000  0.0000  0.0000  0.0000  0.0000  0.0000
      2pz      0.0087  0.0111  0.0105  0.0105  0.0111  0.0087
      2py      0.0000  0.0000  0.0000  0.0000  0.0000  0.0000
      Total    0.9517  1.0471  1.0011  1.0011  1.0471  0.9517
 
      N-E      0.0483 -0.0471 -0.0011 -0.0011 -0.0471  0.0483
 
      Total electronic charge=    6.000000
 
      Total            charge=   -0.000000
--
 
 
  Input file to MOLDEN was generated!
 
 
++    Static properties:
      ------------------
 
 
      LoProp Charges per center
 

                   H1       H2       H3       H4       H5       H6    
      Nuclear      1.0000   1.0000   1.0000   1.0000   1.0000   1.0000
      Electronic  -0.9768  -1.0200  -1.0032  -1.0032  -1.0200  -0.9768
 
      Total        0.0232  -0.0200  -0.0032  -0.0032  -0.0200   0.0232
--
 
 
++    Natural Bond Order analysis
      ---------------------------
      Based on LoProp computed density
      -------------------------------------------------------------------------------------
      Atom A       Atom B       Bond Order
      -------------------------------------------------------------------------------------
      NBO located      0.954 non-bonded electrons on atom H1        
      NBO located      1.014 non-bonded electrons on atom H3        
      NBO located      1.014 non-bonded electrons on atom H4        
      NBO located      0.954 non-bonded electrons on atom H6        
      The remaining    2.064 electrons are to be considered as diffuse
--
 
 
++    Molecular properties:
      ---------------------
 
      Charge (e):
                      =   -0.0000
      Dipole Moment (Debye):
      Origin of the operator (Ang)=    0.0000    0.0000    0.0000
                   X=  6.4431E-14               Y= -8.7758E-15               Z= -5.2375E-13           Total=  5.2777E-13
      Quadrupole Moment (Debye*Ang):
      Origin of the operator (Ang)=    0.0000    0.0000    5.0152
                  XX= -1.2532E+01              XY=  2.9726E-30              XZ= -2.8724E-13              YY= -1.2532E+01
                  YZ=  2.3539E-14              ZZ= -1.5116E+00
      In traceless form (Debye*Ang)
                  XX= -5.5102E+00              XY=  4.4588E-30              XZ= -4.3086E-13              YY= -5.5102E+00
                  YZ=  3.5308E-14              ZZ=  1.1020E+01
--
 
 
  Input file to MOLDEN was generated!
 
 ###############################################################################
 ###############################################################################
 ###                                                                         ###
 ###                                                                         ###
 ###    RunFile label nBas                                                   ###
 ###    was used       78 times                                              ###
 ###                                                                         ###
 ###                                                                         ###
 ###############################################################################
 ###############################################################################
--- Stop Module: scf at Fri Aug  9 15:38:33 2024 /rc=_RC_ALL_IS_WELL_ ---
*** files: H6_2.01.LprOrb H6_2.01.LoProp.molden H6_2.01.scf.molden H6_2.01.ScfOrb H6_2.01.scf.h5 xmldump
    saved to directory /home/grierjones/DDCASPT2/hydrogen_comps/minimal_2e_2o/chains/even/H6_chain/H6_2.01

>>> COPY /tmp/H6_2.01/H6_2.01.scf.h5 /home/grierjones/DDCASPT2/hydrogen_comps/minimal_2e_2o/chains/even/H6_chain/H6_2.01/

*** symbolic link created: INPORB -> H6_2.01.ScfOrb
--- Start Module: rasscf at Fri Aug  9 15:38:33 2024 ---
 
()()()()()()()()()()()()()()()()()()()()()()()()()()()()()()()()()()()()()()()()()()()()()()()()()()

                                              &RASSCF

                                   only a single process is used
                       available to each process: 2.0 GB of memory, 1 thread?
()()()()()()()()()()()()()()()()()()()()()()()()()()()()()()()()()()()()()()()()()()()()()()()()()()
 
 
      Header of the ONEINT file:
      --------------------------
      
      Integrals generated by seward 4.2.0  , Fri Aug  9 15:38:31 2024
 
 
      OrdInt status: non-squared
 
 
      Cartesian coordinates in Angstrom:
      -----------------------------------------------------
      No.  Label        X            Y            Z        
      -----------------------------------------------------
       1   H1         0.00000000   0.00000000   0.00000000
       2   H2         0.00000000   0.00000000   2.00606100
       3   H3         0.00000000   0.00000000   4.01212100
       4   H4         0.00000000   0.00000000   6.01818200
       5   H5         0.00000000   0.00000000   8.02424200
       6   H6         0.00000000   0.00000000  10.03030300
      -----------------------------------------------------
      Nuclear repulsion energy =    2.29496647
 
++    Wave function specifications:
      -----------------------------
 
      Number of closed shell electrons           0
      Number of electrons in active shells       6
      Max number of holes in RAS1 space          0
      Max nr of electrons in RAS3 space          0
      Number of inactive orbitals                0
      Number of active orbitals                  6
      Number of secondary orbitals              24
      Spin quantum number                      0.0
      State symmetry                             1
--
 
++    Orbital specifications:
      -----------------------
 
      Symmetry species                           1
                                                 a
      Frozen orbitals                            0
      Inactive orbitals                          0
      Active orbitals                            6
      RAS1 orbitals                              0
      RAS2 orbitals                              6
      RAS3 orbitals                              0
      Secondary orbitals                        24
      Deleted orbitals                           0
      Number of basis functions                 30
--
 
++    CI expansion specifications:
      ----------------------------
 
      Number of CSFs                           175
      Number of determinants                   210
      Number of root(s) required                 1
      Root chosen for geometry opt.              1
      CI root used                               1
         
      highest root included in the CI            1
      max. size of the explicit Hamiltonian    175
--
 
++    Optimization specifications:
      ----------------------------
 
      RASSCF algorithm: Conventional
      Maximum number of macro iterations       200
      Maximum number of SX iterations          100
      Threshold for RASSCF energy            0.100E-07
      Threshold for max MO rotation          0.100E+00
      Threshold for max BLB element          0.100E-03
      Level shift parameter                  0.500E+00
      Make Quasi-Newton update
--
 
      The MO-coefficients are taken from the file:
      /home/grierjones/DDCASPT2/hydrogen_comps/minimal_2e_2o/chains/even/H6_chain/H6_1.98/H6_1.98.RasOrb                              
      Title: RASSCF average (pseudo-natural) orbitals                                      
 
      Total molecular charge    0.00
 
      ************************************************************************************************************************
      *                                                                                                                      *
      *                                            Wave function control section                                             *
      *                                                                                                                      *
      ************************************************************************************************************************
 
 
                                         RASSCF iterations: Energy and convergence statistics
                                         ----------------------------------------------------
 
      Iter CI   SX   CI       RASSCF       Energy    max ROT     max BLB   max BLB  Level Ln srch  Step   QN   Walltime
          iter iter root      energy       change     param      element    value   shift minimum  type update hh:mm:ss
 Nr of preliminary CI iterations:   1
        1   1    4    1    -3.04213884    0.00E+00   0.15E-02    1   7 1 -0.15E-02*  0.02   0.00    SX    NO    0:00:00
        2   1    4    1    -3.04214507   -0.62E-05* -0.21E-03    1   7 1  0.20E-03*  0.02   0.00    SX    NO    0:00:00
        3   1    3    1    -3.04214521   -0.14E-06*  0.43E-04    3   9 1 -0.36E-04   0.02   0.00    SX    NO    0:00:00
        4   1    3    1    -3.04214522   -0.67E-08  -0.15E-04    3   9 1  0.13E-04   0.02   0.00    SX    NO    0:00:00
      Convergence after  4 iterations
        5   1    3    1    -3.04214522   -0.45E-09  -0.15E-04    3   9 1 -0.26E-05   0.02   0.00    SX    NO    0:00:00
 
      ************************************************************************************************************************
                                                      Wave function printout:
                       occupation of active orbitals, and spin coupling of open shells (u,d: Spin up or down)
      ************************************************************************************************************************
 
      Note: transformation to natural orbitals
      has been made, which may change the order of the CSFs.
 
      printout of CI-coefficients larger than  0.05 for root  1
      energy=      -3.042145
      conf/sym  111111     Coeff  Weight
             1  222000   0.65152 0.42448
            11  220200  -0.30257 0.09155
            13  220020  -0.05455 0.00298
            16  220002  -0.07636 0.00583
            20  2udu0d  -0.29684 0.08811
            21  2ud0ud   0.09273 0.00860
            24  u2dud0   0.27368 0.07490
            28  u2d002  -0.10431 0.01088
            29  202200  -0.08447 0.00714
            30  202ud0   0.10468 0.01096
            31  202020  -0.06090 0.00371
            34  202002  -0.18180 0.03305
            38  ud2u0d  -0.10295 0.01060
            39  ud20ud   0.19456 0.03785
            41  022200  -0.06648 0.00442
            42  022ud0  -0.05093 0.00259
            43  022020  -0.13567 0.01841
            46  022002  -0.06746 0.00455
            48  2uud0d   0.08680 0.00753
            50  u2udd0  -0.09363 0.00877
           123  200202   0.14468 0.02093
           127  ud02ud  -0.14488 0.02099
           132  020220   0.10102 0.01020
           136  020ud2   0.05478 0.00300
           138  u0d220   0.05465 0.00299
           142  u0dud2   0.13419 0.01801
           146  0udu2d  -0.10642 0.01132
           155  002022   0.07060 0.00498
           175  000222  -0.08666 0.00751
 
      Natural orbitals and occupation numbers for root  1
      sym 1:   1.637611   1.551677   1.390775   0.619986   0.352306   0.447644
 
      ************************************************************************************************************************
      *                                                                                                                      *
      *                                                    Final results                                                     *
      *                                                                                                                      *
      ************************************************************************************************************************
 
 
++    Wave function specifications:
      -----------------------------
 
      Number of closed shell electrons           0
      Number of electrons in active shells       6
      Max number of holes in RAS1 space          0
      Max nr of electrons in RAS3 space          0
      Number of inactive orbitals                0
      Number of active orbitals                  6
      Number of secondary orbitals              24
      Spin quantum number                      0.0
      State symmetry                             1
--
 
++    Orbital specifications:
      -----------------------
 
      Symmetry species                           1
                                                 a
      Frozen orbitals                            0
      Inactive orbitals                          0
      Active orbitals                            6
      RAS1 orbitals                              0
      RAS2 orbitals                              6
      RAS3 orbitals                              0
      Secondary orbitals                        24
      Deleted orbitals                           0
      Number of basis functions                 30
--
 
++    CI expansion specifications:
      ----------------------------
 
      Number of CSFs                           175
      Number of determinants                   210
      Number of root(s) required                 1
      CI root used                               1
      highest root included in the CI            1
      Root passed to geometry opt.               1
--
 
++    Final optimization conditions:
      ------------------------------
 
      Average CI energy                              -3.04214522
      RASSCF energy for state  1                     -3.04214522
      Super-CI energy                                -0.00000000
      RASSCF energy change                           -0.00000000
      Max change in MO coefficients               0.136E-04
      Max non-diagonal density matrix element    -0.154E-04
      Maximum BLB matrix element                 -0.256E-05
      (orbital pair   3,   9 in symmetry   1)
      Norm of electronic gradient            0.567E-05
--
 
 
      Final state energy(ies):
      ------------------------
 
::    RASSCF root number  1 Total energy:     -3.04214522
 
++    Molecular orbitals:
      -------------------
 
      Pseudonatural active orbitals and approximate occupation numbers
 
 
 
 
      Molecular orbitals for symmetry species 1: a  
 
 
      Orbital                1         2         3         4         5         6         7         8         9        10
      Energy            0.0000    0.0000    0.0000    0.0000    0.0000    0.0000    0.3257    0.3580    0.4286    0.5544
      Occ. No.          1.6376    1.5517    1.3908    0.6200    0.3523    0.4476    0.0000    0.0000    0.0000    0.0000
 
    1 H1     1s         0.2415   -0.4132    0.4063   -0.4860    0.3589   -0.5585   -0.1041   -0.0842   -0.0781   -0.2816
    2 H1     2s         0.0146   -0.0291    0.0343   -0.0512    0.0448   -0.0636    0.3287    0.5672   -0.6941   -0.7016
    3 H1     2px       -0.0000    0.0000    0.0000    0.0000   -0.0000    0.0000    0.0000    0.0000   -0.0000   -0.0000
    4 H1     2py       -0.0000    0.0000   -0.0000    0.0000   -0.0000    0.0000   -0.0000    0.0000   -0.0000   -0.0000
    5 H1     2pz        0.0047   -0.0060    0.0037   -0.0025    0.0038   -0.0043   -0.0350   -0.0479    0.0423    0.0555
    6 H2     1s         0.3336   -0.4546    0.2999    0.2769   -0.5604    0.6245   -0.2016   -0.2035    0.0802    0.1355
    7 H2     2s         0.0183   -0.0466    0.0567    0.0177   -0.1051    0.0958    0.2344    0.2168    0.1449    0.7401
    8 H2     2px        0.0000   -0.0000   -0.0000   -0.0000   -0.0000    0.0000   -0.0000   -0.0000   -0.0000   -0.0000
    9 H2     2py       -0.0000    0.0000   -0.0000    0.0000    0.0000    0.0000   -0.0000   -0.0000   -0.0000   -0.0000
   10 H2     2pz        0.0022    0.0032   -0.0086    0.0045    0.0015   -0.0002    0.0053    0.0336   -0.0579   -0.0271
   11 H3     1s         0.4201   -0.1014   -0.4655    0.5229    0.6955   -0.2063   -0.1888   -0.0281   -0.1273    0.0182
   12 H3     2s         0.0252    0.0057   -0.0657    0.0693    0.1302   -0.0479    0.3001    0.1344    0.4118    0.4781
   13 H3     2px       -0.0000    0.0000   -0.0000   -0.0000    0.0000    0.0000    0.0000    0.0000   -0.0000    0.0000
   14 H3     2py        0.0000   -0.0000    0.0000   -0.0000   -0.0000    0.0000   -0.0000   -0.0000   -0.0000    0.0000
   15 H3     2pz        0.0008    0.0062   -0.0060   -0.0023    0.0033   -0.0024   -0.0058    0.0216   -0.0144    0.0164
   16 H4     1s         0.4201    0.1014   -0.4655   -0.5229   -0.6955   -0.2063   -0.1888    0.0281   -0.1273   -0.0182
   17 H4     2s         0.0252   -0.0057   -0.0657   -0.0693   -0.1302   -0.0479    0.3001   -0.1344    0.4118   -0.4781
   18 H4     2px       -0.0000   -0.0000    0.0000   -0.0000   -0.0000   -0.0000   -0.0000   -0.0000    0.0000    0.0000
   19 H4     2py        0.0000   -0.0000    0.0000    0.0000    0.0000   -0.0000   -0.0000   -0.0000    0.0000   -0.0000
   20 H4     2pz       -0.0008    0.0062    0.0060   -0.0023    0.0033    0.0024    0.0058    0.0216    0.0144    0.0164
   21 H5     1s         0.3336    0.4546    0.2999   -0.2769    0.5604    0.6245   -0.2016    0.2035    0.0802   -0.1355
   22 H5     2s         0.0183    0.0466    0.0567   -0.0177    0.1051    0.0958    0.2344   -0.2168    0.1449   -0.7401
   23 H5     2px        0.0000   -0.0000   -0.0000    0.0000    0.0000    0.0000   -0.0000   -0.0000    0.0000    0.0000
   24 H5     2py        0.0000   -0.0000    0.0000    0.0000   -0.0000   -0.0000   -0.0000    0.0000    0.0000   -0.0000
   25 H5     2pz       -0.0022    0.0032    0.0086    0.0045    0.0015    0.0002   -0.0053    0.0336    0.0579   -0.0271
   26 H6     1s         0.2415    0.4132    0.4063    0.4860   -0.3589   -0.5585   -0.1041    0.0842   -0.0781    0.2816
   27 H6     2s         0.0146    0.0291    0.0343    0.0512   -0.0448   -0.0636    0.3287   -0.5672   -0.6941    0.7016
   28 H6     2px        0.0000   -0.0000   -0.0000   -0.0000   -0.0000    0.0000   -0.0000   -0.0000   -0.0000    0.0000
   29 H6     2py       -0.0000   -0.0000   -0.0000    0.0000   -0.0000    0.0000    0.0000   -0.0000   -0.0000   -0.0000
   30 H6     2pz       -0.0047   -0.0060   -0.0037   -0.0025    0.0038    0.0043    0.0350   -0.0479   -0.0423    0.0555
 
 
      Orbital               11        12        13        14        15        16        17        18        19        20
      Energy            0.7149    0.7441    0.7653    0.7653    0.7841    0.8174    0.8174    0.8987    0.8987    1.0020
      Occ. No.          0.0000    0.0000    0.0000    0.0000    0.0000    0.0000    0.0000    0.0000    0.0000    0.0000
 
    1 H1     1s        -0.2512   -0.2756   -0.0000   -0.0000    0.2057    0.0000   -0.0000    0.0000    0.0000    0.0000
    2 H1     2s        -0.4398   -0.2402    0.0000    0.0000    0.0899    0.0000    0.0000    0.0000   -0.0000    0.0000
    3 H1     2px       -0.0000   -0.0000    0.0537   -0.2024    0.0000   -0.3227   -0.2202   -0.4069    0.3047   -0.4239
    4 H1     2py       -0.0000    0.0000   -0.2024   -0.0537   -0.0000    0.2202   -0.3227    0.3047    0.4069    0.3271
    5 H1     2pz        0.0091    0.3299    0.0000    0.0000   -0.3641   -0.0000   -0.0000   -0.0000    0.0000   -0.0000
    6 H2     1s         0.3046    0.2421    0.0000    0.0000   -0.2074   -0.0000   -0.0000    0.0000   -0.0000    0.0000
    7 H2     2s         0.9379    0.6152   -0.0000   -0.0000   -0.4489   -0.0000   -0.0000   -0.0000    0.0000   -0.0000
    8 H2     2px       -0.0000   -0.0000    0.0968   -0.3649    0.0000   -0.4019   -0.2742   -0.1830    0.1370    0.1896
    9 H2     2py       -0.0000    0.0000   -0.3649   -0.0968   -0.0000    0.2742   -0.4019    0.1370    0.1830   -0.1463
   10 H2     2pz        0.1587   -0.3251   -0.0000   -0.0000    0.3471    0.0000    0.0000    0.0000   -0.0000    0.0000
   11 H3     1s        -0.1451   -0.1109   -0.0000   -0.0000    0.2668    0.0000    0.0000    0.0000   -0.0000   -0.0000
   12 H3     2s        -0.5190   -0.3506   -0.0000   -0.0000    0.7154    0.0000    0.0000    0.0000   -0.0000    0.0000
   13 H3     2px       -0.0000   -0.0000    0.1213   -0.4574   -0.0000   -0.1783   -0.1217    0.3269   -0.2448    0.3420
   14 H3     2py       -0.0000   -0.0000   -0.4574   -0.1213   -0.0000    0.1217   -0.1783   -0.2448   -0.3269   -0.2640
   15 H3     2pz       -0.3057    0.2749    0.0000   -0.0000   -0.1443   -0.0000   -0.0000   -0.0000    0.0000   -0.0000
   16 H4     1s        -0.1451   -0.1109    0.0000    0.0000   -0.2668   -0.0000   -0.0000    0.0000   -0.0000   -0.0000
   17 H4     2s        -0.5190   -0.3506   -0.0000    0.0000   -0.7154   -0.0000   -0.0000   -0.0000   -0.0000    0.0000
   18 H4     2px        0.0000   -0.0000    0.1213   -0.4574   -0.0000    0.1783    0.1217    0.3269   -0.2448   -0.3420
   19 H4     2py        0.0000    0.0000   -0.4574   -0.1213   -0.0000   -0.1217    0.1783   -0.2448   -0.3269    0.2640
   20 H4     2pz        0.3057   -0.2749   -0.0000    0.0000   -0.1443   -0.0000   -0.0000   -0.0000    0.0000    0.0000
   21 H5     1s         0.3046    0.2421   -0.0000   -0.0000    0.2074   -0.0000    0.0000   -0.0000    0.0000   -0.0000
   22 H5     2s         0.9379    0.6152    0.0000   -0.0000    0.4489    0.0000   -0.0000   -0.0000    0.0000   -0.0000
   23 H5     2px        0.0000   -0.0000    0.0968   -0.3649   -0.0000    0.4019    0.2742   -0.1830    0.1370   -0.1896
   24 H5     2py        0.0000    0.0000   -0.3649   -0.0968   -0.0000   -0.2742    0.4019    0.1370    0.1830    0.1463
   25 H5     2pz       -0.1587    0.3251    0.0000   -0.0000    0.3471    0.0000    0.0000    0.0000   -0.0000    0.0000
   26 H6     1s        -0.2512   -0.2756   -0.0000    0.0000   -0.2057   -0.0000   -0.0000   -0.0000   -0.0000    0.0000
   27 H6     2s        -0.4398   -0.2402   -0.0000    0.0000   -0.0899   -0.0000    0.0000    0.0000   -0.0000    0.0000
   28 H6     2px       -0.0000   -0.0000    0.0537   -0.2024   -0.0000    0.3227    0.2202   -0.4069    0.3047    0.4239
   29 H6     2py        0.0000   -0.0000   -0.2024   -0.0537   -0.0000   -0.2202    0.3227    0.3047    0.4069   -0.3271
   30 H6     2pz       -0.0091   -0.3299   -0.0000    0.0000   -0.3641   -0.0000   -0.0000   -0.0000   -0.0000   -0.0000
 
 
      Orbital               21        22        23        24        25        26        27        28        29        30
      Energy            1.0020    1.1066    1.1066    1.1872    1.1872    1.2440    1.2867    1.3798    1.5880    1.7860
      Occ. No.          0.0000    0.0000    0.0000    0.0000    0.0000    0.0000    0.0000    0.0000    0.0000    0.0000
 
    1 H1     1s        -0.0000   -0.0000   -0.0000   -0.0000    0.0000   -0.3280    0.2835    0.3116   -0.2441    0.1549
    2 H1     2s         0.0000   -0.0000   -0.0000   -0.0000   -0.0000   -0.5303    0.4146    0.4170   -0.2220    0.1039
    3 H1     2px       -0.3271    0.4122   -0.1871    0.1214    0.2306   -0.0000   -0.0000   -0.0000    0.0000   -0.0000
    4 H1     2py       -0.4239   -0.1871   -0.4122   -0.2306    0.1214    0.0000   -0.0000   -0.0000   -0.0000    0.0000
    5 H1     2pz       -0.0000    0.0000   -0.0000   -0.0000    0.0000   -0.5163    0.1838    0.6193   -0.5168    0.3026
    6 H2     1s        -0.0000    0.0000    0.0000    0.0000    0.0000    0.7396   -0.8458   -0.5086    0.1055    0.0475
    7 H2     2s        -0.0000    0.0000    0.0000    0.0000   -0.0000    1.0085   -1.2899   -0.5546    0.1217   -0.0324
    8 H2     2px        0.1463   -0.5145    0.2335   -0.2188   -0.4157    0.0000   -0.0000   -0.0000   -0.0000    0.0000
    9 H2     2py        0.1896    0.2335    0.5145    0.4157   -0.2188   -0.0000    0.0000    0.0000   -0.0000    0.0000
   10 H2     2pz        0.0000   -0.0000    0.0000    0.0000   -0.0000    0.1586   -0.3702    0.3206   -0.7351    0.6078
   11 H3     1s        -0.0000    0.0000   -0.0000   -0.0000    0.0000   -0.4045    1.3700    0.0183    0.1840    0.0522
   12 H3     2s        -0.0000   -0.0000   -0.0000   -0.0000    0.0000   -0.5375    2.0350    0.1693    0.0530    0.0433
   13 H3     2px        0.2640    0.2277   -0.1033    0.2725    0.5178   -0.0000    0.0000    0.0000   -0.0000    0.0000
   14 H3     2py        0.3420   -0.1033   -0.2277   -0.5178    0.2725    0.0000   -0.0000   -0.0000    0.0000    0.0000
   15 H3     2pz       -0.0000    0.0000   -0.0000    0.0000    0.0000    0.5317    0.2008   -0.5029   -0.3124    0.7647
   16 H4     1s        -0.0000    0.0000    0.0000    0.0000    0.0000   -0.4045   -1.3700   -0.0183    0.1840   -0.0522
   17 H4     2s         0.0000   -0.0000    0.0000    0.0000   -0.0000   -0.5375   -2.0350   -0.1693    0.0530   -0.0433
   18 H4     2px       -0.2640    0.2277   -0.1033   -0.2725   -0.5178   -0.0000   -0.0000   -0.0000    0.0000    0.0000
   19 H4     2py       -0.3420   -0.1033   -0.2277    0.5178   -0.2725   -0.0000    0.0000    0.0000    0.0000    0.0000
   20 H4     2pz       -0.0000   -0.0000   -0.0000   -0.0000    0.0000   -0.5317    0.2008   -0.5029    0.3124    0.7647
   21 H5     1s        -0.0000    0.0000   -0.0000   -0.0000   -0.0000    0.7396    0.8458    0.5086    0.1055   -0.0475
   22 H5     2s        -0.0000    0.0000   -0.0000   -0.0000    0.0000    1.0085    1.2899    0.5546    0.1217    0.0324
   23 H5     2px       -0.1463   -0.5145    0.2335    0.2188    0.4157    0.0000    0.0000    0.0000   -0.0000   -0.0000
   24 H5     2py       -0.1896    0.2335    0.5145   -0.4157    0.2188    0.0000   -0.0000   -0.0000   -0.0000   -0.0000
   25 H5     2pz        0.0000   -0.0000    0.0000    0.0000   -0.0000   -0.1586   -0.3702    0.3206    0.7351    0.6078
   26 H6     1s         0.0000   -0.0000   -0.0000    0.0000   -0.0000   -0.3280   -0.2835   -0.3116   -0.2441   -0.1549
   27 H6     2s        -0.0000   -0.0000    0.0000    0.0000   -0.0000   -0.5303   -0.4146   -0.4170   -0.2220   -0.1039
   28 H6     2px        0.3271    0.4122   -0.1871   -0.1214   -0.2306    0.0000   -0.0000   -0.0000   -0.0000   -0.0000
   29 H6     2py        0.4239   -0.1871   -0.4122    0.2306   -0.1214   -0.0000    0.0000    0.0000    0.0000    0.0000
   30 H6     2pz       -0.0000    0.0000   -0.0000   -0.0000   -0.0000    0.5163    0.1838    0.6193    0.5168    0.3026
--
 
      Von Neumann Entropy (Root  1) =  2.33313
 

      Mulliken population analysis for root number:  1
      -----------------------------------------------
 
 
++    Molecular charges:
      ------------------
 
      Mulliken charges per centre and basis function type
      ---------------------------------------------------
 
                H1      H2      H3      H4      H5      H6    
      1s       0.9802  1.0031  1.0004  1.0004  1.0031  0.9802
      2s       0.0087  0.0027 -0.0043 -0.0043  0.0027  0.0087
      2px      0.0000  0.0000  0.0000  0.0000  0.0000  0.0000
      2pz      0.0016  0.0040  0.0036  0.0036  0.0040  0.0016
      2py      0.0000  0.0000  0.0000  0.0000  0.0000  0.0000
      Total    0.9905  1.0098  0.9997  0.9997  1.0098  0.9905
 
      N-E      0.0095 -0.0098  0.0003  0.0003 -0.0098  0.0095
 
      Total electronic charge=    6.000000
 
      Total            charge=   -0.000000
--
 
 

      Expectation values of various properties for root number:  1
      -----------------------------------------------------------
 
 
++    Molecular properties:
      ---------------------
 
      Charge (e):
                      =   -0.0000
      Dipole Moment (Debye):
      Origin of the operator (Ang)=    0.0000    0.0000    0.0000
                   X=  2.1497E-13               Y=  4.5608E-13               Z=  1.9144E-12           Total=  1.9797E-12
      Quadrupole Moment (Debye*Ang):
      Origin of the operator (Ang)=    0.0000    0.0000    5.0152
                  XX= -9.2485E+00              XY=  3.2289E-28              XZ= -5.8323E-13              YY= -9.2485E+00
                  YZ= -6.2553E-13              ZZ= -7.0044E+00
      In traceless form (Debye*Ang)
                  XX= -1.1221E+00              XY=  4.8433E-28              XZ= -8.7484E-13              YY= -1.1221E+00
                  YZ= -9.3829E-13              ZZ=  2.2441E+00
--
 

      LoProp population analysis for root number:  1
      -----------------------------------------------
 
 
++    LoProp analysis:
      ----------------
 
 
 
  Input file to MOLDEN was generated!
 
 
++    Static properties:
      ------------------
 
 
      LoProp Charges per center
 

                   H1       H2       H3       H4       H5       H6    
      Nuclear      1.0000   1.0000   1.0000   1.0000   1.0000   1.0000
      Electronic  -0.9999  -1.0001  -1.0000  -1.0000  -1.0001  -0.9999
 
      Total        0.0001  -0.0001   0.0000   0.0000  -0.0001   0.0001
--
 
 
      Natural Bond Order analysis for root number:  1
 
++    Natural Bond Order analysis
      ---------------------------
      Based on LoProp computed density
      -------------------------------------------------------------------------------------
      Atom A       Atom B       Bond Order
      -------------------------------------------------------------------------------------
      NBO located      0.995 non-bonded electrons on atom H1        
      NBO located      1.018 non-bonded electrons on atom H3        
      NBO located      1.018 non-bonded electrons on atom H4        
      NBO located      0.995 non-bonded electrons on atom H6        
      The remaining    1.974 electrons are to be considered as diffuse
--
 
--
 
 
  Input file to MOLDEN was generated!
 
      Average orbitals are written to the RASORB file
      Natural orbitals for root   1 are written to the RASORB.1 file
      Spin density orbitals for root   1 are written to the SPDORB.1 file
 
--- Stop Module: rasscf at Fri Aug  9 15:38:33 2024 /rc=_RC_ALL_IS_WELL_ ---
*** files: H6_2.01.LprOrb H6_2.01.rasscf.molden H6_2.01.LoProp.molden H6_2.01.RasOrb H6_2.01.RasOrb.1 H6_2.01.rasscf.h5 H6_2.01.SpdOrb.1 xmldump
    saved to directory /home/grierjones/DDCASPT2/hydrogen_comps/minimal_2e_2o/chains/even/H6_chain/H6_2.01

>>> COPY /tmp/H6_2.01/H6_2.01.rasscf.h5 /home/grierjones/DDCASPT2/hydrogen_comps/minimal_2e_2o/chains/even/H6_chain/H6_2.01/

>>> COPY /tmp/H6_2.01/GMJ_Fock_MO.csv /home/grierjones/DDCASPT2/hydrogen_comps/minimal_2e_2o/chains/even/H6_chain/H6_2.01/H6_2.01.GMJ_Fock_MO.csv

*** symbolic link created: INPORB -> H6_2.01.RasOrb
--- Start Module: caspt2 at Fri Aug  9 15:38:33 2024 ---
 
()()()()()()()()()()()()()()()()()()()()()()()()()()()()()()()()()()()()()()()()()()()()()()()()()()

                                              &CASPT2

                                   only a single process is used
                       available to each process: 2.0 GB of memory, 1 thread?
()()()()()()()()()()()()()()()()()()()()()()()()()()()()()()()()()()()()()()()()()()()()()()()()()()
 
 Cholesky algorithm in CASPT2 =    1
 
 ###############################################################################
 ###############################################################################
 ###                                                                         ###
 ###                                                                         ###
 ###    User changed nr of frozen orbitals.                                  ###
 ###                                                                         ###
 ###                                                                         ###
 ###############################################################################
 ###############################################################################
 
++    Wave function specifications:
      -----------------------------
 
      Number of closed shell electrons           0
      Number of electrons in active shells       6
      Max number of holes in RAS1 space          0
      Max number of electrons in RAS3 space      0
      Number of inactive orbitals                0
      Number of active orbitals                  6
      Number of secondary orbitals              24
      Spin quantum number                      0.0
      State symmetry                             1
      Number of CSFs                           175
      Number of root(s) available                1
      Root passed to geometry opt.               1
      A file JOBMIX will be created.
      This is a CASSCF or RASSCF reference function
--
 
++    Orbital specifications:
      -----------------------
 
      Symmetry species                           1
                                                 a
      Frozen orbitals                            0
      Inactive orbitals                          0
      Active orbitals                            6
      Secondary orbitals                        24
      Deleted orbitals                           0
      Number of basis functions                 30
--
 
      Type of Fock operator: STANDARD
      Type of 0-order Hamiltonian: STANDARD WITH DEFAULT IPEA
        "IP-EA" denominator shift =      0.25
      The input orbitals and the CI vector will be transformed.
 
--------------------------------------------------------------------------------
 Estimated memory requirements:
  POLY3 :                   262414
  RHS:                      285604
  SIGMA :                   275200
  PRPCTL:                        0
 Available workspace:    230396124
 
++ CASPT2 computation for group   1
 
********************************************************************************
 Multi-State initialization phase begins for group   1
--------------------------------------------------------------------------------
********************************************************************************
 Compute H0 matrices for state    1
--------------------------------------------------------------------------------
--------------------------------------------------------------------------------
 H0 matrices have been computed.
 
********************************************************************************
  CASPT2 EQUATION SOLUTION
--------------------------------------------------------------------------------
 
  Total nr of CASPT2 parameters:
   Before reduction:       15624
   After  reduction:       15168
 
 The contributions to the second order correlation energy in atomic units.
-----------------------------------------------------------------------------------------------------------------------------
  IT.      VJTU        VJTI        ATVX        AIVX        VJAI        BVAT        BJAT        BJAI        TOTAL       RNORM  
-----------------------------------------------------------------------------------------------------------------------------
   1     0.000000    0.000000   -0.002562    0.000000    0.000000   -0.006650    0.000000    0.000000   -0.009212    0.000890
   2     0.000000    0.000000   -0.002589    0.000000    0.000000   -0.006659    0.000000    0.000000   -0.009248    0.000090
   3     0.000000    0.000000   -0.002589    0.000000    0.000000   -0.006660    0.000000    0.000000   -0.009249    0.000015
   4     0.000000    0.000000   -0.002589    0.000000    0.000000   -0.006660    0.000000    0.000000   -0.009249    0.000002
-------------------------------------------------------------------------------------------------------------------
 
  FINAL CASPT2 RESULT:
 
  Correlation energy /Case, /Symm, and sums:
 VJTU      0.00000000  0.00000000
 VJTIP     0.00000000  0.00000000
 VJTIM     0.00000000  0.00000000
 ATVX     -0.00258898 -0.00258898
 AIVX      0.00000000  0.00000000
 VJAIP     0.00000000  0.00000000
 VJAIM     0.00000000  0.00000000
 BVATP    -0.00631942 -0.00631942
 BVATM    -0.00034018 -0.00034018
 BJATP     0.00000000  0.00000000
 BJATM     0.00000000  0.00000000
 BJAIP     0.00000000  0.00000000
 BJAIM     0.00000000  0.00000000
 Summed:  -0.00924858 -0.00924858
 
      Reference energy:          -3.0421452213
      E2 (Non-variational):      -0.0092485821
      E2 (Variational):          -0.0092485852
      Total energy:              -3.0513938065
      Residual norm:              0.0000002107
      Reference weight:           0.99453
 
      Contributions to the CASPT2 correlation energy
      Active & Virtual Only:         -0.0092485821
      One Inactive Excited:           0.0000000000
      Two Inactive Excited:           0.0000000000
 
 
++ Denominators, etc.
----------------------------------------------------------------------------------------------------
 Report on small energy denominators, large coefficients, and large energy contributions.
CASE  SYMM ACTIVE-MIX  NON-ACTIVE INDICES          DENOMINATOR     RHS VALUE       COEFFICIENT     CONTRIBUTION
--
 
   (Skipping property calculation,
    use PROP keyword to activate)
--
 
  Total CASPT2 energies:
::    CASPT2 Root  1     Total energy:     -3.05139381
 
  A NEW JOBIPH FILE NAMED 'JOBMIX' IS PREPARED.
********************************************************************************
--- Stop Module: caspt2 at Fri Aug  9 15:38:33 2024 /rc=_RC_ALL_IS_WELL_ ---
*** files: xmldump
    saved to directory /home/grierjones/DDCASPT2/hydrogen_comps/minimal_2e_2o/chains/even/H6_chain/H6_2.01

>>> EXPORT i = B

>>> EXPORT j = P

>>> IF (-FILE GMJ_e2_${i}_${j}.csv)
(Skipped)

>>> END FOREACH

>>> EXPORT j = M

>>> IF (-FILE GMJ_e2_${i}_${j}.csv)
(Skipped)

>>> END FOREACH

>>> END FOREACH

>>> EXPORT i = E

>>> EXPORT j = P

>>> IF (-FILE GMJ_e2_${i}_${j}.csv)
(Skipped)

>>> END FOREACH

>>> EXPORT j = M

>>> IF (-FILE GMJ_e2_${i}_${j}.csv)
(Skipped)

>>> END FOREACH

>>> END FOREACH

>>> EXPORT i = F

>>> EXPORT j = P

>>> IF (-FILE GMJ_e2_${i}_${j}.csv)

>>> COPY /tmp/H6_2.01/GMJ_RHS_F_P.csv /home/grierjones/DDCASPT2/hydrogen_comps/minimal_2e_2o/chains/even/H6_chain/H6_2.01/GMJ_RHS_F_P.csv

>>> COPY /tmp/H6_2.01/GMJ_IVECW_F_P.csv /home/grierjones/DDCASPT2/hydrogen_comps/minimal_2e_2o/chains/even/H6_chain/H6_2.01/GMJ_IVECW_F_P.csv

>>> COPY /tmp/H6_2.01/GMJ_e2_F_P.csv /home/grierjones/DDCASPT2/hydrogen_comps/minimal_2e_2o/chains/even/H6_chain/H6_2.01/GMJ_e2_F_P.csv

>>> END FOREACH

>>> EXPORT j = M

>>> IF (-FILE GMJ_e2_${i}_${j}.csv)

>>> COPY /tmp/H6_2.01/GMJ_RHS_F_M.csv /home/grierjones/DDCASPT2/hydrogen_comps/minimal_2e_2o/chains/even/H6_chain/H6_2.01/GMJ_RHS_F_M.csv

>>> COPY /tmp/H6_2.01/GMJ_IVECW_F_M.csv /home/grierjones/DDCASPT2/hydrogen_comps/minimal_2e_2o/chains/even/H6_chain/H6_2.01/GMJ_IVECW_F_M.csv

>>> COPY /tmp/H6_2.01/GMJ_e2_F_M.csv /home/grierjones/DDCASPT2/hydrogen_comps/minimal_2e_2o/chains/even/H6_chain/H6_2.01/GMJ_e2_F_M.csv

>>> END FOREACH

>>> END FOREACH

>>> EXPORT i = G

>>> EXPORT j = P

>>> IF (-FILE GMJ_e2_${i}_${j}.csv)
(Skipped)

>>> END FOREACH

>>> EXPORT j = M

>>> IF (-FILE GMJ_e2_${i}_${j}.csv)
(Skipped)

>>> END FOREACH

>>> END FOREACH

>>> EXPORT i = H

>>> EXPORT j = P

>>> IF (-FILE GMJ_e2_${i}_${j}.csv)
(Skipped)

>>> END FOREACH

>>> EXPORT j = M

>>> IF (-FILE GMJ_e2_${i}_${j}.csv)
(Skipped)

>>> END FOREACH

>>> END FOREACH

>>> EXPORT i = A

>>> IF (-FILE GMJ_e2_$i.csv)
(Skipped)

>>> END FOREACH

>>> EXPORT i = C

>>> IF (-FILE GMJ_e2_$i.csv)

>>> COPY /tmp/H6_2.01/GMJ_RHS_C.csv /home/grierjones/DDCASPT2/hydrogen_comps/minimal_2e_2o/chains/even/H6_chain/H6_2.01/GMJ_RHS_C.csv

>>> COPY /tmp/H6_2.01/GMJ_IVECW_C.csv /home/grierjones/DDCASPT2/hydrogen_comps/minimal_2e_2o/chains/even/H6_chain/H6_2.01/GMJ_IVECW_C.csv

>>> COPY /tmp/H6_2.01/GMJ_e2_C.csv /home/grierjones/DDCASPT2/hydrogen_comps/minimal_2e_2o/chains/even/H6_chain/H6_2.01/GMJ_e2_C.csv

>>> END FOREACH

>>> EXPORT i = D

>>> IF (-FILE GMJ_e2_$i.csv)
(Skipped)

>>> END FOREACH

.########################.
.# Non-zero return code #.
.########################.

    Timing: Wall=2.75 User=1.71 System=1.02
***************************************
*** WorkDir at /tmp/H6_2.01 cleaned ***
***************************************
