[Molden Format]
[N_Atoms]
                     2
[Atoms] (AU)
BE1         1      4           0.00000000      0.00000000      0.00000000
N2          2      7           0.00000000      0.00000000      1.70075351
[Charge] (Mulliken)
  0.710003849036293     
 -0.710003849036330     
[GTO] (AU)
   1
   s  14
  2.262859900E+04  8.443999941E-05
  3.372318100E+03  4.601499968E-04
  7.603504000E+02  2.285389984E-03
  2.117404800E+02  9.648129932E-03
  6.722346800E+01  3.494469975E-02
  2.337217700E+01  1.061099893E-01
  8.721373000E+00  2.458240383E-01
  3.468091000E+00  3.862428773E-01
  1.452144000E+00  3.105526078E-01
  6.086150000E-01  6.415933955E-02
  2.576860000E-01 -2.265049984E-03
  1.041760000E-01 -5.217499963E-04
  4.242700000E-02 -8.757499938E-04
  1.484900000E-02  1.242199991E-04
   s  14
  2.262859900E+04 -1.586999994E-05
  3.372318100E+03 -8.656999968E-05
  7.603504000E+02 -4.302199984E-04
  2.117404800E+02 -1.825079993E-03
  6.722346800E+01 -6.682749976E-03
  2.337217700E+01 -2.095119992E-02
  8.721373000E+00 -5.200308981E-02
  3.468091000E+00 -9.849176964E-02
  1.452144000E+00 -1.355800695E-01
  6.086150000E-01 -6.429875976E-02
  2.576860000E-01  3.125414989E-01
  1.041760000E-01  6.270468577E-01
  4.242700000E-02  2.110231492E-01
  1.484900000E-02 -4.104669985E-03
   p   9
  3.371018400E+01  1.069960000E-03
  8.057649500E+00  6.828550001E-03
  2.836471400E+00  2.119065000E-02
  1.099965700E+00  5.843696001E-02
  4.433964000E-01  2.020920800E-01
  1.822264000E-01  4.582953101E-01
  7.572410000E-02  3.691239601E-01
  3.168540000E-02  6.611471001E-02
  1.108990000E-02  1.405160000E-03
 
   2
   s  14
  7.476171500E+04  1.182599996E-04
  1.112365400E+04  5.172899983E-04
  2.512685700E+03  2.266659992E-03
  7.037772900E+02  9.145289970E-03
  2.254787900E+02  3.239342989E-02
  7.961581000E+01  9.770792967E-02
  3.023728300E+01  2.317036792E-01
  1.226362200E+01  3.768898887E-01
  5.265086000E+00  3.177420689E-01
  2.333471000E+00  8.211308973E-02
  9.018560000E-01  3.312089989E-03
  3.583360000E-01  3.720819988E-03
  1.410930000E-01  3.165419989E-03
  4.938300000E-02  4.595799985E-04
   s  14
  7.476171500E+04 -2.707000010E-05
  1.112365400E+04 -1.183700004E-04
  2.512685700E+03 -5.203800020E-04
  7.037772900E+02 -2.102930008E-03
  2.254787900E+02 -7.568200028E-03
  7.961581000E+01 -2.346767009E-02
  3.023728300E+01 -6.042901023E-02
  1.226362200E+01 -1.170549104E-01
  5.265086000E+00 -1.555321506E-01
  2.333471000E+00 -2.468935009E-02
  9.018560000E-01  3.625054514E-01
  3.583360000E-01  5.550845021E-01
  1.410930000E-01  2.148376908E-01
  4.938300000E-02  8.983850034E-03
   p   9
  1.266665700E+02  1.233630000E-03
  2.983738900E+01  9.493409996E-03
  9.394038000E+00  4.293961998E-02
  3.405104000E+00  1.362925399E-01
  1.350000000E+00  2.921362499E-01
  5.576960000E-01  3.887887598E-01
  2.324490000E-01  2.946801399E-01
  9.426400000E-02  8.012875997E-02
  3.299200000E-02  5.405199998E-04
 
[MO]
Sym=     1a  
Ene=   -15.5720
Spin= Alpha
Occup=    1.00000
   1        -0.00208320
   2        -0.00525087
   3        -0.00000000
   4        -0.00000000
   5        -0.00258999
   6         1.00084834
   7         0.00223647
   8         0.00000000
   9         0.00000000
  10        -0.00323281
Sym=     1a  
Ene=   -15.5240
Spin= Beta
Occup=    1.00000
   1        -0.00130188
   2        -0.00350287
   3        -0.00000000
   4        -0.00000000
   5        -0.00135854
   6         1.00050108
   7        -0.00240968
   8         0.00000000
   9         0.00000000
  10        -0.00325396
Sym=     2a  
Ene=    -4.8956
Spin= Alpha
Occup=    1.00000
   1         0.98459974
   2        -0.01234703
   3         0.00000000
   4         0.00000000
   5        -0.00052273
   6        -0.01165669
   7         0.03006294
   8        -0.00000000
   9        -0.00000000
  10        -0.02776281
Sym=     2a  
Ene=    -4.8610
Spin= Beta
Occup=    1.00000
   1         0.98566503
   2        -0.01003491
   3         0.00000000
   4         0.00000000
   5        -0.00103003
   6        -0.01154757
   7         0.02973501
   8        -0.00000000
   9        -0.00000000
  10        -0.02471458
Sym=     3a  
Ene=    -1.0710
Spin= Alpha
Occup=    1.00000
   1        -0.28317406
   2        -0.02187853
   3        -0.00000000
   4         0.00000000
   5         0.08654964
   6        -0.00372383
   7         0.98211433
   8        -0.00000000
   9         0.00000000
  10        -0.17057673
Sym=     3a  
Ene=    -0.9207
Spin= Beta
Occup=    1.00000
   1        -0.28630194
   2         0.06136035
   3        -0.00000000
   4         0.00000000
   5         0.14420434
   6        -0.01664184
   7         0.88330078
   8        -0.00000000
   9         0.00000000
  10        -0.24301671
Sym=     4a  
Ene=    -0.5175
Spin= Alpha
Occup=    1.00000
   1         0.32108465
   2         0.06287627
   3         0.00000000
   4        -0.00000000
   5        -0.15018306
   6         0.01308398
   7         0.13979617
   8         0.00000000
   9         0.00000000
  10         1.06102347
Sym=     4a  
Ene=    -0.4456
Spin= Beta
Occup=    1.00000
   1         0.00000000
   2         0.00000000
   3         0.23027085
   4         0.36586937
   5         0.00000000
   6        -0.00000000
   7        -0.00000000
   8         0.37626112
   9         0.59782827
  10        -0.00000000
Sym=     5a  
Ene=    -0.5074
Spin= Alpha
Occup=    1.00000
   1         0.00000000
   2        -0.00000000
   3        -0.07653935
   4        -0.30767638
   5        -0.00000000
   6         0.00000000
   7         0.00000000
   8        -0.19294419
   9        -0.77560587
  10         0.00000000
Sym=     5a  
Ene=    -0.4456
Spin= Beta
Occup=    1.00000
   1        -0.00000000
   2         0.00000000
   3         0.36586937
   4        -0.23027085
   5        -0.00000000
   6        -0.00000000
   7        -0.00000000
   8         0.59782827
   9        -0.37626112
  10        -0.00000000
Sym=     6a  
Ene=    -0.5074
Spin= Alpha
Occup=    1.00000
   1         0.00000000
   2        -0.00000000
   3        -0.30767638
   4         0.07653935
   5        -0.00000000
   6         0.00000000
   7         0.00000000
   8        -0.77560587
   9         0.19294419
  10         0.00000000
Sym=     6a  
Ene=    -0.0246
Spin= Beta
Occup=    0.00000
   1        -0.06349345
   2        -0.85465938
   3        -0.00000000
   4        -0.00000000
   5         0.57899946
   6        -0.00203746
   7         0.18247036
   8         0.00000000
   9        -0.00000000
  10        -0.07475202
Sym=     7a  
Ene=    -0.0179
Spin= Alpha
Occup=    0.00000
   1        -0.07451369
   2        -0.86938437
   3        -0.00000000
   4        -0.00000000
   5         0.57323256
   6        -0.00041453
   7         0.15518018
   8         0.00000000
   9        -0.00000000
  10        -0.12305772
Sym=     7a  
Ene=     0.2825
Spin= Beta
Occup=    0.00000
   1         0.34222147
   2         0.24124269
   3        -0.00000000
   4        -0.00000000
   5        -0.03237287
   6        -0.01818902
   7         0.03545873
   8         0.00000000
   9         0.00000000
  10         1.06993784
Sym=     8a  
Ene=     0.3215
Spin= Alpha
Occup=    0.00000
   1        -0.00000000
   2         0.00000000
   3        -0.01987994
   4        -1.12197949
   5         0.00000000
   6        -0.00000000
   7        -0.00000000
   8         0.01504246
   9         0.84896290
  10        -0.00000000
Sym=     8a  
Ene=     0.3600
Spin= Beta
Occup=    0.00000
   1        -0.00000000
   2         0.00000000
   3         0.01355960
   4        -1.08290687
   5         0.00000000
   6        -0.00000000
   7        -0.00000000
   8        -0.01161633
   9         0.92771235
  10        -0.00000000
Sym=     9a  
Ene=     0.3215
Spin= Alpha
Occup=    0.00000
   1        -0.00000000
   2        -0.00000000
   3        -1.12197949
   4         0.01987994
   5        -0.00000000
   6         0.00000000
   7         0.00000000
   8         0.84896290
   9        -0.01504246
  10        -0.00000000
Sym=     9a  
Ene=     0.3600
Spin= Beta
Occup=    0.00000
   1        -0.00000000
   2        -0.00000000
   3        -1.08290687
   4        -0.01355960
   5        -0.00000000
   6         0.00000000
   7         0.00000000
   8         0.92771235
   9         0.01161633
  10        -0.00000000
Sym=    10a  
Ene=     0.5050
Spin= Alpha
Occup=    0.00000
   1        -0.44754820
   2        -1.35042649
   3         0.00000000
   4         0.00000000
   5        -1.39420364
   6         0.31695431
   7         1.70230064
   8        -0.00000000
   9         0.00000000
  10        -0.25483687
Sym=    10a  
Ene=     0.5317
Spin= Beta
Occup=    0.00000
   1        -0.42886196
   2        -1.33849702
   3         0.00000000
   4        -0.00000000
   5        -1.39476376
   6         0.31738123
   7         1.75819387
   8        -0.00000000
   9         0.00000000
  10        -0.16031252
