[Molden Format]
[N_Atoms]
                     2
[Atoms] (AU)
BE1         1      4           0.00000000      0.00000000      0.00000000
N2          2      7           0.00000000      0.00000000      1.70075351
[Charge] (Mulliken)
  0.503435250116813     
 -0.503435250116821     
[GTO] (AU)
   1
   s  14
  2.262859900E+04  8.443999941E-05
  3.372318100E+03  4.601499968E-04
  7.603504000E+02  2.285389984E-03
  2.117404800E+02  9.648129932E-03
  6.722346800E+01  3.494469975E-02
  2.337217700E+01  1.061099893E-01
  8.721373000E+00  2.458240383E-01
  3.468091000E+00  3.862428773E-01
  1.452144000E+00  3.105526078E-01
  6.086150000E-01  6.415933955E-02
  2.576860000E-01 -2.265049984E-03
  1.041760000E-01 -5.217499963E-04
  4.242700000E-02 -8.757499938E-04
  1.484900000E-02  1.242199991E-04
   s  14
  2.262859900E+04 -1.586999994E-05
  3.372318100E+03 -8.656999968E-05
  7.603504000E+02 -4.302199984E-04
  2.117404800E+02 -1.825079993E-03
  6.722346800E+01 -6.682749976E-03
  2.337217700E+01 -2.095119992E-02
  8.721373000E+00 -5.200308981E-02
  3.468091000E+00 -9.849176964E-02
  1.452144000E+00 -1.355800695E-01
  6.086150000E-01 -6.429875976E-02
  2.576860000E-01  3.125414989E-01
  1.041760000E-01  6.270468577E-01
  4.242700000E-02  2.110231492E-01
  1.484900000E-02 -4.104669985E-03
   p   9
  3.371018400E+01  1.069960000E-03
  8.057649500E+00  6.828550001E-03
  2.836471400E+00  2.119065000E-02
  1.099965700E+00  5.843696001E-02
  4.433964000E-01  2.020920800E-01
  1.822264000E-01  4.582953101E-01
  7.572410000E-02  3.691239601E-01
  3.168540000E-02  6.611471001E-02
  1.108990000E-02  1.405160000E-03
 
   2
   s  14
  7.476171500E+04  1.182599996E-04
  1.112365400E+04  5.172899983E-04
  2.512685700E+03  2.266659992E-03
  7.037772900E+02  9.145289970E-03
  2.254787900E+02  3.239342989E-02
  7.961581000E+01  9.770792967E-02
  3.023728300E+01  2.317036792E-01
  1.226362200E+01  3.768898887E-01
  5.265086000E+00  3.177420689E-01
  2.333471000E+00  8.211308973E-02
  9.018560000E-01  3.312089989E-03
  3.583360000E-01  3.720819988E-03
  1.410930000E-01  3.165419989E-03
  4.938300000E-02  4.595799985E-04
   s  14
  7.476171500E+04 -2.707000010E-05
  1.112365400E+04 -1.183700004E-04
  2.512685700E+03 -5.203800020E-04
  7.037772900E+02 -2.102930008E-03
  2.254787900E+02 -7.568200028E-03
  7.961581000E+01 -2.346767009E-02
  3.023728300E+01 -6.042901023E-02
  1.226362200E+01 -1.170549104E-01
  5.265086000E+00 -1.555321506E-01
  2.333471000E+00 -2.468935009E-02
  9.018560000E-01  3.625054514E-01
  3.583360000E-01  5.550845021E-01
  1.410930000E-01  2.148376908E-01
  4.938300000E-02  8.983850034E-03
   p   9
  1.266665700E+02  1.233630000E-03
  2.983738900E+01  9.493409996E-03
  9.394038000E+00  4.293961998E-02
  3.405104000E+00  1.362925399E-01
  1.350000000E+00  2.921362499E-01
  5.576960000E-01  3.887887598E-01
  2.324490000E-01  2.946801399E-01
  9.426400000E-02  8.012875997E-02
  3.299200000E-02  5.405199998E-04
 
[MO]
Sym=     1a  
Ene=   -15.7800
Spin= Alpha
Occup=    1.00000
   1        -0.00141410
   2        -0.00391779
   3        -0.00000000
   4         0.00000000
   5        -0.00171399
   6         1.00059319
   7        -0.00119865
   8        -0.00000000
   9        -0.00000000
  10        -0.00286697
Sym=     1a  
Ene=   -15.7800
Spin= Beta
Occup=    1.00000
   1        -0.00141410
   2        -0.00391779
   3        -0.00000000
   4         0.00000000
   5        -0.00171399
   6         1.00059319
   7        -0.00119865
   8        -0.00000000
   9        -0.00000000
  10        -0.00286697
Sym=     2a  
Ene=    -4.9723
Spin= Alpha
Occup=    1.00000
   1         0.98436064
   2        -0.01429296
   3         0.00000000
   4         0.00000000
   5         0.00287634
   6        -0.01171202
   7         0.03191695
   8        -0.00000000
   9        -0.00000000
  10        -0.02710659
Sym=     2a  
Ene=    -4.9723
Spin= Beta
Occup=    1.00000
   1         0.98436064
   2        -0.01429296
   3         0.00000000
   4         0.00000000
   5         0.00287634
   6        -0.01171202
   7         0.03191695
   8        -0.00000000
   9        -0.00000000
  10        -0.02710659
Sym=     3a  
Ene=    -1.1301
Spin= Alpha
Occup=    1.00000
   1        -0.29325467
   2        -0.05645704
   3        -0.00000000
   4        -0.00000000
   5         0.07013931
   6         0.00375741
   7         1.01333832
   8        -0.00000000
   9         0.00000000
  10        -0.17262890
Sym=     3a  
Ene=    -1.1301
Spin= Beta
Occup=    1.00000
   1        -0.29325467
   2        -0.05645704
   3        -0.00000000
   4        -0.00000000
   5         0.07013931
   6         0.00375741
   7         1.01333832
   8        -0.00000000
   9         0.00000000
  10        -0.17262890
Sym=     4a  
Ene=    -0.6278
Spin= Alpha
Occup=    1.00000
   1         0.00000000
   2         0.00000000
   3         0.04820733
   4         0.18899944
   5        -0.00000000
   6         0.00000000
   7         0.00000000
   8         0.21887456
   9         0.85810958
  10         0.00000000
Sym=     4a  
Ene=    -0.6278
Spin= Beta
Occup=    1.00000
   1         0.00000000
   2         0.00000000
   3         0.04820733
   4         0.18899944
   5        -0.00000000
   6         0.00000000
   7         0.00000000
   8         0.21887456
   9         0.85810958
  10         0.00000000
Sym=     5a  
Ene=    -0.6278
Spin= Alpha
Occup=    1.00000
   1        -0.00000000
   2        -0.00000000
   3         0.18899944
   4        -0.04820733
   5         0.00000000
   6         0.00000000
   7         0.00000000
   8         0.85810958
   9        -0.21887456
  10        -0.00000000
Sym=     5a  
Ene=    -0.6278
Spin= Beta
Occup=    1.00000
   1        -0.00000000
   2        -0.00000000
   3         0.18899944
   4        -0.04820733
   5         0.00000000
   6         0.00000000
   7         0.00000000
   8         0.85810958
   9        -0.21887456
  10        -0.00000000
Sym=     6a  
Ene=    -0.1238
Spin= Alpha
Occup=    1.00000
   1        -0.01933169
   2        -0.85343479
   3        -0.00000000
   4        -0.00000000
   5         0.52667312
   6         0.00442683
   7         0.17512689
   8         0.00000000
   9         0.00000000
  10         0.06732143
Sym=     6a  
Ene=    -0.1238
Spin= Beta
Occup=    0.00000
   1        -0.01933169
   2        -0.85343479
   3        -0.00000000
   4        -0.00000000
   5         0.52667312
   6         0.00442683
   7         0.17512689
   8         0.00000000
   9         0.00000000
  10         0.06732143
Sym=     7a  
Ene=    -0.0000
Spin= Alpha
Occup=    0.00000
   1         0.00000000
   2         0.00000000
   3        -1.11611471
   4        -0.27567993
   5        -0.00000000
   6        -0.00000000
   7        -0.00000000
   8         0.73648252
   9         0.18191091
  10         0.00000000
Sym=     7a  
Ene=    -0.0000
Spin= Beta
Occup=    0.00000
   1         0.00000000
   2         0.00000000
   3        -1.11611471
   4        -0.27567993
   5        -0.00000000
   6        -0.00000000
   7        -0.00000000
   8         0.73648252
   9         0.18191091
  10         0.00000000
Sym=     8a  
Ene=     0.0153
Spin= Alpha
Occup=    0.00000
   1         0.34257068
   2         0.25754876
   3         0.00000000
   4         0.00000000
   5        -0.20552690
   6         0.00320071
   7         0.05637329
   8        -0.00000000
   9        -0.00000000
  10         1.07362932
Sym=     8a  
Ene=     0.0153
Spin= Beta
Occup=    0.00000
   1         0.34257068
   2         0.25754876
   3         0.00000000
   4         0.00000000
   5        -0.20552690
   6         0.00320071
   7         0.05637329
   8        -0.00000000
   9        -0.00000000
  10         1.07362932
Sym=     9a  
Ene=     0.2792
Spin= Alpha
Occup=    0.00000
   1         0.00000000
   2         0.00000000
   3         0.27567993
   4        -1.11611471
   5         0.00000000
   6        -0.00000000
   7        -0.00000000
   8        -0.18191091
   9         0.73648252
  10         0.00000000
Sym=     9a  
Ene=     0.2792
Spin= Beta
Occup=    0.00000
   1         0.00000000
   2         0.00000000
   3         0.27567993
   4        -1.11611471
   5         0.00000000
   6        -0.00000000
   7        -0.00000000
   8        -0.18191091
   9         0.73648252
  10         0.00000000
Sym=    10a  
Ene=     0.4621
Spin= Alpha
Occup=    0.00000
   1         0.43113920
   2         1.33641449
   3         0.00000000
   4         0.00000000
   5         1.40637673
   6        -0.31797907
   7        -1.68676810
   8         0.00000000
   9        -0.00000000
  10         0.21903805
Sym=    10a  
Ene=     0.4621
Spin= Beta
Occup=    0.00000
   1         0.43113920
   2         1.33641449
   3         0.00000000
   4         0.00000000
   5         1.40637673
   6        -0.31797907
   7        -1.68676810
   8         0.00000000
   9        -0.00000000
  10         0.21903805
