[Molden Format]
[N_Atoms]
                     2
[Atoms] (AU)
B1          1      5           0.00000000      0.00000000      0.00000000
O2          2      8           0.00000000      0.00000000      3.77945225
[Charge] (Mulliken)
  0.481149355559763     
 -0.481149355559804     
[GTO] (AU)
   1
   s  14
  3.336021700E+04  1.039699991E-04
  4.972095200E+03  5.254399956E-04
  1.125641700E+03  2.509059979E-03
  3.164913600E+02  1.031887991E-02
  1.020072600E+02  3.636632969E-02
  3.629587300E+01  1.064607991E-01
  1.397141000E+01  2.403999880E-01
  5.741156000E+00  3.748581168E-01
  2.494268000E+00  3.100066974E-01
  1.114202000E+00  7.922455933E-02
  4.215490000E-01 -4.947589958E-03
  1.696330000E-01 -7.737119935E-03
  6.853500000E-02 -1.501079987E-03
  2.398700000E-02 -1.333299989E-04
   s  14
  3.336021700E+04 -2.030000008E-05
  4.972095200E+03 -1.025700004E-04
  1.125641700E+03 -4.911300020E-04
  3.164913600E+02 -2.026570008E-03
  1.020072600E+02 -7.261010030E-03
  3.629587300E+01 -2.197722009E-02
  1.397141000E+01 -5.408428022E-02
  5.741156000E+00 -1.022402604E-01
  2.494268000E+00 -1.423595206E-01
  1.114202000E+00 -4.658690019E-02
  4.215490000E-01  3.799402916E-01
  1.696330000E-01  5.890463624E-01
  6.853500000E-02  1.749075107E-01
  2.398700000E-02 -1.142030005E-03
   p   9
  5.500000000E+01  1.229800005E-03
  1.336610100E+01  8.827380035E-03
  4.135394000E+00  3.843340015E-02
  1.481256000E+00  1.150031805E-01
  6.021360000E-01  2.733674011E-01
  2.556360000E-01  4.061972116E-01
  1.111510000E-01  3.014967912E-01
  4.764800000E-02  7.684809030E-02
  1.667700000E-02 -8.170000032E-06
 
   2
   s  14
  1.053749500E+05  1.238600013E-04
  1.567924000E+04  5.120100053E-04
  3.534544700E+03  2.152910022E-03
  9.873651600E+02  8.528440089E-03
  3.159787500E+02  3.018049031E-02
  1.116542800E+02  9.099702095E-02
  4.269945100E+01  2.177936423E-01
  1.739559600E+01  3.686245738E-01
  7.438309000E+00  3.366707335E-01
  3.222862000E+00  9.657630101E-02
  1.253877000E+00  2.144520022E-03
  4.951550000E-01  1.194350012E-03
  1.916650000E-01  5.390200056E-04
  6.708300000E-02  2.103400022E-04
   s  14
  1.053749500E+05 -2.815000008E-05
  1.567924000E+04 -1.163000003E-04
  3.534544700E+03 -4.909200013E-04
  9.873651600E+02 -1.946160005E-03
  3.159787500E+02 -7.005300019E-03
  1.116542800E+02 -2.167814006E-02
  4.269945100E+01 -5.641213015E-02
  1.739559600E+01 -1.127053003E-01
  7.438309000E+00 -1.589119704E-01
  3.222862000E+00 -3.355083009E-02
  1.253877000E+00  3.531902810E-01
  4.951550000E-01  5.534199315E-01
  1.916650000E-01  2.301839106E-01
  6.708300000E-02  1.127267003E-02
   p   9
  2.000000000E+02  9.173000030E-04
  4.653336700E+01  7.377140024E-03
  1.462180900E+01  3.483515011E-02
  5.313064000E+00  1.144397004E-01
  2.102525000E+00  2.554966408E-01
  8.502230000E-01  3.722557412E-01
  3.375970000E-01  3.323314911E-01
  1.288920000E-01  1.400847905E-01
  4.511200000E-02  2.395784008E-02
 
[MO]
Sym=     1a  
Ene=   -20.4360
Spin= Alpha
Occup=    1.00000
   1        -0.00002608
   2        -0.00031930
   3         0.00000000
   4        -0.00000000
   5        -0.00034400
   6         1.00001224
   7         0.00112700
   8         0.00000000
   9         0.00000000
  10        -0.00036597
Sym=     1a  
Ene=   -20.4140
Spin= Beta
Occup=    1.00000
   1        -0.00002679
   2        -0.00027363
   3         0.00000000
   4        -0.00000000
   5        -0.00031037
   6         1.00001123
   7        -0.00019199
   8         0.00000000
   9         0.00000000
  10        -0.00047909
Sym=     2a  
Ene=    -7.8343
Spin= Alpha
Occup=    1.00000
   1         0.99989952
   2         0.01365759
   3         0.00000000
   4        -0.00000000
   5         0.00035168
   6        -0.00004200
   7         0.00000505
   8         0.00000000
   9        -0.00000000
  10        -0.00031300
Sym=     2a  
Ene=    -7.8325
Spin= Beta
Occup=    1.00000
   1         0.99992183
   2         0.01264496
   3         0.00000000
   4        -0.00000000
   5         0.00085649
   6        -0.00003676
   7        -0.00012162
   8         0.00000000
   9         0.00000000
  10         0.00006050
Sym=     3a  
Ene=    -1.1742
Spin= Alpha
Occup=    1.00000
   1        -0.00723640
   2         0.07619759
   3        -0.00000000
   4        -0.00000000
   5         0.06180556
   6        -0.00348588
   7         0.96757385
   8        -0.00000000
   9         0.00000000
  10         0.00929638
Sym=     3a  
Ene=    -1.0711
Spin= Beta
Occup=    1.00000
   1        -0.00893391
   2         0.09471428
   3        -0.00000000
   4        -0.00000000
   5         0.04984188
   6        -0.00213497
   7         0.96233367
   8        -0.00000000
   9         0.00000000
  10        -0.06706106
Sym=     4a  
Ene=    -0.6078
Spin= Alpha
Occup=    1.00000
   1         0.01899016
   2        -0.86830261
   3         0.00000000
   4        -0.00000000
   5         0.08798973
   6         0.00804021
   7         0.17743121
   8        -0.00000000
   9         0.00000000
  10         0.36150073
Sym=     4a  
Ene=    -0.5396
Spin= Beta
Occup=    1.00000
   1         0.01239254
   2        -0.98761822
   3        -0.00000000
   4        -0.00000000
   5        -0.03415462
   6         0.01272988
   7         0.27823501
   8         0.00000000
   9         0.00000000
  10         0.07573312
Sym=     5a  
Ene=    -0.4381
Spin= Alpha
Occup=    1.00000
   1         0.01031977
   2         0.36605882
   3        -0.00000000
   4         0.00000000
   5        -0.57639206
   6         0.01073081
   7         0.11147355
   8        -0.00000000
   9         0.00000000
  10         0.69144872
Sym=     5a  
Ene=    -0.3910
Spin= Beta
Occup=    1.00000
   1         0.00000000
   2         0.00000000
   3         0.00697334
   4         0.19951620
   5         0.00000000
   6        -0.00000000
   7        -0.00000000
   8         0.03340654
   9         0.95580409
  10         0.00000000
Sym=     6a  
Ene=    -0.4279
Spin= Alpha
Occup=    1.00000
   1        -0.00000000
   2        -0.00000000
   3        -0.02863447
   4         0.15019477
   5         0.00000000
   6        -0.00000000
   7        -0.00000000
   8        -0.18169579
   9         0.95303855
  10        -0.00000000
Sym=     6a  
Ene=    -0.3910
Spin= Beta
Occup=    1.00000
   1         0.00000000
   2         0.00000000
   3         0.19951620
   4        -0.00697334
   5        -0.00000000
   6        -0.00000000
   7         0.00000000
   8         0.95580409
   9        -0.03340654
  10         0.00000000
Sym=     7a  
Ene=    -0.4279
Spin= Alpha
Occup=    1.00000
   1         0.00000000
   2         0.00000000
   3         0.15019477
   4         0.02863447
   5        -0.00000000
   6         0.00000000
   7         0.00000000
   8         0.95303855
   9         0.18169579
  10         0.00000000
Sym=     7a  
Ene=     0.0357
Spin= Beta
Occup=    0.00000
   1         0.00000000
   2         0.00000000
   3        -0.88692160
   4         0.43346917
   5        -0.00000000
   6         0.00000000
   7         0.00000000
   8         0.28368965
   9        -0.13864892
  10         0.00000000
Sym=     8a  
Ene=     0.0347
Spin= Alpha
Occup=    0.00000
   1         0.00000000
   2         0.00000000
   3         0.91190858
   4        -0.39928077
   5         0.00000000
   6        -0.00000000
   7        -0.00000000
   8        -0.24764407
   9         0.10843139
  10         0.00000000
Sym=     8a  
Ene=     0.0357
Spin= Beta
Occup=    0.00000
   1        -0.00000000
   2        -0.00000000
   3         0.43346917
   4         0.88692160
   5         0.00000000
   6        -0.00000000
   7        -0.00000000
   8        -0.13864892
   9        -0.28368965
  10        -0.00000000
Sym=     9a  
Ene=     0.0347
Spin= Alpha
Occup=    0.00000
   1        -0.00000000
   2        -0.00000000
   3         0.39928077
   4         0.91190858
   5         0.00000000
   6         0.00000000
   7         0.00000000
   8        -0.10843139
   9        -0.24764407
  10        -0.00000000
Sym=     9a  
Ene=     0.0430
Spin= Beta
Occup=    0.00000
   1         0.00576134
   2         0.12546296
   3         0.00000000
   4         0.00000000
   5        -0.87222535
   6         0.02130498
   7         0.28250323
   8        -0.00000000
   9        -0.00000000
  10         0.37700293
Sym=    10a  
Ene=     0.1592
Spin= Alpha
Occup=    0.00000
   1         0.01225160
   2         0.43441094
   3        -0.00000000
   4         0.00000000
   5         0.89197781
   6        -0.02803611
   7        -0.36591365
   8         0.00000000
   9        -0.00000000
  10         0.70616050
Sym=    10a  
Ene=     0.3550
Spin= Beta
Occup=    0.00000
   1         0.01893093
   2         0.28704108
   3        -0.00000000
   4         0.00000000
   5         0.61236096
   6        -0.01896007
   7        -0.17519264
   8        -0.00000000
   9        -0.00000000
  10         0.97732762
