[Molden Format]
[N_Atoms]
                     2
[Atoms] (AU)
B1          1      5           0.00000000      0.00000000      0.00000000
O2          2      8           0.00000000      0.00000000      3.77945225
[Charge] (Mulliken)
  0.000000000000000E+000
  0.000000000000000E+000
[GTO] (AU)
   1
   s  14
  3.336021700E+04  1.039699991E-04
  4.972095200E+03  5.254399956E-04
  1.125641700E+03  2.509059979E-03
  3.164913600E+02  1.031887991E-02
  1.020072600E+02  3.636632969E-02
  3.629587300E+01  1.064607991E-01
  1.397141000E+01  2.403999880E-01
  5.741156000E+00  3.748581168E-01
  2.494268000E+00  3.100066974E-01
  1.114202000E+00  7.922455933E-02
  4.215490000E-01 -4.947589958E-03
  1.696330000E-01 -7.737119935E-03
  6.853500000E-02 -1.501079987E-03
  2.398700000E-02 -1.333299989E-04
   s  14
  3.336021700E+04 -2.030000008E-05
  4.972095200E+03 -1.025700004E-04
  1.125641700E+03 -4.911300020E-04
  3.164913600E+02 -2.026570008E-03
  1.020072600E+02 -7.261010030E-03
  3.629587300E+01 -2.197722009E-02
  1.397141000E+01 -5.408428022E-02
  5.741156000E+00 -1.022402604E-01
  2.494268000E+00 -1.423595206E-01
  1.114202000E+00 -4.658690019E-02
  4.215490000E-01  3.799402916E-01
  1.696330000E-01  5.890463624E-01
  6.853500000E-02  1.749075107E-01
  2.398700000E-02 -1.142030005E-03
   p   9
  5.500000000E+01  1.229800005E-03
  1.336610100E+01  8.827380035E-03
  4.135394000E+00  3.843340015E-02
  1.481256000E+00  1.150031805E-01
  6.021360000E-01  2.733674011E-01
  2.556360000E-01  4.061972116E-01
  1.111510000E-01  3.014967912E-01
  4.764800000E-02  7.684809030E-02
  1.667700000E-02 -8.170000032E-06
 
   2
   s  14
  1.053749500E+05  1.238600013E-04
  1.567924000E+04  5.120100053E-04
  3.534544700E+03  2.152910022E-03
  9.873651600E+02  8.528440089E-03
  3.159787500E+02  3.018049031E-02
  1.116542800E+02  9.099702095E-02
  4.269945100E+01  2.177936423E-01
  1.739559600E+01  3.686245738E-01
  7.438309000E+00  3.366707335E-01
  3.222862000E+00  9.657630101E-02
  1.253877000E+00  2.144520022E-03
  4.951550000E-01  1.194350012E-03
  1.916650000E-01  5.390200056E-04
  6.708300000E-02  2.103400022E-04
   s  14
  1.053749500E+05 -2.815000008E-05
  1.567924000E+04 -1.163000003E-04
  3.534544700E+03 -4.909200013E-04
  9.873651600E+02 -1.946160005E-03
  3.159787500E+02 -7.005300019E-03
  1.116542800E+02 -2.167814006E-02
  4.269945100E+01 -5.641213015E-02
  1.739559600E+01 -1.127053003E-01
  7.438309000E+00 -1.589119704E-01
  3.222862000E+00 -3.355083009E-02
  1.253877000E+00  3.531902810E-01
  4.951550000E-01  5.534199315E-01
  1.916650000E-01  2.301839106E-01
  6.708300000E-02  1.127267003E-02
   p   9
  2.000000000E+02  9.173000030E-04
  4.653336700E+01  7.377140024E-03
  1.462180900E+01  3.483515011E-02
  5.313064000E+00  1.144397004E-01
  2.102525000E+00  2.554966408E-01
  8.502230000E-01  3.722557412E-01
  3.375970000E-01  3.323314911E-01
  1.288920000E-01  1.400847905E-01
  4.511200000E-02  2.395784008E-02
 
[MO]
Sym=     1a  
Ene=   -20.6840
Spin= Alpha
Occup=    2.00000
   1        -0.00006949
   2         0.00029595
   3        -0.00000000
   4         0.00000000
   5         0.00039888
   6         0.99998586
   7         0.00000969
   8         0.00000000
   9        -0.00000000
  10        -0.00000459
Sym=     2a  
Ene=    -7.6966
Spin= Alpha
Occup=    2.00000
   1         0.99995945
   2         0.00003453
   3        -0.00000000
   4         0.00000000
   5         0.00002535
   6         0.00018526
   7         0.00084125
   8         0.00000000
   9        -0.00000000
  10        -0.00177501
Sym=     3a  
Ene=    -1.2955
Spin= Alpha
Occup=    2.00000
   1        -0.00582826
   2         0.09759018
   3         0.00000000
   4        -0.00000000
   5         0.08133036
   6        -0.00352615
   7         0.95384528
   8         0.00000000
   9        -0.00000000
  10        -0.03606100
Sym=     4a  
Ene=    -0.7056
Spin= Alpha
Occup=    2.00000
   1         0.01741445
   2        -0.34091526
   3         0.00000000
   4         0.00000000
   5        -0.10269260
   6         0.00704488
   7         0.18573999
   8         0.00000000
   9         0.00000000
  10         0.84435032
Sym=     5a  
Ene=    -0.6446
Spin= Alpha
Occup=    2.00000
   1        -0.00000000
   2        -0.00000000
   3         0.09577284
   4         0.05171495
   5         0.00000000
   6        -0.00000000
   7        -0.00000000
   8         0.86335785
   9         0.46619178
  10        -0.00000000
Sym=     6a  
Ene=    -0.6446
Spin= Alpha
Occup=    2.00000
   1         0.00000000
   2         0.00000000
   3        -0.05171495
   4         0.09577284
   5         0.00000000
   6        -0.00000000
   7        -0.00000000
   8        -0.46619178
   9         0.86335785
  10         0.00000000
Sym=     7a  
Ene=    -0.4386
Spin= Alpha
Occup=    1.00000
   1         0.00928464
   2         0.92405961
   3         0.00000000
   4        -0.00000000
   5        -0.28724069
   6        -0.00373435
   7        -0.10903457
   8         0.00000000
   9        -0.00000000
  10         0.42073976
Sym=     8a  
Ene=    -0.3025
Spin= Alpha
Occup=    0.00000
   1        -0.00000000
   2        -0.00000000
   3         0.87030837
   4         0.49507299
   5         0.00000000
   6        -0.00000000
   7         0.00000000
   8        -0.19755937
   9        -0.11238121
  10        -0.00000000
Sym=     9a  
Ene=    -0.3025
Spin= Alpha
Occup=    0.00000
   1         0.00000000
   2         0.00000000
   3        -0.49507299
   4         0.87030837
   5         0.00000000
   6        -0.00000000
   7        -0.00000000
   8         0.11238121
   9        -0.19755937
  10         0.00000000
Sym=    10a  
Ene=    -0.2488
Spin= Alpha
Occup=    0.00000
   1         0.01123806
   2         0.32096845
   3        -0.00000000
   4        -0.00000000
   5         1.01967976
   6        -0.03089798
   7        -0.39723040
   8         0.00000000
   9        -0.00000000
  10         0.46505963
