[Molden Format]
[N_Atoms]
                     2
[Atoms] (AU)
B1          1      5           0.00000000      0.00000000      0.00000000
O2          2      8           0.00000000      0.00000000      3.77945225
[Charge] (Mulliken)
  0.493038839022129     
 -0.493038839022155     
[GTO] (AU)
   1
   s  14
  3.336021700E+04  1.039699991E-04
  4.972095200E+03  5.254399956E-04
  1.125641700E+03  2.509059979E-03
  3.164913600E+02  1.031887991E-02
  1.020072600E+02  3.636632969E-02
  3.629587300E+01  1.064607991E-01
  1.397141000E+01  2.403999880E-01
  5.741156000E+00  3.748581168E-01
  2.494268000E+00  3.100066974E-01
  1.114202000E+00  7.922455933E-02
  4.215490000E-01 -4.947589958E-03
  1.696330000E-01 -7.737119935E-03
  6.853500000E-02 -1.501079987E-03
  2.398700000E-02 -1.333299989E-04
   s  14
  3.336021700E+04 -2.030000008E-05
  4.972095200E+03 -1.025700004E-04
  1.125641700E+03 -4.911300020E-04
  3.164913600E+02 -2.026570008E-03
  1.020072600E+02 -7.261010030E-03
  3.629587300E+01 -2.197722009E-02
  1.397141000E+01 -5.408428022E-02
  5.741156000E+00 -1.022402604E-01
  2.494268000E+00 -1.423595206E-01
  1.114202000E+00 -4.658690019E-02
  4.215490000E-01  3.799402916E-01
  1.696330000E-01  5.890463624E-01
  6.853500000E-02  1.749075107E-01
  2.398700000E-02 -1.142030005E-03
   p   9
  5.500000000E+01  1.229800005E-03
  1.336610100E+01  8.827380035E-03
  4.135394000E+00  3.843340015E-02
  1.481256000E+00  1.150031805E-01
  6.021360000E-01  2.733674011E-01
  2.556360000E-01  4.061972116E-01
  1.111510000E-01  3.014967912E-01
  4.764800000E-02  7.684809030E-02
  1.667700000E-02 -8.170000032E-06
 
   2
   s  14
  1.053749500E+05  1.238600013E-04
  1.567924000E+04  5.120100053E-04
  3.534544700E+03  2.152910022E-03
  9.873651600E+02  8.528440089E-03
  3.159787500E+02  3.018049031E-02
  1.116542800E+02  9.099702095E-02
  4.269945100E+01  2.177936423E-01
  1.739559600E+01  3.686245738E-01
  7.438309000E+00  3.366707335E-01
  3.222862000E+00  9.657630101E-02
  1.253877000E+00  2.144520022E-03
  4.951550000E-01  1.194350012E-03
  1.916650000E-01  5.390200056E-04
  6.708300000E-02  2.103400022E-04
   s  14
  1.053749500E+05 -2.815000008E-05
  1.567924000E+04 -1.163000003E-04
  3.534544700E+03 -4.909200013E-04
  9.873651600E+02 -1.946160005E-03
  3.159787500E+02 -7.005300019E-03
  1.116542800E+02 -2.167814006E-02
  4.269945100E+01 -5.641213015E-02
  1.739559600E+01 -1.127053003E-01
  7.438309000E+00 -1.589119704E-01
  3.222862000E+00 -3.355083009E-02
  1.253877000E+00  3.531902810E-01
  4.951550000E-01  5.534199315E-01
  1.916650000E-01  2.301839106E-01
  6.708300000E-02  1.127267003E-02
   p   9
  2.000000000E+02  9.173000030E-04
  4.653336700E+01  7.377140024E-03
  1.462180900E+01  3.483515011E-02
  5.313064000E+00  1.144397004E-01
  2.102525000E+00  2.554966408E-01
  8.502230000E-01  3.722557412E-01
  3.375970000E-01  3.323314911E-01
  1.288920000E-01  1.400847905E-01
  4.511200000E-02  2.395784008E-02
 
[MO]
Sym=     1a  
Ene=   -20.4180
Spin= Alpha
Occup=    1.00000
   1        -0.00000546
   2        -0.00214635
   3        -0.00000219
   4        -0.00000057
   5        -0.00012144
   6         1.00002692
   7         0.00010105
   8        -0.00001177
   9        -0.00000308
  10        -0.00026804
Sym=     1a  
Ene=   -20.4180
Spin= Beta
Occup=    1.00000
   1        -0.00000546
   2        -0.00214635
   3        -0.00000219
   4        -0.00000057
   5        -0.00012144
   6         1.00002692
   7         0.00010105
   8        -0.00001177
   9        -0.00000308
  10        -0.00026804
Sym=     2a  
Ene=    -7.8384
Spin= Alpha
Occup=    1.00000
   1         0.99995612
   2         0.01045305
   3        -0.00000322
   4        -0.00000084
   5         0.00105198
   6        -0.00001516
   7        -0.00070463
   8        -0.00001657
   9        -0.00000434
  10         0.00032600
Sym=     2a  
Ene=    -7.8384
Spin= Beta
Occup=    1.00000
   1         0.99995612
   2         0.01045305
   3        -0.00000322
   4        -0.00000084
   5         0.00105198
   6        -0.00001516
   7        -0.00070463
   8        -0.00001657
   9        -0.00000434
  10         0.00032600
Sym=     3a  
Ene=    -1.0349
Spin= Alpha
Occup=    1.00000
   1        -0.00252324
   2        -0.30853398
   3        -0.00036332
   4        -0.00009506
   5         0.10608776
   6         0.00058129
   7         0.96685022
   8        -0.00190618
   9        -0.00049873
  10        -0.01074544
Sym=     3a  
Ene=    -1.0349
Spin= Beta
Occup=    1.00000
   1        -0.00252324
   2        -0.30853398
   3        -0.00036332
   4        -0.00009506
   5         0.10608776
   6         0.00058129
   7         0.96685022
   8        -0.00190618
   9        -0.00049873
  10        -0.01074544
Sym=     4a  
Ene=    -0.4096
Spin= Alpha
Occup=    1.00000
   1        -0.00010163
   2         0.00651351
   3        -0.17300079
   4        -0.04526407
   5        -0.00053269
   6        -0.00006395
   7        -0.00087173
   8        -0.93144257
   9        -0.24370339
  10        -0.00101798
Sym=     4a  
Ene=    -0.4096
Spin= Beta
Occup=    1.00000
   1        -0.00010163
   2         0.00651351
   3        -0.17300079
   4        -0.04526407
   5        -0.00053269
   6        -0.00006395
   7        -0.00087173
   8        -0.93144257
   9        -0.24370339
  10        -0.00101798
Sym=     5a  
Ene=    -0.4096
Spin= Alpha
Occup=    1.00000
   1        -0.00000000
   2         0.00000000
   3        -0.04526512
   4         0.17300482
   5        -0.00000000
   6        -0.00000000
   7        -0.00000000
   8        -0.24370893
   9         0.93146373
  10        -0.00000000
Sym=     5a  
Ene=    -0.4096
Spin= Beta
Occup=    1.00000
   1        -0.00000000
   2         0.00000000
   3        -0.04526512
   4         0.17300482
   5        -0.00000000
   6        -0.00000000
   7        -0.00000000
   8        -0.24370893
   9         0.93146373
  10        -0.00000000
Sym=     6a  
Ene=    -0.6529
Spin= Alpha
Occup=    1.00000
   1         0.01275154
   2        -0.93000513
   3        -0.00112267
   4        -0.00029374
   5         0.08546040
   6         0.00700586
   7        -0.18705774
   8        -0.00596317
   9        -0.00156021
  10         0.10228270
Sym=     6a  
Ene=    -0.6529
Spin= Beta
Occup=    1.00000
   1         0.01275154
   2        -0.93000513
   3        -0.00112267
   4        -0.00029374
   5         0.08546040
   6         0.00700586
   7        -0.18705774
   8        -0.00596317
   9        -0.00156021
  10         0.10228270
Sym=     7a  
Ene=    -0.0006
Spin= Alpha
Occup=    1.00000
   1        -0.01499981
   2        -0.15754211
   3         0.00005135
   4         0.00001343
   5         0.48672794
   6        -0.01101752
   7        -0.18594965
   8         0.00045886
   9         0.00012006
  10        -0.79374124
Sym=     7a  
Ene=    -0.0006
Spin= Beta
Occup=    0.00000
   1        -0.01499981
   2        -0.15754211
   3         0.00005135
   4         0.00001343
   5         0.48672794
   6        -0.01101752
   7        -0.18594965
   8         0.00045886
   9         0.00012006
  10        -0.79374124
Sym=     8a  
Ene=     0.0323
Spin= Alpha
Occup=    0.00000
   1        -0.00000000
   2        -0.00000000
   3         0.25089356
   4        -0.95888144
   5        -0.00000000
   6         0.00000000
   7         0.00000000
   8        -0.07481808
   9         0.28594464
  10        -0.00000000
Sym=     8a  
Ene=     0.0323
Spin= Beta
Occup=    0.00000
   1        -0.00000000
   2        -0.00000000
   3         0.25089356
   4        -0.95888144
   5        -0.00000000
   6         0.00000000
   7         0.00000000
   8        -0.07481808
   9         0.28594464
  10        -0.00000000
Sym=     9a  
Ene=     0.0323
Spin= Alpha
Occup=    0.00000
   1         0.00000083
   2         0.00003767
   3        -0.95888144
   4        -0.25089356
   5         0.00002866
   6        -0.00000114
   7        -0.00001647
   8         0.28594464
   9         0.07481808
  10         0.00005945
Sym=     9a  
Ene=     0.0323
Spin= Beta
Occup=    0.00000
   1         0.00000083
   2         0.00003767
   3        -0.95888144
   4        -0.25089356
   5         0.00002866
   6        -0.00000114
   7        -0.00001647
   8         0.28594464
   9         0.07481808
  10         0.00005945
Sym=    10a  
Ene=     0.2136
Spin= Alpha
Occup=    0.00000
   1        -0.01274432
   2        -0.31237073
   3        -0.00004768
   4        -0.00001247
   5        -0.94018668
   6         0.02788934
   7         0.33110862
   8         0.00001686
   9         0.00000441
  10        -0.68332264
Sym=    10a  
Ene=     0.2136
Spin= Beta
Occup=    0.00000
   1        -0.01274432
   2        -0.31237073
   3        -0.00004768
   4        -0.00001247
   5        -0.94018668
   6         0.02788934
   7         0.33110862
   8         0.00001686
   9         0.00000441
  10        -0.68332264
