[Molden Format]
[N_Atoms]
                     2
[Atoms] (AU)
B1          1      5           0.00000000      0.00000000      0.00000000
O2          2      8           0.00000000      0.00000000      3.96842486
[Charge] (Mulliken)
  0.416401585010190     
 -0.416401585010213     
[GTO] (AU)
   1
   s  14
  3.336021700E+04  1.039699991E-04
  4.972095200E+03  5.254399956E-04
  1.125641700E+03  2.509059979E-03
  3.164913600E+02  1.031887991E-02
  1.020072600E+02  3.636632969E-02
  3.629587300E+01  1.064607991E-01
  1.397141000E+01  2.403999880E-01
  5.741156000E+00  3.748581168E-01
  2.494268000E+00  3.100066974E-01
  1.114202000E+00  7.922455933E-02
  4.215490000E-01 -4.947589958E-03
  1.696330000E-01 -7.737119935E-03
  6.853500000E-02 -1.501079987E-03
  2.398700000E-02 -1.333299989E-04
   s  14
  3.336021700E+04 -2.030000008E-05
  4.972095200E+03 -1.025700004E-04
  1.125641700E+03 -4.911300020E-04
  3.164913600E+02 -2.026570008E-03
  1.020072600E+02 -7.261010030E-03
  3.629587300E+01 -2.197722009E-02
  1.397141000E+01 -5.408428022E-02
  5.741156000E+00 -1.022402604E-01
  2.494268000E+00 -1.423595206E-01
  1.114202000E+00 -4.658690019E-02
  4.215490000E-01  3.799402916E-01
  1.696330000E-01  5.890463624E-01
  6.853500000E-02  1.749075107E-01
  2.398700000E-02 -1.142030005E-03
   p   9
  5.500000000E+01  1.229800005E-03
  1.336610100E+01  8.827380035E-03
  4.135394000E+00  3.843340015E-02
  1.481256000E+00  1.150031805E-01
  6.021360000E-01  2.733674011E-01
  2.556360000E-01  4.061972116E-01
  1.111510000E-01  3.014967912E-01
  4.764800000E-02  7.684809030E-02
  1.667700000E-02 -8.170000032E-06
 
   2
   s  14
  1.053749500E+05  1.238600013E-04
  1.567924000E+04  5.120100053E-04
  3.534544700E+03  2.152910022E-03
  9.873651600E+02  8.528440089E-03
  3.159787500E+02  3.018049031E-02
  1.116542800E+02  9.099702095E-02
  4.269945100E+01  2.177936423E-01
  1.739559600E+01  3.686245738E-01
  7.438309000E+00  3.366707335E-01
  3.222862000E+00  9.657630101E-02
  1.253877000E+00  2.144520022E-03
  4.951550000E-01  1.194350012E-03
  1.916650000E-01  5.390200056E-04
  6.708300000E-02  2.103400022E-04
   s  14
  1.053749500E+05 -2.815000008E-05
  1.567924000E+04 -1.163000003E-04
  3.534544700E+03 -4.909200013E-04
  9.873651600E+02 -1.946160005E-03
  3.159787500E+02 -7.005300019E-03
  1.116542800E+02 -2.167814006E-02
  4.269945100E+01 -5.641213015E-02
  1.739559600E+01 -1.127053003E-01
  7.438309000E+00 -1.589119704E-01
  3.222862000E+00 -3.355083009E-02
  1.253877000E+00  3.531902810E-01
  4.951550000E-01  5.534199315E-01
  1.916650000E-01  2.301839106E-01
  6.708300000E-02  1.127267003E-02
   p   9
  2.000000000E+02  9.173000030E-04
  4.653336700E+01  7.377140024E-03
  1.462180900E+01  3.483515011E-02
  5.313064000E+00  1.144397004E-01
  2.102525000E+00  2.554966408E-01
  8.502230000E-01  3.722557412E-01
  3.375970000E-01  3.323314911E-01
  1.288920000E-01  1.400847905E-01
  4.511200000E-02  2.395784008E-02
 
[MO]
Sym=     1a  
Ene=   -20.4610
Spin= Alpha
Occup=    1.00000
   1         0.00015982
   2         0.00242210
   3         0.00000005
   4         0.00000036
   5        -0.00496689
   6         1.00003524
   7        -0.00371439
   8        -0.00000007
   9         0.00000320
  10         0.00675650
Sym=     1a  
Ene=   -20.4610
Spin= Beta
Occup=    1.00000
   1         0.00015982
   2         0.00242210
   3         0.00000005
   4         0.00000036
   5        -0.00496689
   6         1.00003524
   7        -0.00371439
   8        -0.00000007
   9         0.00000320
  10         0.00675650
Sym=     2a  
Ene=    -7.7990
Spin= Alpha
Occup=    1.00000
   1         0.99986510
   2         0.01246939
   3        -0.00000015
   4        -0.00000014
   5         0.00260813
   6        -0.00009422
   7         0.00112497
   8         0.00000010
   9        -0.00000095
  10        -0.00235050
Sym=     2a  
Ene=    -7.7990
Spin= Beta
Occup=    1.00000
   1         0.99986510
   2         0.01246939
   3        -0.00000015
   4        -0.00000014
   5         0.00260813
   6        -0.00009422
   7         0.00112497
   8         0.00000010
   9        -0.00000095
  10        -0.00235050
Sym=     3a  
Ene=    -0.9649
Spin= Alpha
Occup=    1.00000
   1        -0.00032431
   2         0.18701241
   3        -0.00000482
   4         0.00001855
   5        -0.18315573
   6         0.00237655
   7         0.91506798
   8        -0.00003504
   9         0.00017802
  10         0.35315763
Sym=     3a  
Ene=    -0.9649
Spin= Beta
Occup=    1.00000
   1        -0.00032431
   2         0.18701241
   3        -0.00000482
   4         0.00001855
   5        -0.18315573
   6         0.00237655
   7         0.91506798
   8        -0.00003504
   9         0.00017802
  10         0.35315763
Sym=     4a  
Ene=    -0.5688
Spin= Alpha
Occup=    1.00000
   1        -0.01608407
   2         0.93256922
   3        -0.00000145
   4         0.00000735
   5        -0.05345955
   6        -0.00806115
   7        -0.16151145
   8        -0.00002406
   9         0.00006678
  10        -0.24235823
Sym=     4a  
Ene=    -0.5688
Spin= Beta
Occup=    1.00000
   1        -0.01608407
   2         0.93256922
   3        -0.00000145
   4         0.00000735
   5        -0.05345955
   6        -0.00806115
   7        -0.16151145
   8        -0.00002406
   9         0.00006678
  10        -0.24235823
Sym=     5a  
Ene=    -0.4406
Spin= Alpha
Occup=    1.00000
   1        -0.00000244
   2        -0.00017958
   3        -0.02648524
   4         0.10056106
   5         0.00017095
   6        -0.00000218
   7        -0.00004620
   8        -0.25058072
   9         0.95142298
  10        -0.00025828
Sym=     5a  
Ene=    -0.4406
Spin= Beta
Occup=    1.00000
   1        -0.00000244
   2        -0.00017958
   3        -0.02648524
   4         0.10056106
   5         0.00017095
   6        -0.00000218
   7        -0.00004620
   8        -0.25058072
   9         0.95142298
  10        -0.00025828
Sym=     6a  
Ene=    -0.1675
Spin= Alpha
Occup=    1.00000
   1         0.00000026
   2         0.00000354
   3        -0.05332024
   4        -0.01404320
   5        -0.00000210
   6         0.00000060
   7         0.00000241
   8        -0.96004615
   9        -0.25285184
  10         0.00002347
Sym=     6a  
Ene=    -0.1675
Spin= Beta
Occup=    0.00000
   1         0.00000026
   2         0.00000354
   3        -0.05332024
   4        -0.01404320
   5        -0.00000210
   6         0.00000060
   7         0.00000241
   8        -0.96004615
   9        -0.25285184
  10         0.00002347
Sym=     7a  
Ene=     0.0243
Spin= Alpha
Occup=    1.00000
   1        -0.01535263
   2        -0.26013687
   3        -0.00000012
   4        -0.00003238
   5         0.44443341
   6         0.00280843
   7         0.36819604
   8         0.00005905
   9        -0.00028996
  10        -0.70137285
Sym=     7a  
Ene=     0.0243
Spin= Beta
Occup=    1.00000
   1        -0.01535263
   2        -0.26013687
   3        -0.00000012
   4        -0.00003238
   5         0.44443341
   6         0.00280843
   7         0.36819604
   8         0.00005905
   9        -0.00028996
  10        -0.70137285
Sym=     8a  
Ene=     0.0489
Spin= Alpha
Occup=    0.00000
   1         0.00000000
   2         0.00000003
   3         0.25469260
   4        -0.96703518
   5        -0.00000000
   6        -0.00000000
   7        -0.00000001
   8        -0.05271691
   9         0.20015937
  10         0.00000007
Sym=     8a  
Ene=     0.0489
Spin= Beta
Occup=    0.00000
   1         0.00000000
   2         0.00000003
   3         0.25469260
   4        -0.96703518
   5        -0.00000000
   6        -0.00000000
   7        -0.00000001
   8        -0.05271691
   9         0.20015937
  10         0.00000007
Sym=     9a  
Ene=     0.0513
Spin= Alpha
Occup=    0.00000
   1        -0.00000005
   2         0.00000325
   3        -0.97078655
   4        -0.25568061
   5        -0.00000105
   6         0.00000002
   7        -0.00000403
   8         0.15356097
   9         0.04044408
  10         0.00000623
Sym=     9a  
Ene=     0.0513
Spin= Beta
Occup=    0.00000
   1        -0.00000005
   2         0.00000325
   3        -0.97078655
   4        -0.25568061
   5        -0.00000105
   6         0.00000002
   7        -0.00000403
   8         0.15356097
   9         0.04044408
  10         0.00000623
Sym=    10a  
Ene=     0.1419
Spin= Alpha
Occup=    0.00000
   1        -0.00848691
   2        -0.30055073
   3        -0.00000266
   4        -0.00000074
   5        -0.93706384
   6         0.02344931
   7         0.29449244
   8        -0.00000750
   9        -0.00000206
  10        -0.64287469
Sym=    10a  
Ene=     0.1419
Spin= Beta
Occup=    0.00000
   1        -0.00848691
   2        -0.30055073
   3        -0.00000266
   4        -0.00000074
   5        -0.93706384
   6         0.02344931
   7         0.29449244
   8        -0.00000750
   9        -0.00000206
  10        -0.64287469
