[Molden Format]
[N_Atoms]
                     2
[Atoms] (AU)
B1          1      5           0.00000000      0.00000000      0.00000000
O2          2      8           0.00000000      0.00000000      3.96842486
[Charge] (Mulliken)
  0.460805401240542     
 -0.460805401240592     
[GTO] (AU)
   1
   s  14
  3.336021700E+04  1.039699991E-04
  4.972095200E+03  5.254399956E-04
  1.125641700E+03  2.509059979E-03
  3.164913600E+02  1.031887991E-02
  1.020072600E+02  3.636632969E-02
  3.629587300E+01  1.064607991E-01
  1.397141000E+01  2.403999880E-01
  5.741156000E+00  3.748581168E-01
  2.494268000E+00  3.100066974E-01
  1.114202000E+00  7.922455933E-02
  4.215490000E-01 -4.947589958E-03
  1.696330000E-01 -7.737119935E-03
  6.853500000E-02 -1.501079987E-03
  2.398700000E-02 -1.333299989E-04
   s  14
  3.336021700E+04 -2.030000008E-05
  4.972095200E+03 -1.025700004E-04
  1.125641700E+03 -4.911300020E-04
  3.164913600E+02 -2.026570008E-03
  1.020072600E+02 -7.261010030E-03
  3.629587300E+01 -2.197722009E-02
  1.397141000E+01 -5.408428022E-02
  5.741156000E+00 -1.022402604E-01
  2.494268000E+00 -1.423595206E-01
  1.114202000E+00 -4.658690019E-02
  4.215490000E-01  3.799402916E-01
  1.696330000E-01  5.890463624E-01
  6.853500000E-02  1.749075107E-01
  2.398700000E-02 -1.142030005E-03
   p   9
  5.500000000E+01  1.229800005E-03
  1.336610100E+01  8.827380035E-03
  4.135394000E+00  3.843340015E-02
  1.481256000E+00  1.150031805E-01
  6.021360000E-01  2.733674011E-01
  2.556360000E-01  4.061972116E-01
  1.111510000E-01  3.014967912E-01
  4.764800000E-02  7.684809030E-02
  1.667700000E-02 -8.170000032E-06
 
   2
   s  14
  1.053749500E+05  1.238600013E-04
  1.567924000E+04  5.120100053E-04
  3.534544700E+03  2.152910022E-03
  9.873651600E+02  8.528440089E-03
  3.159787500E+02  3.018049031E-02
  1.116542800E+02  9.099702095E-02
  4.269945100E+01  2.177936423E-01
  1.739559600E+01  3.686245738E-01
  7.438309000E+00  3.366707335E-01
  3.222862000E+00  9.657630101E-02
  1.253877000E+00  2.144520022E-03
  4.951550000E-01  1.194350012E-03
  1.916650000E-01  5.390200056E-04
  6.708300000E-02  2.103400022E-04
   s  14
  1.053749500E+05 -2.815000008E-05
  1.567924000E+04 -1.163000003E-04
  3.534544700E+03 -4.909200013E-04
  9.873651600E+02 -1.946160005E-03
  3.159787500E+02 -7.005300019E-03
  1.116542800E+02 -2.167814006E-02
  4.269945100E+01 -5.641213015E-02
  1.739559600E+01 -1.127053003E-01
  7.438309000E+00 -1.589119704E-01
  3.222862000E+00 -3.355083009E-02
  1.253877000E+00  3.531902810E-01
  4.951550000E-01  5.534199315E-01
  1.916650000E-01  2.301839106E-01
  6.708300000E-02  1.127267003E-02
   p   9
  2.000000000E+02  9.173000030E-04
  4.653336700E+01  7.377140024E-03
  1.462180900E+01  3.483515011E-02
  5.313064000E+00  1.144397004E-01
  2.102525000E+00  2.554966408E-01
  8.502230000E-01  3.722557412E-01
  3.375970000E-01  3.323314911E-01
  1.288920000E-01  1.400847905E-01
  4.511200000E-02  2.395784008E-02
 
[MO]
Sym=     1a  
Ene=   -20.4280
Spin= Alpha
Occup=    1.00000
   1        -0.00001886
   2        -0.00026174
   3         0.00000000
   4        -0.00000000
   5        -0.00029048
   6         1.00000866
   7         0.00094979
   8        -0.00000000
   9         0.00000000
  10        -0.00031298
Sym=     1a  
Ene=   -20.4100
Spin= Beta
Occup=    1.00000
   1        -0.00002201
   2        -0.00025535
   3        -0.00000000
   4        -0.00000000
   5        -0.00030012
   6         1.00000911
   7        -0.00010952
   8        -0.00000000
   9         0.00000000
  10        -0.00044424
Sym=     2a  
Ene=    -7.8298
Spin= Alpha
Occup=    1.00000
   1         0.99989919
   2         0.01381856
   3         0.00000000
   4         0.00000000
   5         0.00028546
   6        -0.00003637
   7        -0.00001423
   8        -0.00000000
   9         0.00000000
  10        -0.00028592
Sym=     2a  
Ene=    -7.8260
Spin= Beta
Occup=    1.00000
   1         0.99992266
   2         0.01254690
   3         0.00000000
   4        -0.00000000
   5         0.00071883
   6        -0.00002751
   7        -0.00010977
   8        -0.00000000
   9         0.00000000
  10         0.00005922
Sym=     3a  
Ene=    -1.1549
Spin= Alpha
Occup=    1.00000
   1        -0.00550989
   2         0.07024600
   3        -0.00000000
   4         0.00000000
   5         0.05845108
   6        -0.00282264
   7         0.97315942
   8        -0.00000000
   9        -0.00000000
  10         0.02016024
Sym=     3a  
Ene=    -1.0668
Spin= Beta
Occup=    1.00000
   1        -0.00682841
   2         0.07469232
   3        -0.00000000
   4         0.00000000
   5         0.03862179
   6        -0.00139812
   7         0.97423033
   8        -0.00000000
   9         0.00000000
  10        -0.06122748
Sym=     4a  
Ene=    -0.6032
Spin= Alpha
Occup=    1.00000
   1         0.01699390
   2        -0.91794205
   3         0.00000000
   4        -0.00000000
   5         0.10804463
   6         0.00659510
   7         0.15392481
   8        -0.00000000
   9         0.00000000
  10         0.26822663
Sym=     4a  
Ene=    -0.5385
Spin= Beta
Occup=    1.00000
   1         0.01246371
   2        -0.99133440
   3        -0.00000000
   4        -0.00000000
   5        -0.03475610
   6         0.01054152
   7         0.23329508
   8         0.00000000
   9        -0.00000000
  10         0.06311071
Sym=     5a  
Ene=    -0.4197
Spin= Alpha
Occup=    1.00000
   1         0.00000000
   2         0.00000000
   3        -0.00127998
   4         0.13137036
   5        -0.00000000
   6         0.00000000
   7         0.00000000
   8        -0.00952675
   9         0.97777509
  10         0.00000000
Sym=     5a  
Ene=    -0.3935
Spin= Beta
Occup=    1.00000
   1        -0.00000000
   2        -0.00000000
   3        -0.00969910
   4         0.15039260
   5         0.00000000
   6         0.00000000
   7        -0.00000000
   8        -0.06262667
   9         0.97107870
  10        -0.00000000
Sym=     6a  
Ene=    -0.4197
Spin= Alpha
Occup=    1.00000
   1        -0.00000000
   2        -0.00000000
   3         0.13137036
   4         0.00127998
   5         0.00000000
   6        -0.00000000
   7        -0.00000000
   8         0.97777509
   9         0.00952675
  10        -0.00000000
Sym=     6a  
Ene=    -0.3935
Spin= Beta
Occup=    1.00000
   1         0.00000000
   2         0.00000000
   3         0.15039260
   4         0.00969910
   5        -0.00000000
   6         0.00000000
   7         0.00000000
   8         0.97107870
   9         0.06262667
  10         0.00000000
Sym=     7a  
Ene=    -0.4090
Spin= Alpha
Occup=    1.00000
   1         0.00874687
   2         0.24006797
   3         0.00000000
   4        -0.00000000
   5        -0.63692467
   6         0.01189337
   7         0.13546570
   8         0.00000000
   9        -0.00000000
  10         0.66328941
Sym=     7a  
Ene=     0.0355
Spin= Beta
Occup=    0.00000
   1         0.00000000
   2         0.00000000
   3         0.26386431
   4         0.95838561
   5        -0.00000000
   6         0.00000000
   7         0.00000000
   8        -0.06711262
   9        -0.24376076
  10         0.00000000
Sym=     8a  
Ene=     0.0302
Spin= Alpha
Occup=    0.00000
   1         0.00000000
   2         0.00000000
   3         0.18639158
   4         0.97920260
   5        -0.00000000
   6         0.00000000
   7         0.00000000
   8        -0.04373573
   9        -0.22976434
  10         0.00000000
Sym=     8a  
Ene=     0.0355
Spin= Beta
Occup=    0.00000
   1        -0.00000000
   2        -0.00000000
   3         0.95838561
   4        -0.26386431
   5         0.00000000
   6        -0.00000000
   7        -0.00000000
   8        -0.24376076
   9         0.06711262
  10        -0.00000000
Sym=     9a  
Ene=     0.0302
Spin= Alpha
Occup=    0.00000
   1         0.00000000
   2        -0.00000000
   3        -0.97920260
   4         0.18639158
   5        -0.00000000
   6         0.00000000
   7         0.00000000
   8         0.22976434
   9        -0.04373573
  10         0.00000000
Sym=     9a  
Ene=     0.0478
Spin= Beta
Occup=    0.00000
   1         0.00456731
   2         0.11111462
   3         0.00000000
   4        -0.00000000
   5        -0.88352229
   6         0.01864667
   7         0.25333354
   8        -0.00000000
   9         0.00000000
  10         0.35788242
Sym=    10a  
Ene=     0.1354
Spin= Alpha
Occup=    0.00000
   1         0.01013600
   2         0.39679536
   3         0.00000000
   4         0.00000000
   5         0.83143356
   6        -0.02210507
   7        -0.31090286
   8         0.00000000
   9        -0.00000000
  10         0.75922054
Sym=    10a  
Ene=     0.3334
Spin= Beta
Occup=    0.00000
   1         0.01512026
   2         0.24898900
   3         0.00000000
   4        -0.00000000
   5         0.57335266
   6        -0.01482809
   7        -0.13422113
   8        -0.00000000
   9         0.00000000
  10         0.97617059
