[Molden Format]
[N_Atoms]
                     2
[Atoms] (AU)
H1          1      1           0.00000000      0.00000000      0.00000000
N2          2      7           0.00000000      0.00000000      2.07869874
[Charge] (Mulliken)
  0.162572248200255     
 -0.162572248200264     
[GTO] (AU)
   1
   s   8
  1.886144500E+02  9.638500027E-04
  2.827659600E+01  7.491960021E-03
  6.424830000E+00  3.759541011E-02
  1.815041000E+00  1.433949804E-01
  5.910630000E-01  3.486363010E-01
  2.121490000E-01  4.382973612E-01
  7.989100000E-02  1.651066105E-01
  2.796200000E-02  2.102287006E-02
 
   2
   s  14
  7.476171500E+04  1.182599996E-04
  1.112365400E+04  5.172899983E-04
  2.512685700E+03  2.266659992E-03
  7.037772900E+02  9.145289970E-03
  2.254787900E+02  3.239342989E-02
  7.961581000E+01  9.770792967E-02
  3.023728300E+01  2.317036792E-01
  1.226362200E+01  3.768898887E-01
  5.265086000E+00  3.177420689E-01
  2.333471000E+00  8.211308973E-02
  9.018560000E-01  3.312089989E-03
  3.583360000E-01  3.720819988E-03
  1.410930000E-01  3.165419989E-03
  4.938300000E-02  4.595799985E-04
   s  14
  7.476171500E+04 -2.707000010E-05
  1.112365400E+04 -1.183700004E-04
  2.512685700E+03 -5.203800020E-04
  7.037772900E+02 -2.102930008E-03
  2.254787900E+02 -7.568200028E-03
  7.961581000E+01 -2.346767009E-02
  3.023728300E+01 -6.042901023E-02
  1.226362200E+01 -1.170549104E-01
  5.265086000E+00 -1.555321506E-01
  2.333471000E+00 -2.468935009E-02
  9.018560000E-01  3.625054514E-01
  3.583360000E-01  5.550845021E-01
  1.410930000E-01  2.148376908E-01
  4.938300000E-02  8.983850034E-03
   p   9
  1.266665700E+02  1.233630000E-03
  2.983738900E+01  9.493409996E-03
  9.394038000E+00  4.293961998E-02
  3.405104000E+00  1.362925399E-01
  1.350000000E+00  2.921362499E-01
  5.576960000E-01  3.887887598E-01
  2.324490000E-01  2.946801399E-01
  9.426400000E-02  8.012875997E-02
  3.299200000E-02  5.405199998E-04
 
[MO]
Sym=     1a  
Ene=   -15.5650
Spin= Alpha
Occup=    1.00000
   1        -0.00194690
   2         1.00010161
   3        -0.00457410
   4         0.00000000
   5        -0.00000000
   6        -0.00229231
Sym=     1a  
Ene=   -15.5650
Spin= Beta
Occup=    1.00000
   1        -0.00194690
   2         1.00010161
   3        -0.00457410
   4         0.00000000
   5        -0.00000000
   6        -0.00229231
Sym=     2a  
Ene=    -1.0110
Spin= Alpha
Occup=    1.00000
   1         0.23087971
   2        -0.00890690
   3         0.84532735
   4         0.00000000
   5        -0.00000000
   6        -0.13157669
Sym=     2a  
Ene=    -1.0110
Spin= Beta
Occup=    1.00000
   1         0.23087971
   2        -0.00890690
   3         0.84532735
   4         0.00000000
   5        -0.00000000
   6        -0.13157669
Sym=     3a  
Ene=    -0.5157
Spin= Alpha
Occup=    1.00000
   1        -0.49029295
   2         0.03225295
   3         0.51873183
   4        -0.00000000
   5        -0.00000000
   6         0.67375529
Sym=     3a  
Ene=    -0.5157
Spin= Beta
Occup=    1.00000
   1        -0.49029295
   2         0.03225295
   3         0.51873183
   4        -0.00000000
   5        -0.00000000
   6         0.67375529
Sym=     4a  
Ene=    -0.4283
Spin= Alpha
Occup=    1.00000
   1        -0.00000000
   2         0.00000000
   3         0.00000000
   4         0.00910213
   5         0.99995857
   6         0.00000000
Sym=     4a  
Ene=    -0.4283
Spin= Beta
Occup=    1.00000
   1        -0.00000000
   2         0.00000000
   3         0.00000000
   4         0.00910213
   5         0.99995857
   6         0.00000000
Sym=     5a  
Ene=     0.1156
Spin= Alpha
Occup=    0.00000
   1        -0.00000000
   2         0.00000000
   3         0.00000000
   4         0.99995857
   5        -0.00910213
   6        -0.00000000
Sym=     5a  
Ene=     0.1156
Spin= Beta
Occup=    0.00000
   1        -0.00000000
   2         0.00000000
   3         0.00000000
   4         0.99995857
   5        -0.00910213
   6        -0.00000000
Sym=     6a  
Ene=     0.4615
Spin= Alpha
Occup=    0.00000
   1         1.19877001
   2        -0.07170380
   3        -0.64932587
   4         0.00000000
   5         0.00000000
   6         0.92071265
Sym=     6a  
Ene=     0.4615
Spin= Beta
Occup=    0.00000
   1         1.19877001
   2        -0.07170380
   3        -0.64932587
   4         0.00000000
   5         0.00000000
   6         0.92071265
