   This run of MOLCAS is using the pymolcas driver

                             OPE
                             OPE          NMOL  CASOP  ENMOLC A   SO
                 OPE        NMOLC        AS  OP EN  MO LC     AS  OP
                OPENM       OL CA        SO  PE NM  OL CA     SOP EN
                OP EN      MO   LC       AS  OP ENMOL  CASO   PENMOL
                OP  EN     MO   LC       AS  OP EN     MO     LC ASO
               OP   E  NMOL  C  AS       OP  EN MO     LC     AS  OP
               OP  E   NMO   LC AS        OPEN  MO     LCASOP EN   M
               O  PEN   MO  LCA  SO
            OPE   NMO   L   CAS    OP
        OPENMOL  CASOP     ENMOL   CASOPE
     OPENMOLCA   SOPENMOLCASOPEN   MOLCASOPE
    OPENMOLCAS   OP           EN   MOL    CAS
    OPENMOLCAS       OP  ENM        O     LCA
    OPENMOLCAS    OPEN  MOLCASO     P  E  NMO
    OPENMOLCAS     OP               E  N  MOL
    OPENMOLCA   SO           PENM   O  L  CAS    OPEN    MO    LCAS
    OPENMOLCA   SOP           ENM   O  L  CAS   OP  EN  MOLC  AS   O
    OPENMOLCA   SOPE           NM      O  LCA   S      OP  EN MO
    OPENMOLC                AS         O  PEN   M      OL  CA  SOPE
    OPENMO        LCASOPE  NMOL        C  ASO   P      ENMOLC     AS
    OPE     NMO      LCA  SO     P     E   NM   OL  CA SO  PE N   MO
          OPENMOLCA            SOPE   NMO        LCAS  O    P  ENMO
     OPENMOLCASOPENMOLCASOPENMOLCASOPENMOLCA
        OPENMOLCASOPENMOLCASOPENMOLCASOPE
            OPENMOLCASOPENMOLCASOPENM
               OPENMOLCASOPENMOLCA        version: 24.02
                   OPENMOLCASO
                       OPE                tag: 126-g611b04c8f

 OpenMolcas is free software; you can redistribute it and/or modify it
 under the terms of the GNU Lesser General Public License version 2.1.
 OpenMolcas is distributed in the hope that it will be useful, but it
 is provided "as is" and without any express or implied warranties.
 For more details see the full text of the license in the file
 LICENSE or in <http://www.gnu.org/licenses/>.

                 Copyright (C) The OpenMolcas Authors
           For the author list and the recommended citation,
                   consult the file CONTRIBUTORS.md

           *************************************************
           * pymolcas version py2.28                       *
           *   build c4a6d18ded8cb6cad61d2372a9abd97c      *
           *   (after the EMIL interpreter by V. Veryazov) *
           *************************************************

configuration info
------------------
Host name: debian (Linux)
C Compiler ID: GNU
C flags: -std=gnu99
Fortran Compiler ID: Intel
Fortran flags: -fpp -i8 -heap-arrays
Definitions: _MOLCAS_;_I8_;_LINUX_
Parallel: OFF (GA=OFF)


   -----------------------------------------------------------------
  |
  |              Project: 0.90
  |       Submitted from: /home/grierjones/DDCASPT2/delta_ML/CO/0.90
  |         Scratch area: /tmp/0.90
  |      Save outputs to: /home/grierjones/DDCASPT2/delta_ML/CO/0.90
  |               Molcas: /usr/local
  |
  | Scratch area is empty
  |
  |       MOLCAS_DRIVER = /usr/local/pymolcas
  | MOLCAS_KEEP_WORKDIR = NO
  |  MOLCAS_NEW_WORKDIR = YES
  |       MOLCAS_NPROCS = 1
  |       MOLCAS_SOURCE = /usr/local
  |    MOLCAS_STRUCTURE = 0
  |
   -----------------------------------------------------------------

++ ---------   Input file   ---------

&GATEWAY
coord=0.90.xyz
Basis = ANO-RCC-MB
Group = nosymm
End of Input

&SEWARD
End of Input

&SCF
UHF

&MBPT2
Frozen
0

&RASSCF
Title= RASSCF
FileOrb
/home/grierjones/DDCASPT2/delta_ML/CO/0.80/0.80.RasOrb

NACTEL
2 0 0
Inactive
6
RAS2
2
Symmetry
1
Spin
1
orblisting
all
ITERation
200 100
CIMX
200
SDAV
500

&CASPT2
Imaginary Shift
0.0
Frozen
0

-- ----------------------------------

--- Start Module: gateway at Thu Apr 25 13:51:53 2024 ---
 
()()()()()()()()()()()()()()()()()()()()()()()()()()()()()()()()()()()()()()()()()()()()()()()()()()

                                              &GATEWAY

                                   only a single process is used
                       available to each process: 2.0 GB of memory, 1 thread?
                                            pid: 106518
()()()()()()()()()()()()()()()()()()()()()()()()()()()()()()()()()()()()()()()()()()()()()()()()()()
 
 
++    Symmetry information:
      ---------------------
 
                    Character Table for C1 
 
                             E  
                    a        1  x, y, xy, Rz, z, xz, Ry, yz, Rx, I
--
 
 
++    Basis set information:
      ----------------------
 
 
      Basis set label: C.ANO-RCC...2S1P.
 
      Electronic valence basis set:
      ------------------
      Associated Effective Charge   6.000000 au
      Associated Actual Charge      6.000000 au
      Nuclear Model: Point charge
 
      Shell  nPrim  nBasis  Cartesian Spherical Contaminant
         s      14       2        X                  
         p       9       1        X                  
 
 
      Basis set label: O.ANO-RCC...2S1P.
 
      Electronic valence basis set:
      ------------------
      Associated Effective Charge   8.000000 au
      Associated Actual Charge      8.000000 au
      Nuclear Model: Point charge
 
      Shell  nPrim  nBasis  Cartesian Spherical Contaminant
         s      14       2        X                  
         p       9       1        X                  
--
 
 
++    Molecular structure info:
      -------------------------
 
                    ************************************************ 
                    **** Cartesian Coordinates / Bohr, Angstrom **** 
                    ************************************************ 
 
     Center  Label                x              y              z                     x              y              z
        1      C1               0.000000       0.000000       0.000000              0.000000       0.000000       0.000000
        2      O2               0.000000       0.000000       1.700754              0.000000       0.000000       0.900000
--
 
 
            Nuclear Potential Energy             28.22278458 au
 
--- Stop Module: gateway at Thu Apr 25 13:51:54 2024 /rc=_RC_ALL_IS_WELL_ ---
*** files: xmldump
    saved to directory /home/grierjones/DDCASPT2/delta_ML/CO/0.90

--- Start Module: seward at Thu Apr 25 13:51:54 2024 ---
 
()()()()()()()()()()()()()()()()()()()()()()()()()()()()()()()()()()()()()()()()()()()()()()()()()()

                                              &SEWARD

                                   only a single process is used
                       available to each process: 2.0 GB of memory, 1 thread?
                                            pid: 106521
()()()()()()()()()()()()()()()()()()()()()()()()()()()()()()()()()()()()()()()()()()()()()()()()()()
 
               SEWARD will generate:
                  Multipole Moment integrals up to order  2
                  Kinetic Energy integrals
                  Nuclear Attraction integrals (point charge)
                  One-Electron Hamiltonian integrals
                  Velocity integrals
                  Relativistic Douglas-Kroll-Hess integrals:
                    - Parametrization         : EXP
                    - DKH order of Hamiltonian: 2
                    - DKH order of Properties : 0
                         - multipole moment operators
                         - electric potential operators
                         - contact operators
                  Orbital angular momentum around ( 0.0000  0.0000  0.9717 )
                  Velocity quadrupole around ( 0.0000  0.0000  0.9717 )
                  Atomic mean-field integrals
                  Two-Electron Repulsion integrals
 
                   Integrals are discarded if absolute value <: 1.00E-14
                   Integral cutoff threshold is set to       <: 1.00E-16
 
            Nuclear Potential Energy             28.22278458 au
 
 
      Basis set specifications :
      Symmetry species         a  
      Basis functions           10
 
 
      Input file to MOLDEN was generated!
 
--- Stop Module: seward at Thu Apr 25 13:51:54 2024 /rc=_RC_ALL_IS_WELL_ ---
*** files: 0.90.GssOrb 0.90.guessorb.h5 0.90.guessorb.molden xmldump
    saved to directory /home/grierjones/DDCASPT2/delta_ML/CO/0.90

*** symbolic link created: INPORB -> 0.90.GssOrb
--- Start Module: scf at Thu Apr 25 13:51:54 2024 ---
 
()()()()()()()()()()()()()()()()()()()()()()()()()()()()()()()()()()()()()()()()()()()()()()()()()()

                                                &SCF

                                   only a single process is used
                       available to each process: 2.0 GB of memory, 1 thread?
                                            pid: 106524
()()()()()()()()()()()()()()()()()()()()()()()()()()()()()()()()()()()()()()()()()()()()()()()()()()
 
++    Input section:
      --------------
 
      Header of the integral files:
      
       Integrals generated by Gateway/Seward, Thu Apr 25 13:51:54 2024
 
 
      Cartesian coordinates in Angstrom:
      -----------------------------------------------------
      No.  Label        X            Y            Z        
      -----------------------------------------------------
       1   C1         0.00000000   0.00000000   0.00000000
       2   O2         0.00000000   0.00000000   0.90000000
      -----------------------------------------------------
      Nuclear repulsion energy =   28.22278458
--
 
++    Orbital specifications:
      -----------------------
 
      Symmetry species               1
                                     a
      Frozen orbitals                0
      Occupied orbitals alpha        7
      Occupied orbitals beta         7
      Secondary orbitals alpha       3
      Secondary orbitals beta        3
      Deleted orbitals               0
      Total number of orbitals      10
      Number of basis functions     10
--
 
      Molecular charge                           0.000
 
++    Optimization specifications:
      ----------------------------
 
      SCF Algorithm: Conventional USCF
      D(i)-D(i-1) density differences are used
      Number of density matrices in core                 5
      Maximum number of NDDO SCF iterations            400
      Maximum number of HF SCF iterations              400
      Threshold for SCF energy change             1.00E-09
      Threshold for density matrix                1.00E-04
      Threshold for Fock matrix                   1.50E-04
      Threshold for linear dependence             1.00E-09
      Threshold at which DIIS is turned on        1.50E-01
      Maximum depth in the DIIS procedure                5
      Maximum depth in the BFGS Hessian update          30
      Threshold at which QNR/C2DIIS is turned on  7.50E-02
      Threshold for Norm(delta) (QNR/C2DIIS)      1.00E-03
      All orbitals punched on: UHFORB
--
 
      Input vectors read from INPORB
      Orbital file label: *Guess orbitals
 
 
++ Convergence information
                               UHF SCF        iterations: Energy and convergence statistics
 
Iter     Tot. SCF        One-elec.       Two-elec.     Energy      Max Dij or  Max Fij      DNorm      TNorm      AccCon     Time
         Energy          Energy          Energy        Change      Delta Norm                                                in Sec.
   1  -112.218969075  -204.934230253    64.492476596   0.00E+00    1.36E-01*   1.83E-01*    5.36E+00   3.02E+01   None         0.
   2  -112.268865448  -206.039456525    65.547806496  -4.99E-02*   8.27E-02*   4.45E-02*    1.22E+00   3.05E+01   EDIIS        0.
   3  -112.274289305  -205.656242995    65.159169108  -5.42E-03*   8.50E-03*   1.58E-02*    2.75E-01   3.04E+01   c2DIIS       0.
   4  -112.275270286  -205.778285728    65.280230860  -9.81E-04*   4.95E-03*   2.31E-03*    8.03E-02   3.04E+01   QNRc2DIIS    0.
   5  -112.275284159  -205.778512634    65.280443894  -1.39E-05*   1.73E-03*   6.62E-04*    1.97E-02   3.04E+01   QNRc2DIIS    0.
   6  -112.275285218  -205.779322635    65.281252835  -1.06E-06*   1.48E-04    4.39E-05     7.68E-03   3.04E+01   QNRc2DIIS    0.
   7  -112.275285226  -205.778956856    65.280887049  -8.12E-09*   4.00E-05    2.26E-05     3.11E-04   3.04E+01   QNRc2DIIS    0.
 DIIS_X: Reduction of the subspace dimension due to numerical imbalance of the v
 alues in the B-Matrix
 kOptim=                     5 -> kOptim=                     4
   8  -112.275285227  -205.778982119    65.280912311  -6.99E-10    4.38E-07    2.83E-07     1.64E-04   3.04E+01   QNRc2DIIS    0.
 
       Convergence after   8 Macro Iterations
--
 
 *****************************************************************************************************************************
 *                                                                                                                           *
 *                                             SCF/KS-DFT Program, Final results                                             *
 *                                                                                                                           *
 *                                                                                                                           *
 *                                                                                                                           *
 *                                                       Final Results                                                       *
 *                                                                                                                           *
 *****************************************************************************************************************************
 
::    Total SCF energy                               -112.2752852267
      One-electron energy                            -205.7789821194
      Two-electron energy                              65.2809123112
      Nuclear repulsion energy                         28.2227845815
      Kinetic energy (interpolated)                   113.8447085076
      Virial theorem                                    0.9862143502
      Total spin, S(S+1)                               -0.0000000000
      Total spin, S                                    -0.0000000000
      Max non-diagonal density matrix element           0.0000002492
      Max non-diagonal Fock matrix element              0.0000000247
 
 
      All orbitals with orbital energies smaller than  E(LUMO)+0.5 are printed
 
++    Molecular orbitals:
      -------------------
 
      Title: UHF orbitals (alpha)

      Molecular orbitals for symmetry species 1: a  
 
          Orbital            1         2         3         4         5         6         7         8         9    
          Energy          -20.9387  -11.6233   -1.8447   -0.8842   -0.8560   -0.8560   -0.6056    0.2377    0.2377
          Occ. No.          1.0000    1.0000    1.0000    1.0000    1.0000    1.0000    1.0000    0.0000    0.0000
 
        1 C1     1s        -0.0010    0.9993   -0.1484    0.0796    0.0000   -0.0000    0.0695    0.0000   -0.0000
        2 C1     2s        -0.0037   -0.0023    0.0914   -0.1510    0.0000   -0.0000    0.8980    0.0000   -0.0000
        3 C1     2px        0.0000   -0.0000   -0.0000   -0.0000    0.0245    0.3715   -0.0000   -0.0357   -1.0605
        4 C1     2py       -0.0000   -0.0000   -0.0000   -0.0000    0.3715   -0.0245    0.0000   -1.0605    0.0357
        5 C1     2pz       -0.0016    0.0064    0.1989   -0.1342   -0.0000    0.0000   -0.5750   -0.0000    0.0000
        6 O2     1s         1.0005   -0.0028   -0.0350    0.0317    0.0000    0.0000    0.0018    0.0000   -0.0000
        7 O2     2s         0.0039   -0.0003    0.7332    0.6058    0.0000    0.0000   -0.1143   -0.0000   -0.0000
        8 O2     2px       -0.0000    0.0000   -0.0000   -0.0000    0.0508    0.7716    0.0000    0.0275    0.8159
        9 O2     2py       -0.0000    0.0000    0.0000   -0.0000    0.7716   -0.0508   -0.0000    0.8159   -0.0275
       10 O2     2pz       -0.0047   -0.0041   -0.3931    0.8178    0.0000    0.0000    0.3012    0.0000   -0.0000
--
 
 
      Input file to MOLDEN was generated!
 
 
++    Static properties:
      ------------------
 
 
      LoProp Charges per center
 

                   C1       O2    
      Nuclear      6.0000   8.0000
      Electronic  -5.9218  -8.0782
 
      Total        0.0782  -0.0782
--
 
 
      All orbitals with orbital energies smaller than  E(LUMO)+0.5 are printed
 
++    Molecular orbitals:
      -------------------
 
      Title: UHF orbitals (beta)

      Molecular orbitals for symmetry species 1: a  
 
          Orbital            1         2         3         4         5         6         7         8         9    
          Energy          -20.9387  -11.6233   -1.8447   -0.8842   -0.8560   -0.8560   -0.6056    0.2377    0.2377
          Occ. No.          1.0000    1.0000    1.0000    1.0000    1.0000    1.0000    1.0000    0.0000    0.0000
 
        1 C1     1s        -0.0010    0.9993   -0.1484    0.0796    0.0000   -0.0000    0.0695    0.0000   -0.0000
        2 C1     2s        -0.0037   -0.0023    0.0914   -0.1510    0.0000   -0.0000    0.8980    0.0000   -0.0000
        3 C1     2px        0.0000   -0.0000   -0.0000   -0.0000    0.0245    0.3715   -0.0000   -0.0357   -1.0605
        4 C1     2py       -0.0000   -0.0000   -0.0000   -0.0000    0.3715   -0.0245    0.0000   -1.0605    0.0357
        5 C1     2pz       -0.0016    0.0064    0.1989   -0.1342   -0.0000    0.0000   -0.5750   -0.0000    0.0000
        6 O2     1s         1.0005   -0.0028   -0.0350    0.0317    0.0000    0.0000    0.0018    0.0000   -0.0000
        7 O2     2s         0.0039   -0.0003    0.7332    0.6058    0.0000    0.0000   -0.1143   -0.0000   -0.0000
        8 O2     2px       -0.0000    0.0000   -0.0000   -0.0000    0.0508    0.7716    0.0000    0.0275    0.8159
        9 O2     2py       -0.0000    0.0000    0.0000   -0.0000    0.7716   -0.0508   -0.0000    0.8159   -0.0275
       10 O2     2pz       -0.0047   -0.0041   -0.3931    0.8178    0.0000    0.0000    0.3012    0.0000   -0.0000
--
 
 
++    Molecular charges:
      ------------------
 
      Mulliken charges per centre and basis function type
      ---------------------------------------------------
 
                            C1                      O2    
                     alpha        beta       alpha        beta
      1s           1.0005      1.0005      1.0006      1.0006
      2s           0.7190      0.7190      0.9119      0.9119
      2px          0.2703      0.2703      0.7297      0.7297
      2pz          0.4918      0.4918      0.8762      0.8762
      2py          0.2703      0.2703      0.7297      0.7297
      Total        2.7519      2.7519      4.2481      4.2481
      Total              5.5038                  8.4962
 
      Charge            0.4962                 -0.4962
 
      Total electronic charge=   14.000000
 
      Total            charge=   -0.000000
--
 
 
      Input file to MOLDEN was generated!
 
 
++    Static properties:
      ------------------
 
 
      LoProp Charges per center
 

                   C1       O2    
      Nuclear      6.0000   8.0000
      Electronic  -5.9218  -8.0782
 
      Total        0.0782  -0.0782
--
 
 
++    Natural Bond Order analysis
      ---------------------------
      Based on LoProp computed density
      -------------------------------------------------------------------------------------
      Atom A       Atom B       Bond Order
        C1           O2             0.767
      -------------------------------------------------------------------------------------
      NBO located      1.533 electrons involved in    1 bonds.
      NBO located      0.986 non-bonded electrons on atom C1        
      The remaining    4.916 electrons are to be considered as diffuse
--
 
 
++    Molecular orbitals:
      -------------------
 
      Title: Natural orbitals

      Molecular orbitals for symmetry species 1: a  
 
          Orbital            1         2         3         4         5         6         7         8         9        10    
          Energy          -20.9387  -11.6233   -1.8447   -0.8842   -0.8560   -0.8560   -0.6056    0.2377    0.2377    1.2443
          Occ. No.          2.0000    2.0000    2.0000    2.0000    2.0000    2.0000    2.0000    0.0000    0.0000    0.0000
 
        1 C1     1s        -0.0010    0.9993   -0.1484    0.0796    0.0000   -0.0000   -0.0696    0.0000   -0.0000   -0.3698
        2 C1     2s        -0.0037   -0.0023    0.0914   -0.1511    0.0000   -0.0000   -0.8980    0.0000   -0.0000   -1.6653
        3 C1     2px        0.0000   -0.0000   -0.0000   -0.0000    0.0245    0.3715    0.0000   -0.0357   -1.0605   -0.0000
        4 C1     2py       -0.0000   -0.0000   -0.0000   -0.0000    0.3715   -0.0245   -0.0000   -1.0605    0.0357    0.0000
        5 C1     2pz       -0.0016    0.0064    0.1988   -0.1342   -0.0000    0.0000    0.5750   -0.0000    0.0000   -1.5106
        6 O2     1s         1.0005   -0.0028   -0.0350    0.0317    0.0000    0.0000   -0.0018    0.0000   -0.0000    0.3317
        7 O2     2s         0.0039   -0.0003    0.7332    0.6059    0.0000    0.0000    0.1143   -0.0000   -0.0000    1.8616
        8 O2     2px       -0.0000    0.0000   -0.0000   -0.0000    0.0508    0.7717   -0.0000    0.0275    0.8159    0.0000
        9 O2     2py       -0.0000    0.0000    0.0000   -0.0000    0.7717   -0.0508    0.0000    0.8159   -0.0275   -0.0000
       10 O2     2pz       -0.0047   -0.0041   -0.3931    0.8178    0.0000    0.0000   -0.3012    0.0000   -0.0000   -1.0193
--
 
 
++    Molecular properties:
      ---------------------
 
      Charge (e):
                      =   -0.0000
      Dipole Moment (Debye):
      Origin of the operator (Ang)=    0.0000    0.0000    0.0000
                   X=  5.4399E-14               Y= -4.3432E-14               Z= -7.3263E-03           Total=  7.3263E-03
      Quadrupole Moment (Debye*Ang):
      Origin of the operator (Ang)=    0.0000    0.0000    0.5142
                  XX= -1.0687E+01              XY= -9.7106E-15              XZ= -6.9765E-14              YY= -1.0687E+01
                  YZ=  3.8770E-14              ZZ= -1.3975E+01
      In traceless form (Debye*Ang)
                  XX=  1.6439E+00              XY= -1.4566E-14              XZ= -1.0465E-13              YY=  1.6439E+00
                  YZ=  5.8154E-14              ZZ= -3.2878E+00
--
 
 
      Input file to MOLDEN was generated!
 
 ###############################################################################
 ###############################################################################
 ###                                                                         ###
 ###                                                                         ###
 ###    WARNING: RunFile label nBas                                          ###
 ###    was used       87 times                                              ###
 ###                                                                         ###
 ###                                                                         ###
 ###############################################################################
 ###############################################################################
--- Stop Module: scf at Thu Apr 25 13:51:55 2024 /rc=_RC_ALL_IS_WELL_ ---
*** files: 0.90.LprOrb 0.90.LoProp.molden 0.90.scf.molden 0.90.scf.h5 0.90.UhfOrb 0.90.UnaOrb xmldump
    saved to directory /home/grierjones/DDCASPT2/delta_ML/CO/0.90

*** symbolic link created: INPORB -> 0.90.UnaOrb
--- Start Module: mbpt2 at Thu Apr 25 13:51:55 2024 ---
 
()()()()()()()()()()()()()()()()()()()()()()()()()()()()()()()()()()()()()()()()()()()()()()()()()()

                                               &MBPT2

                                   only a single process is used
                       available to each process: 2.0 GB of memory, 1 thread?
                                            pid: 106528
()()()()()()()()()()()()()()()()()()()()()()()()()()()()()()()()()()()()()()()()()()()()()()()()()()
 
 
 ###############################################################################
 ###############################################################################
 ###                                                                         ###
 ###                                                                         ###
 ###    WARNING: MP2 implementation intended for RHF references only         ###
 ###                                                                         ###
 ###                                                                         ###
 ###############################################################################
 ###############################################################################
MBPT2 WARNING: Reference function according to RunFile:UHF-SCF 
I'll assume you know what you're doing and continue
 
 
WARNING!
Default frozen orbitals as non valence orbitals is overwritten by user input.
Default values:   2
 
 
      Cartesian coordinates in Angstrom:
      -----------------------------------------------------
      No.  Label        X            Y            Z        
      -----------------------------------------------------
       1   C1         0.00000000   0.00000000   0.00000000
       2   O2         0.00000000   0.00000000   0.90000000
      -----------------------------------------------------
      Nuclear repulsion energy =   28.22278458
 
      Contents of RUNFILE file:
      -------------------------
 
      Symmetry species                           1
                                                 a
      Number of basis functions                 10
      Frozen occupied orbitals                   0
      Active occupied orbitals                   7
      Active external orbitals                   3
      Deleted external orbitals                  0
 
 
      Energies of the active occupied orbitals
 
      symmetry species 1                   -20.938686    -11.623326     -1.844719     -0.884246     -0.855993
                                            -0.855993     -0.605615
 
 
      Energies of the active external orbitals
 
      symmetry species 1                     0.237724      0.237724      1.244346
 
 
      ********************************************************************************************************
      *                                               Results                                                *
      ********************************************************************************************************
 
 Conventional algorithm used...

       SCF energy                           =     -112.2752852267 a.u.
       Second-order correlation energy      =       -0.0749625733 a.u.

       Total energy                         =     -112.3502477999 a.u.
       Reference weight ( Cref**2 )         =        0.97129
 
::    Total MBPT2 energy                             -112.3502477999
 
 
       Zeroth-order energy (E0)             =      -46.9943729154 a.u.
 
       Shanks-type energy S1(E)             =     -112.3503339790 a.u.
 
 


       Data processing and timing information:

       Section                                              time(sec)
                                                          CPU  Elapsed

      Input data processing                              0.02      0.04
      Transformation of integrals                        0.00      0.00
      MBPT2 calculations (BJAI)                          0.00      0.00
      Total MBPT2 calculations                           0.02      0.04
 
 
--- Stop Module: mbpt2 at Thu Apr 25 13:51:55 2024 /rc=_RC_ALL_IS_WELL_ ---
*** files: xmldump
    saved to directory /home/grierjones/DDCASPT2/delta_ML/CO/0.90

*** symbolic link created: INPORB -> 0.90.UnaOrb
--- Start Module: rasscf at Thu Apr 25 13:51:55 2024 ---
 
()()()()()()()()()()()()()()()()()()()()()()()()()()()()()()()()()()()()()()()()()()()()()()()()()()

                                              &RASSCF

                                   only a single process is used
                       available to each process: 2.0 GB of memory, 1 thread?
                                            pid: 106531
()()()()()()()()()()()()()()()()()()()()()()()()()()()()()()()()()()()()()()()()()()()()()()()()()()
 
 
      Header of the ONEINT file:
      --------------------------
      
      Integrals generated by Gateway/Seward, Thu Apr 25 13:51:54 2024
 
 
      OrdInt status: non-squared
 
 
      Cartesian coordinates in Angstrom:
      -----------------------------------------------------
      No.  Label        X            Y            Z        
      -----------------------------------------------------
       1   C1         0.00000000   0.00000000   0.00000000
       2   O2         0.00000000   0.00000000   0.90000000
      -----------------------------------------------------
      Nuclear repulsion energy =   28.22278458
 
++    Wave function specifications:
      -----------------------------
 
      Number of closed shell electrons          12
      Number of electrons in active shells       2
      Max number of holes in RAS1 space          0
      Max nr of electrons in RAS3 space          0
      Number of inactive orbitals                6
      Number of active orbitals                  2
      Number of secondary orbitals               2
      Spin quantum number                      0.0
      State symmetry                             1
--
 
++    Orbital specifications:
      -----------------------
 
      Symmetry species                           1
                                                 a
      Frozen orbitals                            0
      Inactive orbitals                          6
      Active orbitals                            2
      RAS1 orbitals                              0
      RAS2 orbitals                              2
      RAS3 orbitals                              0
      Secondary orbitals                         2
      Deleted orbitals                           0
      Number of basis functions                 10
--
 
++    CI expansion specifications:
      ----------------------------
 
      Number of CSFs                             3
      Number of determinants                     3
      Number of root(s) required                 1
      Root chosen for geometry opt.              1
      CI root used                               1
         
      highest root included in the CI            1
      max. size of the explicit Hamiltonian      3
--
 
++    Optimization specifications:
      ----------------------------
 
      RASSCF algorithm: Conventional
      Maximum number of macro iterations       200
      Maximum number of SX iterations          100
      Threshold for RASSCF energy            1.000E-08
      Threshold for max MO rotation          1.000E-01
      Threshold for max BLB element          1.000E-04
      Level shift parameter                  5.000E-01
      Make Quasi-Newton update
--
 
      The MO-coefficients are taken from the file:
      /home/grierjones/DDCASPT2/delta_ML/CO/0.80/0.80.RasOrb                                                                                                                                                                                                          
      Title: RASSCF average (pseudo-natural) orbitals                                      
 
      Total molecular charge    0.00
 
      ************************************************************************************************************************
      *                                                                                                                      *
      *                                            Wave function control section                                             *
      *                                                                                                                      *
      ************************************************************************************************************************
 
 
                                         RASSCF iterations: Energy and convergence statistics
                                         ----------------------------------------------------
 
      Iter CI   SX   CI       RASSCF       Energy    max ROT     max BLB   max BLB  Level Ln srch  Step   QN   Walltime
          iter iter root      energy       change     param      element    value   shift minimum  type update hh:mm:ss
 Nr of preliminary CI iterations:   1
        1   1    5    1  -112.27714112    0.00E+00  -2.12E-02    3  10 1  1.30E-01*  0.00   0.00    SX    NO    0:00:00
        2   1    5    1  -112.28136480   -4.22E-03*  1.16E-02    4   8 1 -2.49E-02*  0.00   0.00    SX    NO    0:00:00
        3   1    5    1  -112.28180277   -4.38E-04*  6.58E-03    3  10 1  1.38E-02*  0.00   0.00    SX    NO    0:00:00
        4   1    5    1  -112.28186688   -6.41E-05*  3.80E-03    4   8 1 -4.19E-03*  0.00   0.00    SX    NO    0:00:00
        5   1    4    1  -112.28187750   -1.06E-05*  2.02E-03    3  10 1  2.03E-03*  0.00   0.74    QN   YES    0:00:00
        6   1    4    1  -112.28187980   -2.30E-06*  2.26E-03    3  10 1  2.60E-04*  0.00   1.13    QN   YES    0:00:00
        7   1    4    1  -112.28188001   -2.11E-07*  1.76E-03    4   8 1 -9.73E-05   0.00   1.78    LS   YES    0:00:00
        8   1    4    1  -112.28188006   -5.08E-08*  9.17E-04    3  10 1 -2.69E-04*  0.00   1.01    QN   YES    0:00:00
        9   1    4    1  -112.28188011   -4.48E-08*  6.12E-04    3  10 1 -1.04E-04*  0.00   1.60    QN   YES    0:00:00
       10   1    3    1  -112.28188011   -9.04E-09   2.14E-05    4   8 1  8.57E-06   0.00   1.04    QN   YES    0:00:00
      Convergence after 10 iterations
       11   1    3    1  -112.28188011   -9.39E-11   2.14E-05    4   8 1  1.97E-06   0.00   1.04    QN   YES    0:00:00
 
      ************************************************************************************************************************
                                                      Wave function printout:
                       occupation of active orbitals, and spin coupling of open shells (u,d: Spin up or down)
      ************************************************************************************************************************
 
      Note: transformation to natural orbitals
      has been made, which may change the order of the CSFs.
 
      printout of CI-coefficients larger than  0.05 for root  1
      energy=    -112.281880
      conf/sym  11     Coeff  Weight
             1  20   0.99690 0.99380
             3  02  -0.07873 0.00620
 
      Natural orbitals and occupation numbers for root  1
      sym 1:   1.987602   0.012398
 
      ************************************************************************************************************************
      *                                                                                                                      *
      *                                                    Final results                                                     *
      *                                                                                                                      *
      ************************************************************************************************************************
 
 
++    Wave function specifications:
      -----------------------------
 
      Number of closed shell electrons          12
      Number of electrons in active shells       2
      Max number of holes in RAS1 space          0
      Max nr of electrons in RAS3 space          0
      Number of inactive orbitals                6
      Number of active orbitals                  2
      Number of secondary orbitals               2
      Spin quantum number                      0.0
      State symmetry                             1
--
 
++    Orbital specifications:
      -----------------------
 
      Symmetry species                           1
                                                 a
      Frozen orbitals                            0
      Inactive orbitals                          6
      Active orbitals                            2
      RAS1 orbitals                              0
      RAS2 orbitals                              2
      RAS3 orbitals                              0
      Secondary orbitals                         2
      Deleted orbitals                           0
      Number of basis functions                 10
--
 
++    CI expansion specifications:
      ----------------------------
 
      Number of CSFs                             3
      Number of determinants                     3
      Number of root(s) required                 1
      CI root used                               1
      highest root included in the CI            1
      Root passed to geometry opt.               1
--
 
++    Final optimization conditions:
      ------------------------------
 
      Average CI energy                            -112.28188011
      RASSCF energy for state  1                   -112.28188011
      Super-CI energy                                -0.00000000
      RASSCF energy change                           -0.00000000
      Max change in MO coefficients              -2.265E-05
      Max non-diagonal density matrix element     2.145E-05
      Maximum BLB matrix element                  1.967E-06
      (orbital pair   4,   8 in symmetry   1)
      Norm of electronic gradient            2.865E-06
--
 
 
      Final state energy(ies):
      ------------------------
 
::    RASSCF root number  1 Total energy:   -112.28188011
 
++    Molecular orbitals:
      -------------------
 
      Pseudonatural active orbitals and approximate occupation numbers
 
 
 
 
      Molecular orbitals for symmetry species 1: a  
 
 
      Orbital                 1         2         3         4         5         6         7         8         9        10
      Energy           -20.9332  -11.6200   -1.8397   -0.8550   -0.8537   -0.8329   -0.6589    0.0000    0.2385    1.2455
      Occ. No.           2.0000    2.0000    2.0000    2.0000    2.0000    2.0000    1.9876    0.0124    0.0000    0.0000
 
     1 C1     1s        -0.0008    0.9987   -0.1488   -0.0000   -0.0000    0.1017   -0.0424    0.0000    0.0000   -0.3698
     2 C1     2s        -0.0008   -0.0189    0.0526   -0.0000   -0.0000    0.2369   -0.8849   -0.0000    0.0000   -1.6639
     3 C1     2px        0.0000   -0.0000   -0.0000    0.3596    0.0802    0.0000    0.0000   -1.0380   -0.2265   -0.0000
     4 C1     2py        0.0000    0.0000   -0.0000   -0.0787    0.3665   -0.0000   -0.0000    0.2270   -1.0356    0.0000
     5 C1     2pz       -0.0031    0.0147    0.2190    0.0000   -0.0000   -0.3634    0.4541    0.0000   -0.0000   -1.5112
     6 O2     1s         1.0005   -0.0026   -0.0344   -0.0000    0.0000    0.0298    0.0172   -0.0000    0.0000    0.3316
     7 O2     2s         0.0028    0.0058    0.7505   -0.0000    0.0000    0.4998    0.3256   -0.0000    0.0000    1.8612
     8 O2     2px       -0.0000   -0.0000    0.0000    0.7586    0.1648    0.0000   -0.0000    0.7945    0.1749    0.0000
     9 O2     2py       -0.0000   -0.0000   -0.0000   -0.1659    0.7533   -0.0000   -0.0000   -0.1738    0.7996   -0.0000
    10 O2     2pz       -0.0050   -0.0023   -0.3850   -0.0000    0.0000    0.8704    0.0840    0.0000    0.0000   -1.0198
--
 
      Von Neumann Entropy (Root   1) =  0.05438
 

      Mulliken population analysis for root number:  1
      -----------------------------------------------
 
 
++    Molecular charges:
      ------------------
 
      Mulliken charges per centre and basis function type
      ---------------------------------------------------
 
                C1      O2    
      1s       2.0009  2.0013
      2s       1.4352  1.8232
      2px      0.5418  1.4700
      2pz      0.9775  1.7496
      2py      0.5459  1.4547
      Total    5.5013  8.4987
 
      N-E      0.4987 -0.4987
 
      Total electronic charge=   14.000000
 
      Total            charge=   -0.000000
--
 
 

      Expectation values of various properties for root number:  1
      -----------------------------------------------------------
 
 
++    Molecular properties:
      ---------------------
 
      Charge (e):
                      =   -0.0000
      Dipole Moment (Debye):
      Origin of the operator (Ang)=    0.0000    0.0000    0.0000
                   X=  1.9902E-13               Y= -1.9251E-14               Z= -5.2127E-02           Total=  5.2127E-02
      Quadrupole Moment (Debye*Ang):
      Origin of the operator (Ang)=    0.0000    0.0000    0.5142
                  XX= -1.0689E+01              XY=  7.4202E-04              XZ= -9.6344E-14              YY= -1.0686E+01
                  YZ=  6.2071E-14              ZZ= -1.3928E+01
      In traceless form (Debye*Ang)
                  XX=  1.6179E+00              XY=  1.1130E-03              XZ= -1.4452E-13              YY=  1.6227E+00
                  YZ=  9.3107E-14              ZZ= -3.2406E+00
--
 

      LoProp population analysis for root number:  1
      -----------------------------------------------
 
 
++    LoProp analysis:
      ----------------
 
 
 
      Input file to MOLDEN was generated!
 
 
++    Static properties:
      ------------------
 
 
      LoProp Charges per center
 

                   C1       O2    
      Nuclear      6.0000   8.0000
      Electronic  -5.9180  -8.0820
 
      Total        0.0820  -0.0820
--
 
 
      Natural Bond Order analysis for root number:  1
 
++    Natural Bond Order analysis
      ---------------------------
      Based on LoProp computed density
      -------------------------------------------------------------------------------------
      Atom A       Atom B       Bond Order
        C1           O2             0.764
      -------------------------------------------------------------------------------------
      NBO located      1.529 electrons involved in    1 bonds.
      NBO located      0.986 non-bonded electrons on atom C1        
      The remaining    4.912 electrons are to be considered as diffuse
--
 
--
 
 
      Input file to MOLDEN was generated!
 
      Average orbitals are written to the RASORB file
      Natural orbitals for root   1 are written to the RASORB.1 file
      Spin density orbitals for root   1 are written to the SPDORB.1 file
 
--- Stop Module: rasscf at Thu Apr 25 13:51:55 2024 /rc=_RC_ALL_IS_WELL_ ---
*** files: 0.90.LprOrb 0.90.rasscf.molden 0.90.LoProp.molden 0.90.RasOrb.1 0.90.RasOrb 0.90.rasscf.h5 0.90.SpdOrb.1 xmldump
    saved to directory /home/grierjones/DDCASPT2/delta_ML/CO/0.90

*** symbolic link created: INPORB -> 0.90.RasOrb
--- Start Module: caspt2 at Thu Apr 25 13:51:55 2024 ---
 
()()()()()()()()()()()()()()()()()()()()()()()()()()()()()()()()()()()()()()()()()()()()()()()()()()

                                              &CASPT2

                                   only a single process is used
                       available to each process: 2.0 GB of memory, 1 thread?
                                            pid: 106534
()()()()()()()()()()()()()()()()()()()()()()()()()()()()()()()()()()()()()()()()()()()()()()()()()()
 
 ###############################################################################
 ###############################################################################
 ###                                                                         ###
 ###                                                                         ###
 ###    WARNING: User changed nr of frozen orbitals.                         ###
 ###                                                                         ###
 ###                                                                         ###
 ###############################################################################
 ###############################################################################
 
++    Wave function specifications:
      -----------------------------
 
      Number of closed shell electrons          12
      Number of electrons in active shells       2
      Max number of holes in RAS1 space          0
      Max number of electrons in RAS3 space      0
      Number of inactive orbitals                6
      Number of active orbitals                  2
      Number of secondary orbitals               2
      Spin quantum number                      0.0
      State symmetry                             1
      Number of CSFs                             3
      Number of CASSCF root(s) available         1
      CASPT2 state passed to geometry opt.       1
      A file JOBMIX will be created
      This is a CASSCF or RASSCF reference function
--
 
++    Orbital specifications:
      -----------------------
 
      Symmetry species                           1
                                                 a
      Frozen orbitals                            0
      Inactive orbitals                          6
      Active orbitals                            2
      Secondary orbitals                         2
      Deleted orbitals                           0
      Number of basis functions                 10
--
 
++    CASPT2 specifications:
      ----------------------
 
      Type of calculation                        SS-CASPT2
      Fock operator                              state-specific
      IPEA shift                                 0.25
      Real shift                                 0.00
      Imaginary shift                            0.00
      The input orbitals will be transformed to quasi-canonical
--
 
--------------------------------------------------------------------------------
 Estimated memory requirements:
  POLY3 :                   250070
  RHS:                      250428
  SIGMA :                   250384
  PRPCTL:                        0
 Available workspace:    230392690
 
++ CASPT2 computation for group   1
 
********************************************************************************
 Multi-State initialization phase begins for group   1
--------------------------------------------------------------------------------
********************************************************************************
 Compute H0 matrices for state    1
--------------------------------------------------------------------------------
--------------------------------------------------------------------------------
 H0 matrices have been computed.
 
********************************************************************************
  CASPT2 EQUATION SOLUTION
--------------------------------------------------------------------------------
 
  Total nr of CASPT2 parameters:
   Before reduction:         518
   After  reduction:         358
 
 Variance of |WF0>:       0.2114674683
 
 The contributions to the second order correlation energy in atomic units.
-----------------------------------------------------------------------------------------------------------------------------
  IT.      VJTU        VJTI        ATVX        AIVX        VJAI        BVAT        BJAT        BJAI        TOTAL       RNORM  
-----------------------------------------------------------------------------------------------------------------------------
   1     0.000000   -0.009031   -0.000000   -0.001152   -0.030231   -0.003805   -0.001417   -0.023898   -0.069533    0.001807
   2     0.000000   -0.009032   -0.000000   -0.001156   -0.030241   -0.003849   -0.001422   -0.023918   -0.069617    0.000105
   3     0.000000   -0.009032   -0.000000   -0.001155   -0.030240   -0.003849   -0.001420   -0.023918   -0.069615    0.000008
-----------------------------------------------------------------------------------------------------------------------------
 
  FINAL CASPT2 RESULT:
 
      Reference energy:        -112.2818801142
      E2 (Non-variational):      -0.0696150120
      E2 (Variational):          -0.0696150130
      Total energy:            -112.3514951272
      Residual norm:              0.0000002255
      Reference weight:           0.97422
 
      Contributions to the CASPT2 correlation energy
      Active & Virtual Only:         -0.0038494860
      One Inactive Excited:          -0.0025755923
      Two Inactive Excited:          -0.0631899337
 
 
++ Denominators, etc.
--------------------------------------------------------------------------------------------------------------
 Report on small energy denominators, large coefficients, and large energy contributions.
CASE  SYMM ACTIVE-MIX  NON-ACTIVE INDICES          DENOMINATOR     RHS VALUE       COEFFICIENT     CONTRIBUTION
VJTIP    1  Mu1.0001  In1.004 In1.004               2.29439186      0.13746295     -0.05991422     -0.00823599
VJAIP    1  Mu1.0001  Se1.010 In1.004 In1.003       4.16597369     -0.12538441      0.03013476     -0.00377843
VJAIP    1  Mu1.0001  Se1.009 In1.005 In1.004       2.17295618     -0.12596554      0.05797135     -0.00730239
VJAIM    1  Mu1.0001  Se1.010 In1.004 In1.003       4.16597369      0.11785012     -0.02853539     -0.00336290
VJAIM    1  Mu1.0001  Se1.009 In1.005 In1.004       2.17295618     -0.16919338      0.07786615     -0.01317444
VJAIM    1  Mu1.0001  Se1.010 In1.006 In1.004       3.15913563      0.08009224     -0.02597887     -0.00208071
BVATP    1  Mu1.0001  Se1.009 Se1.009               1.90870583     -0.08132124      0.04255043     -0.00346025
BJAIP    1  Se1.009 In1.003 Se1.010 In1.005         4.17752252      0.12625434     -0.03026360     -0.00382091
BJAIP    1  Se1.009 In1.005 Se1.009 In1.005         2.18450501      0.14123181     -0.06465163     -0.00913087
BJAIM    1  Se1.009 In1.003 Se1.009 In1.005         4.17752252     -0.11887137      0.02871469     -0.00341335
BJAIM    1  Se1.009 In1.005 Se1.009 In1.006         3.17068446     -0.08067823      0.02610480     -0.00210609
--
 
   (Skipping property calculation,
    use PROP keyword to activate)
--
 
  Total CASPT2 energies:
::    CASPT2 Root  1     Total energy:   -112.35149513
 
  A NEW JOBIPH FILE NAMED 'JOBMIX' IS PREPARED.
********************************************************************************
--- Stop Module: caspt2 at Thu Apr 25 13:51:56 2024 /rc=_RC_ALL_IS_WELL_ ---
*** files: xmldump
    saved to directory /home/grierjones/DDCASPT2/delta_ML/CO/0.90

.##################.
.# Happy landing! #.
.##################.

    Timing: Wall=2.29 User=1.55 System=0.22
************************************
*** WorkDir at /tmp/0.90 removed ***
************************************
