   This run of MOLCAS is using the pymolcas driver

                             OPE
                             OPE          NMOL  CASOP  ENMOLC A   SO
                 OPE        NMOLC        AS  OP EN  MO LC     AS  OP
                OPENM       OL CA        SO  PE NM  OL CA     SOP EN
                OP EN      MO   LC       AS  OP ENMOL  CASO   PENMOL
                OP  EN     MO   LC       AS  OP EN     MO     LC ASO
               OP   E  NMOL  C  AS       OP  EN MO     LC     AS  OP
               OP  E   NMO   LC AS        OPEN  MO     LCASOP EN   M
               O  PEN   MO  LCA  SO
            OPE   NMO   L   CAS    OP
        OPENMOL  CASOP     ENMOL   CASOPE
     OPENMOLCA   SOPENMOLCASOPEN   MOLCASOPE
    OPENMOLCAS   OP           EN   MOL    CAS
    OPENMOLCAS       OP  ENM        O     LCA
    OPENMOLCAS    OPEN  MOLCASO     P  E  NMO
    OPENMOLCAS     OP               E  N  MOL
    OPENMOLCA   SO           PENM   O  L  CAS    OPEN    MO    LCAS
    OPENMOLCA   SOP           ENM   O  L  CAS   OP  EN  MOLC  AS   O
    OPENMOLCA   SOPE           NM      O  LCA   S      OP  EN MO
    OPENMOLC                AS         O  PEN   M      OL  CA  SOPE
    OPENMO        LCASOPE  NMOL        C  ASO   P      ENMOLC     AS
    OPE     NMO      LCA  SO     P     E   NM   OL  CA SO  PE N   MO
          OPENMOLCA            SOPE   NMO        LCAS  O    P  ENMO
     OPENMOLCASOPENMOLCASOPENMOLCASOPENMOLCA
        OPENMOLCASOPENMOLCASOPENMOLCASOPE
            OPENMOLCASOPENMOLCASOPENM
               OPENMOLCASOPENMOLCA        version: 44d3b5344-dirty
                   OPENMOLCASO
                       OPE                tag:

 OpenMolcas is free software; you can redistribute it and/or modify it
 under the terms of the GNU Lesser General Public License version 2.1.
 OpenMolcas is distributed in the hope that it will be useful, but it
 is provided "as is" and without any express or implied warranties.
 For more details see the full text of the license in the file
 LICENSE or in <http://www.gnu.org/licenses/>.

                 Copyright (C) The OpenMolcas Authors
           For the author list and the recommended citation,
                   consult the file CONTRIBUTORS.md

           *************************************************
           * pymolcas version py2.28                       *
           *   build c4a6d18ded8cb6cad61d2372a9abd97c      *
           *   (after the EMIL interpreter by V. Veryazov) *
           *************************************************

configuration info
------------------
C Compiler ID: GNU
C flags: -std=gnu99
Fortran Compiler ID: Intel
Fortran flags: -fpp -i8 -r8 -heap-arrays
Definitions: _MOLCAS_;_I8_;_LINUX_
Parallel: OFF (GA=OFF)


   ----------------------------------------------------------------
  |
  |              Project: O3_181
  |       Submitted from: /home/grierjones/DDCASPT2/ozone/O3/O3_181
  |         Scratch area: /tmp/O3_181
  |      Save outputs to: /home/grierjones/DDCASPT2/ozone/O3/O3_181
  |               Molcas: /home/grierjones/Test/build
  |
  | Scratch area is empty
  |
  |       MOLCAS_DRIVER = /usr/local/pymolcas
  | MOLCAS_KEEP_WORKDIR = NO
  |  MOLCAS_NEW_WORKDIR = YES
  |       MOLCAS_NPROCS = 1
  |       MOLCAS_SOURCE = /home/grierjones/Test/build
  |    MOLCAS_STRUCTURE = 0
  |
   ----------------------------------------------------------------

++ ---------   Input file   ---------

&GATEWAY
coord=O3_181.xyz
Basis = ANO-RCC-VDZP
Group = nosymm
Expert
End of Input

&SEWARD
End of Input

&MOTRA
Frozen=0

>>> COPY $WorkDir/GMJ_one_int_indx.csv $CurrDir/O3_181.GMJ_one_int_indx.csv

>>> COPY $WorkDir/GMJ_one_int.csv $CurrDir/O3_181.GMJ_one_int.csv

>>> COPY $WorkDir/GMJ_two_int_indx.csv $CurrDir/O3_181.GMJ_two_int_indx.csv

>>> COPY $WorkDir/GMJ_two_int.csv $CurrDir/O3_181.GMJ_two_int.csv

&SCF

>>> COPY $WorkDir/O3_181.scf.h5 $CurrDir/

&RASSCF
Title= RASSCF
FileOrb
/home/grierjones/DDCASPT2/ozone/O3/O3_180/O3_180.RasOrb

NACTEL
4 0 0
Inactive
10
RAS2
3
Symmetry
1
Spin
1
orblisting
all
ITERation
200 100
CIMX
200
SDAV
500
PRWF
0
PRSD

>>> COPY $WorkDir/O3_181.rasscf.h5 $CurrDir/

>>> COPY $WorkDir/GMJ_Fock_MO.csv $CurrDir/O3_181.GMJ_Fock_MO.csv

&CASPT2
Frozen
0
Imaginary Shift
0.0

>>> FOREACH i IN (B,E,F,G,H)

  >>> FOREACH j IN (P,M)

    >>> IF (-FILE GMJ_e2_${i}_${j}.csv)

      >>> COPY $WorkDir/GMJ_RHS_${i}_${j}.csv $CurrDir/GMJ_RHS_${i}_${j}.csv

      >>> COPY $WorkDir/GMJ_IVECW_${i}_${j}.csv $CurrDir/GMJ_IVECW_${i}_${j}.csv

      >>> COPY $WorkDir/GMJ_e2_${i}_${j}.csv $CurrDir/GMJ_e2_${i}_${j}.csv

    >>> END IF

  >>> END FOREACH

>>> END FOREACH

>>> FOREACH i IN (A,C,D)

  >>> IF (-FILE GMJ_e2_$i.csv)

    >>> COPY $WorkDir/GMJ_RHS_$i.csv $CurrDir/GMJ_RHS_$i.csv

    >>> COPY $WorkDir/GMJ_IVECW_$i.csv $CurrDir/GMJ_IVECW_$i.csv

    >>> COPY $WorkDir/GMJ_e2_$i.csv $CurrDir/GMJ_e2_$i.csv

  >>> END IF

>>> END FOREACH

-- ----------------------------------

--- Start Module: gateway at Fri Jul 26 14:28:36 2024 ---
 
()()()()()()()()()()()()()()()()()()()()()()()()()()()()()()()()()()()()()()()()()()()()()()()()()()

                                              &GATEWAY

                                   only a single process is used
                       available to each process: 2.0 GB of memory, 1 thread?
()()()()()()()()()()()()()()()()()()()()()()()()()()()()()()()()()()()()()()()()()()()()()()()()()()
 
 ###############################################################################
 ###############################################################################
 ###                                                                         ###
 ###                                                                         ###
 ###                                                                         ###
 ###    WARNING: EXPERT option is ON!                                        ###
 ###                                                                         ###
 ###                                                                         ###
 ###############################################################################
 ###############################################################################
 
++    Symmetry information:
      ---------------------
 
                    Character Table for C1 
 
                             E  
                    a        1  x, y, xy, Rz, z, xz, Ry, yz, Rx, I
--
 
 
++    Basis set information:
      ----------------------
 
 
      Basis set label: O.ANO-RCC...3S2P1D.
 
      Electronic valence basis set:
      ------------------
      Associated Effective Charge   8.000000 au
      Associated Actual Charge      8.000000 au
      Nuclear Model: Point charge
 
      Shell  nPrim  nBasis  Cartesian Spherical Contaminant
         s      14       3        X                  
         p       9       2        X                  
         d       4       1                 X         
--
 
 
++    Molecular structure info:
      -------------------------
 
                    ************************************************ 
                    **** Cartesian Coordinates / Bohr, Angstrom **** 
                    ************************************************ 
 
     Center  Label                x              y              z                     x              y              z
        1      O1              -0.021076       2.414977       0.000000             -0.011153       1.277951       0.000000
        2      O2               0.000000       0.000000       0.000000              0.000000       0.000000       0.000000
        3      O3              -0.021076      -2.414977       0.000000             -0.011153      -1.277951       0.000000
 
                    *************************************** 
                    *    InterNuclear Distances / Bohr    * 
                    *************************************** 
 
               1 O1            2 O2            3 O3    
    1 O1       0.000000
    2 O2       2.415069        0.000000
    3 O3       4.829955        2.415069        0.000000
 
                    ******************************************* 
                    *    InterNuclear Distances / Angstrom    * 
                    ******************************************* 
 
               1 O1            2 O2            3 O3    
    1 O1       0.000000
    2 O2       1.278000        0.000000
    3 O3       2.555902        1.278000        0.000000
 
                    ************************************** 
                    *    Valence Bond Angles / Degree    * 
                    ************************************** 
                          Atom centers                 Phi
                      1 O1       2 O2       3 O3       179.00
--
 
 
            Nuclear Potential Energy             66.25118987 au
 
 ###############################################################################
 ###############################################################################
 ###                                                                         ###
 ###                                                                         ###
 ###    There were warnings during the execution                             ###
 ###    Please, check the output with care!                                  ###
 ###                                                                         ###
 ###                                                                         ###
 ###############################################################################
 ###############################################################################
--- Stop Module: gateway at Fri Jul 26 14:28:36 2024 /rc=_RC_ALL_IS_WELL_ ---
*** files: xmldump
    saved to directory /home/grierjones/DDCASPT2/ozone/O3/O3_181

--- Start Module: seward at Fri Jul 26 14:28:36 2024 ---
 
()()()()()()()()()()()()()()()()()()()()()()()()()()()()()()()()()()()()()()()()()()()()()()()()()()

                                              &SEWARD

                                   only a single process is used
                       available to each process: 2.0 GB of memory, 1 thread?
()()()()()()()()()()()()()()()()()()()()()()()()()()()()()()()()()()()()()()()()()()()()()()()()()()
 
 ###############################################################################
 ###############################################################################
 ###                                                                         ###
 ###                                                                         ###
 ###                                                                         ###
 ###    WARNING: EXPERT option is ON!                                        ###
 ###                                                                         ###
 ###                                                                         ###
 ###############################################################################
 ###############################################################################
               SEWARD will generate:
                  Multipole Moment integrals up to order  2
                  Kinetic Energy integrals
                  Nuclear Attraction integrals (point charge)
                  One-Electron Hamiltonian integrals
                  Velocity integrals
                  Relativistic Douglas-Kroll-Hess integrals:
                    - Parametrization         : EXP
                    - DKH order of Hamiltonian: 2
                    - DKH order of Properties : 0
                         - multipole moment operators
                         - electric potential operators
                         - contact operators
                  Atomic mean-field integrals
                  Two-Electron Repulsion integrals
 
                   Integrals are discarded if absolute value <: 0.10E-13
                   Integral cutoff threshold is set to       <: 0.10E-15
 
            Nuclear Potential Energy             66.25118987 au
 
 
      Basis set specifications :
      Symmetry species         a  
      Basis functions           42
 
 
  Input file to MOLDEN was generated!
 
 ###############################################################################
 ###############################################################################
 ###                                                                         ###
 ###                                                                         ###
 ###    There were warnings during the execution                             ###
 ###    Please, check the output with care!                                  ###
 ###                                                                         ###
 ###                                                                         ###
 ###############################################################################
 ###############################################################################
--- Stop Module: seward at Fri Jul 26 14:28:37 2024 /rc=_RC_ALL_IS_WELL_ ---
*** files: O3_181.GssOrb O3_181.guessorb.h5 O3_181.guessorb.molden xmldump
    saved to directory /home/grierjones/DDCASPT2/ozone/O3/O3_181

*** symbolic link created: INPORB -> O3_181.GssOrb
--- Start Module: motra at Fri Jul 26 14:28:37 2024 ---
 
()()()()()()()()()()()()()()()()()()()()()()()()()()()()()()()()()()()()()()()()()()()()()()()()()()

                                               &MOTRA

                                   only a single process is used
                       available to each process: 2.0 GB of memory, 1 thread?
()()()()()()()()()()()()()()()()()()()()()()()()()()()()()()()()()()()()()()()()()()()()()()()()()()
 
 
      *** WARNING: Default frozen orbitals is overwritten by user input.
      *** Default values:   3
 
      Header of the integral files:
      
       Integrals generated by seward 4.2.0  , Fri Jul 26 14:28:36 2024
 
 
      Header of MO coefficients source file:
      *Guess orbitals                                                                 
 
 
      Cartesian coordinates in Angstrom:
      -----------------------------------------------------
      No.  Label        X            Y            Z        
      -----------------------------------------------------
       1   O1        -0.01115300   1.27795100   0.00000000
       2   O2         0.00000000   0.00000000   0.00000000
       3   O3        -0.01115300  -1.27795100   0.00000000
      -----------------------------------------------------
      Nuclear repulsion energy =   66.25118987
 
      Orbital specifications:
      -----------------------
 
      Symmetry species:              1
      Number of basis functions:    42
      Frozen orbitals:               0
      Deleted orbitals:              0
      Number of orbitals used:      42

       SYMMETRY  BASIS FUNCTIONS       ORBITALS      INTEGRALS   CPU(SEC)  I/O(SEC)
 
        1 1 1 1   42  42  42  42    42  42  42  42      408156       0.00      0.00

       TOTAL CPU TIME(SEC)    3.17TOTAL I/O TIME(SEC)    5.44
 
--- Stop Module: motra at Fri Jul 26 14:28:43 2024 /rc=_RC_ALL_IS_WELL_ ---
*** files: xmldump
    saved to directory /home/grierjones/DDCASPT2/ozone/O3/O3_181
--- Module motra spent 5 seconds ---

>>> COPY /tmp/O3_181/GMJ_one_int_indx.csv /home/grierjones/DDCASPT2/ozone/O3/O3_181/O3_181.GMJ_one_int_indx.csv

>>> COPY /tmp/O3_181/GMJ_one_int.csv /home/grierjones/DDCASPT2/ozone/O3/O3_181/O3_181.GMJ_one_int.csv

>>> COPY /tmp/O3_181/GMJ_two_int_indx.csv /home/grierjones/DDCASPT2/ozone/O3/O3_181/O3_181.GMJ_two_int_indx.csv

>>> COPY /tmp/O3_181/GMJ_two_int.csv /home/grierjones/DDCASPT2/ozone/O3/O3_181/O3_181.GMJ_two_int.csv

*** symbolic link created: INPORB -> O3_181.GssOrb
--- Start Module: scf at Fri Jul 26 14:28:43 2024 ---
 
()()()()()()()()()()()()()()()()()()()()()()()()()()()()()()()()()()()()()()()()()()()()()()()()()()

                                                &SCF

                                   only a single process is used
                       available to each process: 2.0 GB of memory, 1 thread?
()()()()()()()()()()()()()()()()()()()()()()()()()()()()()()()()()()()()()()()()()()()()()()()()()()
 
++    Input section:
      --------------
 
      Header of the integral files:
      
       Integrals generated by seward 4.2.0  , Fri Jul 26 14:28:36 2024
 
 
      Cartesian coordinates in Angstrom:
      -----------------------------------------------------
      No.  Label        X            Y            Z        
      -----------------------------------------------------
       1   O1        -0.01115300   1.27795100   0.00000000
       2   O2         0.00000000   0.00000000   0.00000000
       3   O3        -0.01115300  -1.27795100   0.00000000
      -----------------------------------------------------
      Nuclear repulsion energy =   66.25118987
--
 
++    Orbital specifications:
      -----------------------
 
      Symmetry species               1
                                     a
      Frozen orbitals                0
      Aufbau                        12
      Start temperature = 0.500
      End temperature   = 0.010
      Temperature Factor= 0.460
      Deleted orbitals               0
      Total number of orbitals      42
      Number of basis functions     42
--
 
      Molecular charge                           0.000
 
++    Optimization specifications:
      ----------------------------
 
      SCF Algorithm: Conventional
      Minimized density differences are used
      Number of density matrices in core                5
      Maximum number of NDDO SCF iterations           400
      Maximum number of HF SCF iterations             400
      Threshold for SCF energy change            0.10E-08
      Threshold for density matrix               0.10E-03
      Threshold for Fock matrix                  0.15E-03
      Threshold for linear dependence            0.10E-08
      Threshold at which DIIS is turned on       0.15E+00
      Threshold at which QNR/C2DIIS is turned on 0.75E-01
      Threshold for Norm(delta) (QNR/C2DIIS)     0.20E-04
      DIIS extrapolation of the SCF procedure
      All orbitals punched on: SCFORB
--
 
      Input vectors read from INPORB
      Orbital file label: *Guess orbitals
 
 
++ Convergence information
                                   SCF        iterations: Energy and convergence statistics
 
Iter     Tot. SCF        One-elec.       Two-elec.     Energy      Max Dij or  Max Fij      DNorm      TNorm      AccCon     Time
         Energy          Energy          Energy        Change      Delta Norm                                                in Sec.
   1  -221.451177822  -440.149357606   152.446989910   0.00E+00    0.12E+00*   0.70E+00*    0.77E+01   0.76E+02   None         0.
   2  -222.511444957  -435.239487564   146.476852733  -0.11E+01*   0.11E+00*   0.80E-01*    0.34E+01   0.75E+02   EDIIS        0.
   3  -223.806908173  -441.629020482   151.570922435  -0.13E+01*   0.93E-01*   0.12E+00*    0.30E+01   0.76E+02   EDIIS        0.
   4  -224.120019773  -438.828050156   148.456840508  -0.31E+00*   0.13E+00*   0.98E-01*    0.14E+01   0.75E+02   EDIIS        0.
   5  -224.124217130  -440.864457652   150.489050647  -0.42E-02*   0.39E-01*   0.58E-01*    0.50E+00   0.76E+02   EDIIS        0.
   6  -224.153800651  -440.061710878   149.656720352  -0.30E-01*   0.35E-01*   0.25E-01*    0.16E+00   0.76E+02   EDIIS        0.
   7  -224.234257696  -440.199827761   149.714380191  -0.80E-01*   0.89E-01*   0.36E-01*    0.15E+01   0.76E+02   EDIIS        0.
   8  -224.371323623  -440.082636012   149.460122515  -0.14E+00*   0.42E-01*   0.48E-01*    0.22E+00   0.76E+02   EDIIS        0.
   9  -224.375263115  -440.345385751   149.718932762  -0.39E-02*   0.78E-01*   0.33E-01*    0.19E+00   0.76E+02   EDIIS        0.
 
       Fermi aufbau procedure completed!
      nOcc=   12
 
  10  -224.376093105  -440.099915913   149.472632933  -0.83E-03*   0.99E-02*   0.23E-01*    0.37E-01   0.76E+02   EDIIS        0.
  11  -224.378172595  -440.233409056   149.604046587  -0.21E-02*   0.18E-01*   0.64E-02*    0.10E-01   0.76E+02   EDIIS        0.
  12  -224.378248980  -440.194808278   149.565369424  -0.76E-04*   0.63E-02*   0.46E-02*    0.22E-02   0.76E+02   EDIIS        0.
  13  -224.378286956  -440.227045174   149.597568344  -0.38E-04*   0.65E-02*   0.28E-02*    0.74E-03   0.76E+02   EDIIS        0.
  14  -224.378324544  -440.205650296   149.576135878  -0.38E-04*   0.25E-02*   0.99E-03*    0.33E-03   0.76E+02   c2DIIS       0.
  15  -224.378333509  -440.210790527   149.581267144  -0.90E-05*   0.76E-03*   0.46E-03*    0.96E-04   0.76E+02   QNRc2DIIS    0.
  16  -224.378335354  -440.211429175   149.581903946  -0.18E-05*   0.15E-02*   0.37E-03*    0.43E-04   0.76E+02   QNRc2DIIS    0.
  17  -224.378336324  -440.209663067   149.580136869  -0.97E-06*   0.30E-03*   0.21E-03*    0.61E-04   0.76E+02   QNRc2DIIS    0.
  18  -224.378336471  -440.210546195   149.581019849  -0.15E-06*   0.98E-04*   0.18E-04     0.23E-01   0.76E+02   QNRc2DIIS    0.
  19  -224.378336477  -440.210559694   149.581033342  -0.59E-08*   0.42E-04*   0.56E-05     0.35E-01   0.76E+02   QNRc2DIIS    0.
  20  -224.378336478  -440.210558184   149.581031832  -0.85E-09    0.50E-06    0.25E-06     0.50E-02   0.76E+02   QNRc2DIIS    0.
 
       Convergence after 20 Macro Iterations
--
 
 *****************************************************************************************************************************
 *                                                                                                                           *
 *                                             SCF/KS-DFT Program, Final results                                             *
 *                                                                                                                           *
 *                                                                                                                           *
 *                                                                                                                           *
 *                                                       Final Results                                                       *
 *                                                                                                                           *
 *****************************************************************************************************************************
 
::    Total SCF energy                               -224.3783364780
      One-electron energy                            -440.2105581840
      Two-electron energy                             149.5810318317
      Nuclear repulsion energy                         66.2511898744
      Kinetic energy (interpolated)                   225.6579869124
      Virial theorem                                    0.9943292482
      Total spin, S(S+1)                                0.0000000000
      Total spin, S                                     0.0000000000
      Max non-diagonal density matrix element           0.0000005203
      Max non-diagonal Fock matrix element              0.0000000591
 
 
      All orbitals with orbital energies smaller than  E(LUMO)+0.5 are printed
 
++    Molecular orbitals:
      -------------------
 
      Title: SCF orbitals

      Molecular orbitals for symmetry species 1: a  
 
          Orbital            1         2         3         4         5         6         7         8         9        10    
          Energy          -20.8356  -20.7363  -20.7363   -1.7032   -1.4690   -1.0590   -0.8404   -0.7821   -0.7489   -0.6252
          Occ. No.          2.0000    2.0000    2.0000    2.0000    2.0000    2.0000    2.0000    2.0000    2.0000    2.0000
 
        1 O1     1s         0.0029   -0.7072    0.7072   -0.0156    0.0095    0.0144    0.0002   -0.0197    0.0000   -0.0004
        2 O1     2s         0.0001   -0.0008    0.0005    0.3275   -0.5739    0.6558    0.0055   -0.4131    0.0000   -0.0050
        3 O1     3s         0.0001   -0.0002   -0.0001   -0.0243    0.0127    0.0190    0.0004   -0.0261    0.0000   -0.0004
        4 O1     2px       -0.0000   -0.0000    0.0000    0.0007   -0.0014   -0.0028    0.3461    0.0115    0.0000   -0.7049
        5 O1     3px       -0.0000   -0.0000   -0.0000   -0.0003    0.0002    0.0004   -0.0326   -0.0006   -0.0000    0.0057
        6 O1     2py       -0.0002    0.0009   -0.0010   -0.1014    0.0937    0.1821    0.0069   -0.4258    0.0000   -0.0108
        7 O1     3py       -0.0000   -0.0005    0.0003    0.0251   -0.0188   -0.0274   -0.0006    0.0286   -0.0000   -0.0000
        8 O1     2pz        0.0000   -0.0000    0.0000   -0.0000    0.0000    0.0000   -0.0000   -0.0000    0.4253    0.0000
        9 O1     3pz        0.0000    0.0000   -0.0000    0.0000   -0.0000   -0.0000    0.0000    0.0000   -0.0241   -0.0000
       10 O1     3d2-      -0.0000    0.0000   -0.0000   -0.0001    0.0003    0.0003   -0.0231   -0.0007   -0.0000    0.0145
       11 O1     3d1-      -0.0000   -0.0000    0.0000   -0.0000   -0.0000    0.0000    0.0000   -0.0000   -0.0310   -0.0000
       12 O1     3d0        0.0000    0.0000   -0.0001   -0.0082    0.0083    0.0071    0.0003   -0.0173    0.0000   -0.0003
       13 O1     3d1+       0.0000    0.0000   -0.0000    0.0000   -0.0000   -0.0000   -0.0000    0.0000    0.0002    0.0000
       14 O1     3d2+      -0.0001   -0.0002    0.0001   -0.0167    0.0157    0.0153    0.0008   -0.0327    0.0000   -0.0007
       15 O2     1s         0.9999   -0.0000   -0.0043   -0.0207    0.0000   -0.0148    0.0001    0.0000    0.0000   -0.0000
       16 O2     2s        -0.0000   -0.0000   -0.0008    0.6727   -0.0000   -0.6246    0.0015    0.0000    0.0000   -0.0000
       17 O2     3s        -0.0010   -0.0000   -0.0007   -0.0348   -0.0000   -0.0155    0.0001    0.0000    0.0000   -0.0000
       18 O2     2px       -0.0000    0.0000    0.0000   -0.0029    0.0000   -0.0051    0.7493    0.0000    0.0000   -0.0000
       19 O2     3px        0.0001    0.0000    0.0000    0.0006   -0.0000    0.0007   -0.0651    0.0000   -0.0000   -0.0000
       20 O2     2py       -0.0000    0.0010   -0.0000   -0.0000   -0.3271    0.0000    0.0000    0.5402   -0.0000    0.0079
       21 O2     3py       -0.0000    0.0013   -0.0000    0.0000    0.0822    0.0000    0.0000   -0.0833    0.0000   -0.0002
       22 O2     2pz        0.0000    0.0000    0.0000    0.0000    0.0000    0.0000   -0.0000    0.0000    0.6350   -0.0000
       23 O2     3pz       -0.0000    0.0000    0.0000   -0.0000   -0.0000   -0.0000    0.0000    0.0000   -0.0137   -0.0000
       24 O2     3d2-      -0.0000   -0.0000    0.0000    0.0000    0.0011   -0.0000   -0.0000   -0.0007    0.0000   -0.0380
       25 O2     3d1-      -0.0000   -0.0000   -0.0000    0.0000   -0.0000   -0.0000    0.0000    0.0000   -0.0000    0.0000
       26 O2     3d0       -0.0003    0.0000    0.0003   -0.0183    0.0000    0.0016    0.0006    0.0000    0.0000   -0.0000
       27 O2     3d1+      -0.0000    0.0000    0.0000    0.0000   -0.0000    0.0000    0.0000    0.0000   -0.0009    0.0000
       28 O2     3d2+       0.0002    0.0000    0.0004   -0.0332    0.0000   -0.0023   -0.0006    0.0000   -0.0000   -0.0000
       29 O3     1s         0.0029    0.7072    0.7072   -0.0156   -0.0095    0.0144    0.0002    0.0197    0.0000    0.0004
       30 O3     2s         0.0001    0.0008    0.0005    0.3275    0.5739    0.6558    0.0055    0.4131    0.0000    0.0050
       31 O3     3s         0.0001    0.0002   -0.0001   -0.0243   -0.0127    0.0190    0.0004    0.0261    0.0000    0.0004
       32 O3     2px       -0.0000    0.0000    0.0000    0.0007    0.0014   -0.0028    0.3461   -0.0115    0.0000    0.7049
       33 O3     3px       -0.0000    0.0000   -0.0000   -0.0003   -0.0002    0.0004   -0.0326    0.0006   -0.0000   -0.0057
       34 O3     2py        0.0002    0.0009    0.0010    0.1014    0.0937   -0.1821   -0.0069   -0.4258   -0.0000   -0.0108
       35 O3     3py        0.0000   -0.0005   -0.0003   -0.0251   -0.0188    0.0274    0.0006    0.0286    0.0000   -0.0000
       36 O3     2pz        0.0000    0.0000    0.0000   -0.0000   -0.0000    0.0000   -0.0000    0.0000    0.4253   -0.0000
       37 O3     3pz        0.0000   -0.0000   -0.0000    0.0000    0.0000   -0.0000    0.0000   -0.0000   -0.0241    0.0000
       38 O3     3d2-       0.0000    0.0000    0.0000    0.0001    0.0003   -0.0003    0.0231   -0.0007    0.0000    0.0145
       39 O3     3d1-      -0.0000   -0.0000   -0.0000    0.0000   -0.0000   -0.0000   -0.0000    0.0000    0.0310   -0.0000
       40 O3     3d0        0.0000   -0.0000   -0.0001   -0.0082   -0.0083    0.0071    0.0003    0.0173    0.0000    0.0003
       41 O3     3d1+       0.0000   -0.0000   -0.0000    0.0000    0.0000   -0.0000   -0.0000   -0.0000    0.0002   -0.0000
       42 O3     3d2+      -0.0001    0.0002    0.0001   -0.0167   -0.0157    0.0153    0.0008    0.0327    0.0000    0.0007
 
          Orbital           11        12        13        14        15        16    
          Energy           -0.5188   -0.4693   -0.0258    0.1289    0.2856    0.4698
          Occ. No.          2.0000    2.0000    0.0000    0.0000    0.0000    0.0000
 
        1 O1     1s         0.0000   -0.0001   -0.0000    0.0247   -0.1653    0.0015
        2 O1     2s         0.0000    0.0003    0.0000    0.3195   -1.1960    0.0103
        3 O1     3s         0.0000   -0.0007   -0.0000    0.0060   -0.4314    0.0059
        4 O1     2px       -0.0000    0.6680    0.0000   -0.0032   -0.0084   -0.1029
        5 O1     3px       -0.0000    0.0425    0.0000   -0.0011   -0.0069    0.4353
        6 O1     2py       -0.0000   -0.0051   -0.0000   -0.8068    0.5962   -0.0082
        7 O1     3py       -0.0000    0.0008    0.0000   -0.1619    0.6593   -0.0167
        8 O1     2pz       -0.7021   -0.0000    0.6488   -0.0000   -0.0000    0.0000
        9 O1     3pz       -0.0345   -0.0000    0.1294   -0.0000   -0.0000   -0.0000
       10 O1     3d2-       0.0000    0.0046    0.0000   -0.0005    0.0006    0.0288
       11 O1     3d1-       0.0246   -0.0000    0.0141   -0.0000    0.0000   -0.0000
       12 O1     3d0       -0.0000   -0.0002   -0.0000   -0.0004    0.0200   -0.0004
       13 O1     3d1+      -0.0001    0.0000   -0.0001    0.0000    0.0000    0.0000
       14 O1     3d2+      -0.0000   -0.0004   -0.0000   -0.0010    0.0335   -0.0013
       15 O2     1s         0.0000   -0.0010   -0.0000   -0.1161    0.0000   -0.0049
       16 O2     2s         0.0000   -0.0125   -0.0000   -1.1095    0.0000   -0.0301
       17 O2     3s         0.0000   -0.0019   -0.0000   -0.2560   -0.0000   -0.0116
       18 O2     2px       -0.0000   -0.7482   -0.0000    0.0202    0.0000   -0.0824
       19 O2     3px       -0.0000   -0.0452   -0.0000    0.0039   -0.0000    0.4476
       20 O2     2py       -0.0000    0.0000   -0.0000    0.0000    1.3324    0.0000
       21 O2     3py       -0.0000    0.0000   -0.0000    0.0000    1.1232    0.0000
       22 O2     2pz       -0.0000    0.0000   -0.9037    0.0000   -0.0000    0.0000
       23 O2     3pz       -0.0000    0.0000   -0.1701    0.0000    0.0000   -0.0000
       24 O2     3d2-      -0.0000    0.0000    0.0000   -0.0000   -0.0015    0.0000
       25 O2     3d1-      -0.0557    0.0000    0.0000   -0.0000    0.0000    0.0000
       26 O2     3d0       -0.0000   -0.0010   -0.0000   -0.0401    0.0000    0.0022
       27 O2     3d1+       0.0000   -0.0000    0.0003    0.0000    0.0000   -0.0000
       28 O2     3d2+      -0.0000   -0.0013   -0.0000   -0.0739    0.0000    0.0052
       29 O3     1s        -0.0000   -0.0001   -0.0000    0.0247    0.1653    0.0015
       30 O3     2s        -0.0000    0.0003    0.0000    0.3195    1.1960    0.0103
       31 O3     3s        -0.0000   -0.0007   -0.0000    0.0060    0.4314    0.0059
       32 O3     2px        0.0000    0.6680    0.0000   -0.0032    0.0084   -0.1029
       33 O3     3px        0.0000    0.0425    0.0000   -0.0011    0.0069    0.4353
       34 O3     2py       -0.0000    0.0051    0.0000    0.8068    0.5962    0.0082
       35 O3     3py       -0.0000   -0.0008   -0.0000    0.1619    0.6593    0.0167
       36 O3     2pz        0.7021   -0.0000    0.6488   -0.0000    0.0000    0.0000
       37 O3     3pz        0.0345   -0.0000    0.1294    0.0000    0.0000   -0.0000
       38 O3     3d2-       0.0000   -0.0046   -0.0000    0.0005    0.0006   -0.0288
       39 O3     3d1-       0.0246    0.0000   -0.0141    0.0000    0.0000    0.0000
       40 O3     3d0        0.0000   -0.0002   -0.0000   -0.0004   -0.0200   -0.0004
       41 O3     3d1+       0.0001    0.0000   -0.0001    0.0000   -0.0000    0.0000
       42 O3     3d2+       0.0000   -0.0004   -0.0000   -0.0010   -0.0335   -0.0013
--
 
 
++    Molecular charges:
      ------------------
 
      Mulliken charges per centre and basis function type
      ---------------------------------------------------
 
                O1      O2      O3    
      1s       2.0003  1.9999  2.0003
      2s       1.9381  1.6670  1.9381
      2px      2.0161  1.9991  2.0161
      2pz      1.4569  1.0374  1.4569
      2py      0.7146  1.0107  0.7146
      3s      -0.0154 -0.0243 -0.0154
      3px     -0.0203 -0.0460 -0.0203
      3pz     -0.0107 -0.0056 -0.0107
      3py     -0.0140  0.0270 -0.0140
      3d2+     0.0202  0.0167  0.0202
      3d1+     0.0000  0.0000  0.0000
      3d0      0.0057  0.0044  0.0057
      3d1-     0.0136  0.0486  0.0136
      3d2-     0.0119  0.0309  0.0119
      Total    8.1171  7.7658  8.1171
 
      N-E     -0.1171  0.2342 -0.1171
 
      Total electronic charge=   24.000000
 
      Total            charge=   -0.000000
--
 
 
  Input file to MOLDEN was generated!
 
 
++    Static properties:
      ------------------
 
 
      LoProp Charges per center
 

                   O1       O2       O3    
      Nuclear      8.0000   8.0000   8.0000
      Electronic  -8.1646  -7.6709  -8.1646
 
      Total       -0.1646   0.3291  -0.1646
--
 
 
++    Natural Bond Order analysis
      ---------------------------
      Based on LoProp computed density
      -------------------------------------------------------------------------------------
      Atom A       Atom B       Bond Order | Atom A       Atom B       Bond Order
        O1           O2             2.000  |   O2           O3             2.000
      -------------------------------------------------------------------------------------
      NBO located     16.000 core electrons.
      NBO located      8.000 electrons involved in    2 bonds.
--
 
 
++    Molecular properties:
      ---------------------
 
      Charge (e):
                      =   -0.0000
      Dipole Moment (Debye):
      Origin of the operator (Ang)=    0.0000    0.0000    0.0000
                   X= -1.1647E-03               Y=  1.0309E-10               Z=  1.0205E-12           Total=  1.1647E-03
      Quadrupole Moment (Debye*Ang):
      Origin of the operator (Ang)=   -0.0074    0.0000    0.0000
                  XX= -1.6337E+01              XY= -5.2154E-12              XZ=  2.0515E-10              YY= -1.6986E+01
                  YZ=  8.7715E-14              ZZ= -1.5155E+01
      In traceless form (Debye*Ang)
                  XX= -2.6626E-01              XY= -7.8231E-12              XZ=  3.0773E-10              YY= -1.2406E+00
                  YZ=  1.3157E-13              ZZ=  1.5068E+00
--
 
 
  Input file to MOLDEN was generated!
 
 ###############################################################################
 ###############################################################################
 ###                                                                         ###
 ###                                                                         ###
 ###    RunFile label nBas                                                   ###
 ###    was used       78 times                                              ###
 ###                                                                         ###
 ###                                                                         ###
 ###############################################################################
 ###############################################################################
--- Stop Module: scf at Fri Jul 26 14:28:43 2024 /rc=_RC_ALL_IS_WELL_ ---
*** files: O3_181.LprOrb O3_181.LoProp.molden O3_181.scf.molden O3_181.ScfOrb O3_181.scf.h5 xmldump
    saved to directory /home/grierjones/DDCASPT2/ozone/O3/O3_181

>>> COPY /tmp/O3_181/O3_181.scf.h5 /home/grierjones/DDCASPT2/ozone/O3/O3_181/

*** symbolic link created: INPORB -> O3_181.ScfOrb
--- Start Module: rasscf at Fri Jul 26 14:28:43 2024 ---
 
()()()()()()()()()()()()()()()()()()()()()()()()()()()()()()()()()()()()()()()()()()()()()()()()()()

                                              &RASSCF

                                   only a single process is used
                       available to each process: 2.0 GB of memory, 1 thread?
()()()()()()()()()()()()()()()()()()()()()()()()()()()()()()()()()()()()()()()()()()()()()()()()()()
 
 
      Header of the ONEINT file:
      --------------------------
      
      Integrals generated by seward 4.2.0  , Fri Jul 26 14:28:36 2024
 
 
      OrdInt status: non-squared
 
 
      Cartesian coordinates in Angstrom:
      -----------------------------------------------------
      No.  Label        X            Y            Z        
      -----------------------------------------------------
       1   O1        -0.01115300   1.27795100   0.00000000
       2   O2         0.00000000   0.00000000   0.00000000
       3   O3        -0.01115300  -1.27795100   0.00000000
      -----------------------------------------------------
      Nuclear repulsion energy =   66.25118987
 
++    Wave function specifications:
      -----------------------------
 
      Number of closed shell electrons          20
      Number of electrons in active shells       4
      Max number of holes in RAS1 space          0
      Max nr of electrons in RAS3 space          0
      Number of inactive orbitals               10
      Number of active orbitals                  3
      Number of secondary orbitals              29
      Spin quantum number                      0.0
      State symmetry                             1
--
 
++    Orbital specifications:
      -----------------------
 
      Symmetry species                           1
                                                 a
      Frozen orbitals                            0
      Inactive orbitals                         10
      Active orbitals                            3
      RAS1 orbitals                              0
      RAS2 orbitals                              3
      RAS3 orbitals                              0
      Secondary orbitals                        29
      Deleted orbitals                           0
      Number of basis functions                 42
--
 
++    CI expansion specifications:
      ----------------------------
 
      Number of CSFs                             6
      Number of determinants                     6
      Number of root(s) required                 1
      Root chosen for geometry opt.              1
      CI root used                               1
         
      highest root included in the CI            1
      max. size of the explicit Hamiltonian      6
--
 
++    Optimization specifications:
      ----------------------------
 
      RASSCF algorithm: Conventional
      Maximum number of macro iterations       200
      Maximum number of SX iterations          100
      Threshold for RASSCF energy            0.100E-07
      Threshold for max MO rotation          0.100E+00
      Threshold for max BLB element          0.100E-03
      Level shift parameter                  0.500E+00
      Make Quasi-Newton update
--
 
      The MO-coefficients are taken from the file:
      /home/grierjones/DDCASPT2/ozone/O3/O3_180/O3_180.RasOrb                                                                         
      Title: RASSCF average (pseudo-natural) orbitals                                      
 
      Total molecular charge    0.00
 
      ************************************************************************************************************************
      *                                                                                                                      *
      *                                            Wave function control section                                             *
      *                                                                                                                      *
      ************************************************************************************************************************
 
 
                                         RASSCF iterations: Energy and convergence statistics
                                         ----------------------------------------------------
 
      Iter CI   SX   CI       RASSCF       Energy    max ROT     max BLB   max BLB  Level Ln srch  Step   QN   Walltime
          iter iter root      energy       change     param      element    value   shift minimum  type update hh:mm:ss
 Nr of preliminary CI iterations:   1
        1   1    4    1  -224.44910741    0.00E+00   0.30E-02    7  14 1 -0.67E-02*  0.19   0.00    SX    NO    0:00:00
        2   1    4    1  -224.44922909   -0.12E-03* -0.20E-02    7  14 1 -0.41E-02*  0.19   0.00    SX    NO    0:00:00
        3   1    3    1  -224.44926181   -0.33E-04* -0.15E-02    7  14 1 -0.23E-02*  0.19   0.00    SX    NO    0:00:00
        4   1    3    1  -224.44927359   -0.12E-04*  0.11E-02   10  14 1  0.17E-02*  0.19   0.00    SX    NO    0:00:00
        5   1    3    1  -224.44927869   -0.51E-05*  0.16E-02   10  14 1  0.13E-02*  0.19   2.50    LS   YES    0:00:00
        6   1    3    1  -224.44928283   -0.41E-05* -0.13E-02   10  14 1  0.72E-03*  0.19   1.49    QN   YES    0:00:00
        7   1    3    1  -224.44928429   -0.15E-05*  0.10E-02    7  14 1  0.50E-03*  0.19   1.61    QN   YES    0:00:00
        8   1    3    1  -224.44928508   -0.79E-06*  0.36E-03    7  14 1  0.40E-03*  0.19   1.49    QN   YES    0:00:00
        9   1    3    1  -224.44928532   -0.24E-06* -0.11E-03    7  14 1  0.13E-03*  0.19   1.23    QN   YES    0:00:00
       10   1    3    1  -224.44928534   -0.22E-07*  0.28E-04    7  14 1  0.21E-04   0.19   1.16    QN   YES    0:00:00
       11   1    2    1  -224.44928534   -0.11E-08   0.47E-05   10  18 1  0.80E-05   0.19   1.15    QN   YES    0:00:00
      Convergence after 11 iterations
       12   1    2    1  -224.44928534   -0.12E-09   0.47E-05    8  19 1  0.39E-05   0.19   1.15    QN   YES    0:00:00
 
      ************************************************************************************************************************
                                                      Wave function printout:
                       occupation of active orbitals, and spin coupling of open shells (u,d: Spin up or down)
      ************************************************************************************************************************
 
      Note: transformation to natural orbitals
      has been made, which may change the order of the CSFs.
 
      printout of CI-coefficients larger than  0.00 for root  1
      energy=    -224.449285
      conf/sym  111     Coeff  Weight
             1  220  -0.94059 0.88471
 
   + sqrt(     1/1     )  |220|
 
             2  2ud  -0.00000 0.00000
 
   + sqrt(     1/2     )  |2ab|
   - sqrt(     1/2     )  |2ba|
 
             3  202   0.32653 0.10662
 
   + sqrt(     1/1     )  |202|
 
             4  u2d  -0.00000 0.00000
 
   - sqrt(     1/2     )  |a2b|
   + sqrt(     1/2     )  |b2a|
 
             5  ud2   0.00000 0.00000
 
   + sqrt(     1/2     )  |ab2|
   - sqrt(     1/2     )  |ba2|
 
             6  022   0.09311 0.00867
 
   + sqrt(     1/1     )  |022|
 
 
      Natural orbitals and occupation numbers for root  1
      sym 1:   1.982661   1.786750   0.230589
 
      ************************************************************************************************************************
      *                                                                                                                      *
      *                                                    Final results                                                     *
      *                                                                                                                      *
      ************************************************************************************************************************
 
 
++    Wave function specifications:
      -----------------------------
 
      Number of closed shell electrons          20
      Number of electrons in active shells       4
      Max number of holes in RAS1 space          0
      Max nr of electrons in RAS3 space          0
      Number of inactive orbitals               10
      Number of active orbitals                  3
      Number of secondary orbitals              29
      Spin quantum number                      0.0
      State symmetry                             1
--
 
++    Orbital specifications:
      -----------------------
 
      Symmetry species                           1
                                                 a
      Frozen orbitals                            0
      Inactive orbitals                         10
      Active orbitals                            3
      RAS1 orbitals                              0
      RAS2 orbitals                              3
      RAS3 orbitals                              0
      Secondary orbitals                        29
      Deleted orbitals                           0
      Number of basis functions                 42
--
 
++    CI expansion specifications:
      ----------------------------
 
      Number of CSFs                             6
      Number of determinants                     6
      Number of root(s) required                 1
      CI root used                               1
      highest root included in the CI            1
      Root passed to geometry opt.               1
--
 
++    Final optimization conditions:
      ------------------------------
 
      Average CI energy                            -224.44928534
      RASSCF energy for state  1                   -224.44928534
      Super-CI energy                                -0.00000000
      RASSCF energy change                           -0.00000000
      Max change in MO coefficients               0.854E-05
      Max non-diagonal density matrix element     0.466E-05
      Maximum BLB matrix element                  0.387E-05
      (orbital pair   8,  19 in symmetry   1)
      Norm of electronic gradient            0.448E-05
--
 
 
      Final state energy(ies):
      ------------------------
 
::    RASSCF root number  1 Total energy:   -224.44928534
 
++    Molecular orbitals:
      -------------------
 
      Pseudonatural active orbitals and approximate occupation numbers
 
 
 
 
      Molecular orbitals for symmetry species 1: a  
 
 
      Orbital                1         2         3         4         5         6         7         8         9        10
      Energy          -20.7477  -20.7408  -20.7407   -1.6707   -1.4536   -1.0487   -0.8052   -0.7684   -0.6285   -0.4476
      Occ. No.          2.0000    2.0000    2.0000    2.0000    2.0000    2.0000    2.0000    2.0000    2.0000    2.0000
 
    1 O1     1s         0.0388   -0.7072    0.7061   -0.0153    0.0084    0.0149    0.0002   -0.0191   -0.0004   -0.0000
    2 O1     2s         0.0003   -0.0008    0.0005    0.3487   -0.5910    0.6417    0.0045   -0.3854   -0.0057    0.0010
    3 O1     3s         0.0001   -0.0001   -0.0001   -0.0252    0.0120    0.0188    0.0003   -0.0251   -0.0005   -0.0008
    4 O1     2px       -0.0000   -0.0000    0.0000    0.0007   -0.0013   -0.0028    0.3987    0.0133   -0.7055    0.6419
    5 O1     3px       -0.0000   -0.0000    0.0000   -0.0003    0.0002    0.0004   -0.0337   -0.0007    0.0084    0.0477
    6 O1     2py       -0.0003    0.0009   -0.0010   -0.1030    0.0900    0.2009    0.0070   -0.4507   -0.0119   -0.0073
    7 O1     3py       -0.0001   -0.0005    0.0003    0.0253   -0.0177   -0.0277   -0.0005    0.0267   -0.0000    0.0009
    8 O1     2pz       -0.0000   -0.0000    0.0000    0.0000    0.0000    0.0000    0.0000   -0.0000   -0.0000    0.0000
    9 O1     3pz       -0.0000    0.0000    0.0000   -0.0000   -0.0000    0.0000   -0.0000   -0.0000    0.0000    0.0000
   10 O1     3d2-      -0.0000    0.0000   -0.0000   -0.0001    0.0003    0.0002   -0.0233   -0.0007    0.0132    0.0087
   11 O1     3d1-      -0.0000    0.0000    0.0000    0.0000    0.0000    0.0000   -0.0000   -0.0000    0.0000    0.0000
   12 O1     3d0        0.0000    0.0001   -0.0002   -0.0087    0.0086    0.0075    0.0003   -0.0175   -0.0004   -0.0002
   13 O1     3d1+       0.0000   -0.0000    0.0000    0.0000    0.0000   -0.0000   -0.0000   -0.0000   -0.0000   -0.0000
   14 O1     3d2+      -0.0001   -0.0002    0.0001   -0.0166    0.0151    0.0163    0.0007   -0.0330   -0.0007   -0.0005
   15 O2     1s         0.9984   -0.0000   -0.0549   -0.0218   -0.0000   -0.0121    0.0002    0.0000   -0.0000   -0.0012
   16 O2     2s         0.0000   -0.0000   -0.0008    0.6457    0.0000   -0.6270    0.0024   -0.0000   -0.0000   -0.0156
   17 O2     3s        -0.0013   -0.0000   -0.0006   -0.0288   -0.0000   -0.0195    0.0001    0.0000   -0.0000   -0.0024
   18 O2     2px       -0.0000   -0.0000   -0.0000   -0.0031   -0.0000   -0.0038    0.6855    0.0000    0.0000   -0.8158
   19 O2     3px        0.0001    0.0000    0.0000    0.0006   -0.0000    0.0005   -0.0514   -0.0000    0.0000   -0.0653
   20 O2     2py        0.0000    0.0010   -0.0000    0.0000   -0.2989   -0.0000    0.0000    0.5180    0.0090    0.0000
   21 O2     3py        0.0000    0.0013   -0.0000    0.0000    0.0789    0.0000    0.0000   -0.0760   -0.0001    0.0000
   22 O2     2pz       -0.0000   -0.0000   -0.0000   -0.0000    0.0000    0.0000    0.0000   -0.0000    0.0000   -0.0000
   23 O2     3pz        0.0000   -0.0000   -0.0000    0.0000    0.0000    0.0000   -0.0000   -0.0000    0.0000   -0.0000
   24 O2     3d2-      -0.0000   -0.0000    0.0000   -0.0000    0.0012    0.0000    0.0000   -0.0008   -0.0353   -0.0000
   25 O2     3d1-      -0.0000    0.0000    0.0000   -0.0000    0.0000   -0.0000    0.0000   -0.0000   -0.0000    0.0000
   26 O2     3d0       -0.0002    0.0000    0.0003   -0.0178   -0.0000    0.0020    0.0006    0.0000   -0.0000   -0.0012
   27 O2     3d1+      -0.0000    0.0000   -0.0000   -0.0000    0.0000   -0.0000    0.0000   -0.0000    0.0000    0.0000
   28 O2     3d2+       0.0002    0.0000    0.0004   -0.0334   -0.0000    0.0007   -0.0007    0.0000   -0.0000   -0.0013
   29 O3     1s         0.0388    0.7072    0.7061   -0.0153   -0.0084    0.0149    0.0002    0.0191    0.0004   -0.0000
   30 O3     2s         0.0003    0.0008    0.0005    0.3487    0.5910    0.6417    0.0045    0.3854    0.0057    0.0010
   31 O3     3s         0.0001    0.0001   -0.0001   -0.0252   -0.0120    0.0188    0.0003    0.0251    0.0005   -0.0008
   32 O3     2px       -0.0000    0.0000    0.0000    0.0007    0.0013   -0.0028    0.3987   -0.0133    0.7055    0.6419
   33 O3     3px       -0.0000    0.0000    0.0000   -0.0003   -0.0002    0.0004   -0.0337    0.0007   -0.0084    0.0477
   34 O3     2py        0.0003    0.0009    0.0010    0.1030    0.0900   -0.2009   -0.0070   -0.4507   -0.0119    0.0073
   35 O3     3py        0.0001   -0.0005   -0.0003   -0.0253   -0.0177    0.0277    0.0005    0.0267   -0.0000   -0.0009
   36 O3     2pz        0.0000    0.0000    0.0000   -0.0000    0.0000    0.0000    0.0000   -0.0000    0.0000    0.0000
   37 O3     3pz        0.0000    0.0000    0.0000    0.0000   -0.0000    0.0000   -0.0000    0.0000   -0.0000    0.0000
   38 O3     3d2-       0.0000    0.0000    0.0000    0.0001    0.0003   -0.0002    0.0233   -0.0007    0.0132   -0.0087
   39 O3     3d1-       0.0000    0.0000    0.0000    0.0000    0.0000   -0.0000    0.0000   -0.0000    0.0000   -0.0000
   40 O3     3d0        0.0000   -0.0001   -0.0002   -0.0087   -0.0086    0.0075    0.0003    0.0175    0.0004   -0.0002
   41 O3     3d1+      -0.0000    0.0000   -0.0000    0.0000   -0.0000   -0.0000   -0.0000    0.0000   -0.0000   -0.0000
   42 O3     3d2+      -0.0001    0.0002    0.0001   -0.0166   -0.0151    0.0163    0.0007    0.0330    0.0007   -0.0005
 
 
      Orbital               11        12        13        14        15        16        17        18        19        20
      Energy            0.0000    0.0000    0.0000    0.1329    0.2866    0.4686    0.4788    0.5136    0.6645    0.6714
      Occ. No.          1.9827    1.7868    0.2306    0.0000    0.0000    0.0000    0.0000    0.0000    0.0000    0.0000
 
    1 O1     1s        -0.0000   -0.0000   -0.0000   -0.0259   -0.1657   -0.0000    0.0014    0.0364   -0.0374   -0.0019
    2 O1     2s        -0.0000   -0.0000    0.0000   -0.3331   -1.1945   -0.0000    0.0096    0.2714   -0.1000   -0.0048
    3 O1     3s        -0.0000   -0.0000   -0.0000   -0.0043   -0.4330   -0.0000    0.0050    0.2183   -0.1231   -0.0068
    4 O1     2px       -0.0000    0.0000   -0.0000    0.0046   -0.0081   -0.0000   -0.0802    0.0053    0.0082   -0.0964
    5 O1     3px        0.0000    0.0000    0.0000    0.0015   -0.0071   -0.0000    0.4636   -0.0069    0.0408   -0.8238
    6 O1     2py       -0.0000    0.0000   -0.0000    0.8022    0.5786   -0.0000   -0.0074   -0.2895   -0.4957   -0.0262
    7 O1     3py        0.0000    0.0000   -0.0000    0.1580    0.6636    0.0000   -0.0148   -0.8385    0.0433    0.0020
    8 O1     2pz        0.3417   -0.7035    0.6558    0.0000    0.0000    0.0280   -0.0000   -0.0000    0.0000   -0.0000
    9 O1     3pz       -0.0296   -0.0098   -0.0651    0.0000    0.0000    0.4929    0.0000   -0.0000    0.0000   -0.0000
   10 O1     3d2-       0.0000   -0.0000   -0.0000    0.0006    0.0007   -0.0000    0.0301    0.0001    0.0042   -0.0215
   11 O1     3d1-      -0.0301    0.0200    0.0097    0.0000    0.0000    0.0365    0.0000    0.0000    0.0000   -0.0000
   12 O1     3d0       -0.0000   -0.0000   -0.0000   -0.0002    0.0201   -0.0000   -0.0004    0.0022    0.0684    0.0036
   13 O1     3d1+       0.0002   -0.0001   -0.0001    0.0000    0.0000   -0.0004    0.0000   -0.0000   -0.0000   -0.0000
   14 O1     3d2+       0.0000   -0.0000   -0.0000   -0.0007    0.0342    0.0000   -0.0014   -0.0003    0.1166    0.0062
   15 O2     1s         0.0000   -0.0000   -0.0000    0.1151    0.0000    0.0000   -0.0045   -0.1847    0.0000    0.0000
   16 O2     2s         0.0000    0.0000   -0.0000    1.1276    0.0000    0.0000   -0.0276   -1.1053    0.0000    0.0000
   17 O2     3s        -0.0000   -0.0000    0.0000    0.2658   -0.0000    0.0000   -0.0114   -0.3680   -0.0000    0.0000
   18 O2     2px       -0.0000   -0.0000    0.0000   -0.0232    0.0000    0.0000   -0.1216    0.0043   -0.0000    0.0000
   19 O2     3px       -0.0000   -0.0000    0.0000   -0.0050   -0.0000   -0.0000    0.3995   -0.0002   -0.0000    0.0000
   20 O2     2py        0.0000   -0.0000   -0.0000   -0.0000    1.3222   -0.0000    0.0000    0.0000   -0.4126   -0.0213
   21 O2     3py        0.0000    0.0000   -0.0000   -0.0000    1.1342   -0.0000    0.0000    0.0000    0.7765    0.0401
   22 O2     2pz        0.7405    0.0000   -0.7001   -0.0000   -0.0000   -0.2959   -0.0000   -0.0000   -0.0000   -0.0000
   23 O2     3pz       -0.0026    0.0000   -0.0726   -0.0000    0.0000    0.3361    0.0000    0.0000   -0.0000   -0.0000
   24 O2     3d2-      -0.0000    0.0000    0.0000   -0.0000   -0.0016   -0.0000   -0.0000    0.0000   -0.0056    0.0703
   25 O2     3d1-       0.0000   -0.0470   -0.0000    0.0000    0.0000   -0.0000    0.0000    0.0000   -0.0000    0.0000
   26 O2     3d0        0.0000   -0.0000   -0.0000    0.0392   -0.0000   -0.0000    0.0019    0.0992   -0.0000   -0.0000
   27 O2     3d1+      -0.0011   -0.0000    0.0007    0.0000    0.0000    0.0008    0.0000   -0.0000    0.0000   -0.0000
   28 O2     3d2+      -0.0000   -0.0000   -0.0000    0.0706   -0.0000   -0.0000    0.0047    0.1652   -0.0000   -0.0000
   29 O3     1s         0.0000   -0.0000   -0.0000   -0.0259    0.1657   -0.0000    0.0014    0.0364    0.0374    0.0019
   30 O3     2s        -0.0000    0.0000   -0.0000   -0.3331    1.1945   -0.0000    0.0096    0.2714    0.1000    0.0048
   31 O3     3s         0.0000    0.0000    0.0000   -0.0043    0.4330   -0.0000    0.0050    0.2183    0.1231    0.0068
   32 O3     2px       -0.0000   -0.0000   -0.0000    0.0046    0.0081   -0.0000   -0.0802    0.0053   -0.0082    0.0964
   33 O3     3px        0.0000   -0.0000    0.0000    0.0015    0.0071   -0.0000    0.4636   -0.0069   -0.0408    0.8238
   34 O3     2py        0.0000    0.0000    0.0000   -0.8022    0.5786   -0.0000    0.0074    0.2895   -0.4957   -0.0262
   35 O3     3py       -0.0000    0.0000    0.0000   -0.1580    0.6636   -0.0000    0.0148    0.8385    0.0433    0.0020
   36 O3     2pz        0.3417    0.7035    0.6558    0.0000   -0.0000    0.0280   -0.0000    0.0000   -0.0000    0.0000
   37 O3     3pz       -0.0296    0.0098   -0.0651    0.0000   -0.0000    0.4929    0.0000    0.0000   -0.0000    0.0000
   38 O3     3d2-      -0.0000   -0.0000   -0.0000   -0.0006    0.0007    0.0000   -0.0301   -0.0001    0.0042   -0.0215
   39 O3     3d1-       0.0301    0.0200   -0.0097   -0.0000   -0.0000   -0.0365   -0.0000   -0.0000    0.0000   -0.0000
   40 O3     3d0       -0.0000    0.0000   -0.0000   -0.0002   -0.0201    0.0000   -0.0004    0.0022   -0.0684   -0.0036
   41 O3     3d1+       0.0002    0.0001   -0.0001   -0.0000    0.0000   -0.0004    0.0000   -0.0000    0.0000    0.0000
   42 O3     3d2+      -0.0000   -0.0000    0.0000   -0.0007   -0.0342    0.0000   -0.0014   -0.0003   -0.1166   -0.0062
 
 
      Orbital               21        22        23        24        25        26        27        28        29        30
      Energy            0.6830    0.8583    1.0289    1.0395    1.0840    1.6895    1.6957    1.7314    1.7315    1.9942
      Occ. No.          0.0000    0.0000    0.0000    0.0000    0.0000    0.0000    0.0000    0.0000    0.0000    0.0000
 
    1 O1     1s        -0.0000   -0.0198    0.0011   -0.0000    0.0969    0.0000    0.0025    0.0000   -0.0011   -0.2767
    2 O1     2s        -0.0000   -0.1019    0.0057   -0.0000    0.5728    0.0000    0.0196   -0.0000   -0.0100   -1.8975
    3 O1     3s        -0.0000    0.4524    0.0028    0.0000   -0.0833    0.0000    0.0332   -0.0000   -0.0157   -1.7402
    4 O1     2px        0.0000    0.0010   -0.4861   -0.0000    0.0080    0.0000    0.1678   -0.0000   -0.0024   -0.0082
    5 O1     3px        0.0000    0.0005   -0.9277   -0.0000    0.0053   -0.0000   -0.0201   -0.0000   -0.0016   -0.0118
    6 O1     2py        0.0000   -0.0487   -0.0023   -0.0000   -0.0871   -0.0000   -0.0049    0.0000    0.0094    0.6597
    7 O1     3py        0.0000    0.3066   -0.0012   -0.0000    0.6929   -0.0000   -0.0136    0.0000    0.0080    0.1946
    8 O1     2pz       -0.0842   -0.0000   -0.0000    0.5148    0.0000   -0.1800    0.0000    0.0022   -0.0000   -0.0000
    9 O1     3pz       -0.8249   -0.0000   -0.0000    0.9135    0.0000    0.0308   -0.0000    0.0016   -0.0000    0.0000
   10 O1     3d2-       0.0000    0.0019   -0.0464   -0.0000    0.0020    0.0000    0.4559   -0.0000   -0.0090    0.0112
   11 O1     3d1-      -0.0264   -0.0000   -0.0000    0.0404    0.0000   -0.4556    0.0000    0.0090   -0.0000    0.0000
   12 O1     3d0        0.0000    0.0503   -0.0016    0.0000   -0.0660    0.0000    0.0035    0.0000    0.3800   -0.0296
   13 O1     3d1+       0.0000   -0.0000    0.0000   -0.0011    0.0000    0.0067   -0.0000    0.4389   -0.0000    0.0000
   14 O1     3d2+       0.0000    0.0796   -0.0005    0.0000   -0.1064   -0.0000   -0.0079   -0.0000   -0.2193    0.0133
   15 O2     1s         0.0000    0.0113    0.0004    0.0000    0.0000   -0.0000   -0.0000    0.0000    0.0043    0.0000
   16 O2     2s         0.0000    0.0483    0.0009   -0.0000    0.0000   -0.0000   -0.0000    0.0000    0.0267    0.0000
   17 O2     3s         0.0000    0.5654    0.0013   -0.0000    0.0000   -0.0000   -0.0000    0.0000    0.0169    0.0000
   18 O2     2px       -0.0000   -0.0005    0.6680    0.0000    0.0000    0.0000    0.0000   -0.0000   -0.0020   -0.0000
   19 O2     3px       -0.0000   -0.0010    1.6437    0.0000    0.0000   -0.0000    0.0000    0.0000    0.0032   -0.0000
   20 O2     2py       -0.0000   -0.0000    0.0000    0.0000   -0.8348   -0.0000   -0.0182    0.0000    0.0000    2.0501
   21 O2     3py        0.0000    0.0000    0.0000    0.0000   -0.9770   -0.0000   -0.0235   -0.0000    0.0000    2.2173
   22 O2     2pz       -0.0000    0.0000    0.0000   -0.6715   -0.0000   -0.0000   -0.0000    0.0024   -0.0000   -0.0000
   23 O2     3pz        0.0000    0.0000    0.0000   -1.6631   -0.0000   -0.0000    0.0000   -0.0037    0.0000   -0.0000
   24 O2     3d2-      -0.0000   -0.0000    0.0000   -0.0000   -0.0084   -0.0000   -0.5729    0.0000   -0.0000   -0.0164
   25 O2     3d1-       0.0812   -0.0000    0.0000   -0.0000   -0.0000    0.5710   -0.0000   -0.0000   -0.0000    0.0000
   26 O2     3d0       -0.0000    0.0488   -0.0025   -0.0000    0.0000    0.0000   -0.0000    0.0000    0.5763    0.0000
   27 O2     3d1+       0.0000   -0.0000    0.0000   -0.0019   -0.0000    0.0000    0.0000    0.6653   -0.0000    0.0000
   28 O2     3d2+      -0.0000    0.0702   -0.0009    0.0000    0.0000   -0.0000    0.0000   -0.0000   -0.3324    0.0000
   29 O3     1s        -0.0000   -0.0198    0.0011    0.0000   -0.0969    0.0000   -0.0025    0.0000   -0.0011    0.2767
   30 O3     2s        -0.0000   -0.1019    0.0057    0.0000   -0.5728   -0.0000   -0.0196   -0.0000   -0.0100    1.8975
   31 O3     3s         0.0000    0.4524    0.0028   -0.0000    0.0833   -0.0000   -0.0332   -0.0000   -0.0157    1.7402
   32 O3     2px       -0.0000    0.0010   -0.4861   -0.0000   -0.0080   -0.0000   -0.1678   -0.0000   -0.0024    0.0082
   33 O3     3px       -0.0000    0.0005   -0.9277   -0.0000   -0.0053    0.0000    0.0201   -0.0000   -0.0016    0.0118
   34 O3     2py       -0.0000    0.0487    0.0023    0.0000   -0.0871   -0.0000   -0.0049   -0.0000   -0.0094    0.6597
   35 O3     3py       -0.0000   -0.3066    0.0012   -0.0000    0.6929   -0.0000   -0.0136   -0.0000   -0.0080    0.1946
   36 O3     2pz        0.0842    0.0000   -0.0000    0.5148    0.0000    0.1800   -0.0000    0.0022   -0.0000   -0.0000
   37 O3     3pz        0.8249   -0.0000   -0.0000    0.9135    0.0000   -0.0308    0.0000    0.0016   -0.0000    0.0000
   38 O3     3d2-       0.0000   -0.0019    0.0464    0.0000    0.0020    0.0000    0.4559    0.0000    0.0090    0.0112
   39 O3     3d1-      -0.0264    0.0000    0.0000   -0.0404   -0.0000   -0.4556    0.0000   -0.0090    0.0000   -0.0000
   40 O3     3d0       -0.0000    0.0503   -0.0016   -0.0000    0.0660    0.0000   -0.0035    0.0000    0.3800    0.0296
   41 O3     3d1+      -0.0000   -0.0000    0.0000   -0.0011   -0.0000   -0.0067    0.0000    0.4389   -0.0000   -0.0000
   42 O3     3d2+      -0.0000    0.0796   -0.0005   -0.0000    0.1064    0.0000    0.0079   -0.0000   -0.2193   -0.0133
 
 
      Orbital               31        32        33        34        35        36        37        38        39        40
      Energy            2.0313    2.0925    2.0928    2.5134    2.5135    2.6437    2.6459    2.6549    3.0060    3.6034
      Occ. No.          0.0000    0.0000    0.0000    0.0000    0.0000    0.0000    0.0000    0.0000    0.0000    0.0000
 
    1 O1     1s        -0.1144    0.0000    0.0118   -0.0000   -0.0007   -0.0000    0.0077   -0.0003    0.0278   -0.0000
    2 O1     2s        -0.8665    0.0000    0.0826   -0.0000   -0.0056    0.0000   -0.0673    0.0743    0.3249   -0.0000
    3 O1     3s        -0.9560    0.0000    0.0802   -0.0000   -0.0093    0.0000   -0.2969    0.2098    0.3907   -0.0000
    4 O1     2px       -0.0037    0.0000    0.0005   -0.0000   -0.0150    0.0000   -0.1759   -0.2779    0.0047    0.0000
    5 O1     3px       -0.0053   -0.0000   -0.0006   -0.0000   -0.0252    0.0000   -0.2663   -0.4133    0.0030    0.0000
    6 O1     2py        0.5894   -0.0000   -0.0314    0.0000    0.0053   -0.0000    0.1486   -0.1164   -0.4258    0.0000
    7 O1     3py        0.6075   -0.0000   -0.0129    0.0000    0.0070   -0.0000    0.3261   -0.2206   -0.4117    0.0000
    8 O1     2pz       -0.0000   -0.0001    0.0000    0.0162   -0.0000   -0.3309   -0.0000   -0.0000    0.0000   -0.3344
    9 O1     3pz        0.0000    0.0011   -0.0000    0.0262   -0.0000   -0.4881   -0.0000   -0.0000    0.0000   -0.2032
   10 O1     3d2-       0.0074    0.0000    0.0093    0.0000    0.0398   -0.0000    0.4407    0.6848   -0.0173   -0.0000
   11 O1     3d1-       0.0000   -0.0096    0.0000   -0.0420    0.0000    0.8143    0.0000    0.0000   -0.0000    0.6837
   12 O1     3d0       -0.0463   -0.0000   -0.6135    0.0000    0.4955   -0.0000    0.2684   -0.2005   -0.4085    0.0000
   13 O1     3d1+       0.0000   -0.7091    0.0000    0.5707   -0.0000    0.0235    0.0000    0.0000   -0.0000   -0.0083
   14 O1     3d2+      -0.0615    0.0000    0.3540   -0.0000   -0.2832   -0.0000    0.4947   -0.3144   -0.7091    0.0000
   15 O2     1s         0.2726    0.0000    0.0000    0.0000    0.0030   -0.0000    0.1713   -0.1155    0.0000    0.0000
   16 O2     2s         1.9600    0.0000    0.0000    0.0000    0.0196   -0.0000    0.9473   -0.6536    0.0000   -0.0000
   17 O2     3s         1.9734    0.0000    0.0000    0.0000    0.0174   -0.0000    0.1540   -0.1472    0.0000    0.0000
   18 O2     2px       -0.0039   -0.0000   -0.0000    0.0000    0.0451   -0.0000    0.4515    0.7250   -0.0000   -0.0000
   19 O2     3px       -0.0060   -0.0000   -0.0000    0.0000    0.0410   -0.0000    0.4438    0.6963    0.0000    0.0000
   20 O2     2py       -0.0000   -0.0000   -0.0889    0.0000   -0.0000   -0.0000   -0.0000    0.0000   -0.7453    0.0000
   21 O2     3py       -0.0000   -0.0000   -0.0941    0.0000   -0.0000    0.0000   -0.0000    0.0000    0.3073   -0.0000
   22 O2     2pz        0.0000    0.0000   -0.0000   -0.0485    0.0000    0.8653    0.0000    0.0000    0.0000   -0.0000
   23 O2     3pz       -0.0000    0.0000    0.0000   -0.0427    0.0000    0.8159    0.0000    0.0000   -0.0000   -0.0000
   24 O2     3d2-       0.0000   -0.0000   -0.0004    0.0000    0.0000   -0.0000    0.0000    0.0000   -0.0049   -0.0000
   25 O2     3d1-       0.0000    0.0009   -0.0000   -0.0000   -0.0000    0.0000   -0.0000   -0.0000    0.0000    1.1080
   26 O2     3d0        0.0799    0.0000    0.0000   -0.0000   -0.6681   -0.0000    0.2240   -0.0847    0.0000   -0.0000
   27 O2     3d1+      -0.0000    0.0000    0.0000   -0.7734    0.0000   -0.0551   -0.0000   -0.0000    0.0000   -0.0000
   28 O2     3d2+       0.1373    0.0000    0.0000    0.0000    0.3898   -0.0000    0.3268   -0.2334    0.0000    0.0000
   29 O3     1s        -0.1144   -0.0000   -0.0118   -0.0000   -0.0007   -0.0000    0.0077   -0.0003   -0.0278   -0.0000
   30 O3     2s        -0.8665   -0.0000   -0.0826   -0.0000   -0.0056    0.0000   -0.0673    0.0743   -0.3249    0.0000
   31 O3     3s        -0.9560   -0.0000   -0.0802   -0.0000   -0.0093    0.0000   -0.2969    0.2098   -0.3907    0.0000
   32 O3     2px       -0.0037    0.0000   -0.0005   -0.0000   -0.0150    0.0000   -0.1759   -0.2779   -0.0047   -0.0000
   33 O3     3px       -0.0053    0.0000    0.0006   -0.0000   -0.0252    0.0000   -0.2663   -0.4133   -0.0030   -0.0000
   34 O3     2py       -0.5894   -0.0000   -0.0314   -0.0000   -0.0053    0.0000   -0.1486    0.1164   -0.4258    0.0000
   35 O3     3py       -0.6075   -0.0000   -0.0129   -0.0000   -0.0070    0.0000   -0.3261    0.2206   -0.4117    0.0000
   36 O3     2pz        0.0000    0.0001   -0.0000    0.0162   -0.0000   -0.3309   -0.0000   -0.0000   -0.0000    0.3344
   37 O3     3pz        0.0000   -0.0011    0.0000    0.0262   -0.0000   -0.4881   -0.0000   -0.0000    0.0000    0.2032
   38 O3     3d2-      -0.0074    0.0000    0.0093   -0.0000   -0.0398    0.0000   -0.4407   -0.6848   -0.0173   -0.0000
   39 O3     3d1-      -0.0000   -0.0096    0.0000    0.0420   -0.0000   -0.8143   -0.0000   -0.0000    0.0000    0.6837
   40 O3     3d0       -0.0463    0.0000    0.6135    0.0000    0.4955   -0.0000    0.2684   -0.2005    0.4085   -0.0000
   41 O3     3d1+       0.0000    0.7091   -0.0000    0.5707   -0.0000    0.0235    0.0000    0.0000    0.0000    0.0083
   42 O3     3d2+      -0.0615   -0.0000   -0.3540   -0.0000   -0.2832   -0.0000    0.4947   -0.3144    0.7091   -0.0000
 
 
      Orbital               41        42
      Energy            3.6143    4.4855
      Occ. No.          0.0000    0.0000
 
    1 O1     1s         0.0019    0.2426
    2 O1     2s         0.0117    1.5998
    3 O1     3s         0.0039    0.8054
    4 O1     2px       -0.3329    0.0159
    5 O1     3px       -0.2050    0.0072
    6 O1     2py       -0.0115   -1.1935
    7 O1     3py       -0.0028   -0.5030
    8 O1     2pz       -0.0000    0.0000
    9 O1     3pz       -0.0000   -0.0000
   10 O1     3d2-       0.6835   -0.0197
   11 O1     3d1-       0.0000   -0.0000
   12 O1     3d0       -0.0021   -0.3455
   13 O1     3d1+      -0.0000   -0.0000
   14 O1     3d2+      -0.0202   -0.5989
   15 O2     1s         0.0000   -0.4338
   16 O2     2s         0.0000   -3.0656
   17 O2     3s         0.0000   -1.9743
   18 O2     2px       -0.0000    0.0094
   19 O2     3px       -0.0000    0.0002
   20 O2     2py       -0.0104   -0.0000
   21 O2     3py       -0.0012   -0.0000
   22 O2     2pz       -0.0000   -0.0000
   23 O2     3pz        0.0000    0.0000
   24 O2     3d2-       1.1081    0.0000
   25 O2     3d1-       0.0000    0.0000
   26 O2     3d0       -0.0000    0.7182
   27 O2     3d1+       0.0000    0.0000
   28 O2     3d2+      -0.0000    1.2441
   29 O3     1s        -0.0019    0.2426
   30 O3     2s        -0.0117    1.5998
   31 O3     3s        -0.0039    0.8054
   32 O3     2px        0.3329    0.0159
   33 O3     3px        0.2050    0.0072
   34 O3     2py       -0.0115    1.1935
   35 O3     3py       -0.0028    0.5030
   36 O3     2pz        0.0000    0.0000
   37 O3     3pz        0.0000   -0.0000
   38 O3     3d2-       0.6835    0.0197
   39 O3     3d1-       0.0000    0.0000
   40 O3     3d0        0.0021   -0.3455
   41 O3     3d1+       0.0000   -0.0000
   42 O3     3d2+       0.0202   -0.5989
--
 
      Von Neumann Entropy (Root  1) =  0.51710
 

      Mulliken population analysis for root number:  1
      -----------------------------------------------
 
 
++    Molecular charges:
      ------------------
 
      Mulliken charges per centre and basis function type
      ---------------------------------------------------
 
                O1      O2      O3    
      1s       2.0003  1.9999  2.0003
      2s       1.9352  1.6310  1.9352
      2px      2.0175  2.0149  2.0175
      2pz      1.2926  1.3723  1.2926
      2py      0.7761  0.9453  0.7761
      3s      -0.0153 -0.0258 -0.0153
      3px     -0.0235 -0.0585 -0.0235
      3pz     -0.0087 -0.0046 -0.0087
      3py     -0.0144  0.0150 -0.0144
      3d2+     0.0197  0.0160  0.0197
      3d1+     0.0000  0.0000  0.0000
      3d0      0.0058  0.0044  0.0058
      3d1-     0.0145  0.0353  0.0145
      3d2-     0.0132  0.0284  0.0132
      Total    8.0132  7.9736  8.0132
 
      N-E     -0.0132  0.0264 -0.0132
 
      Total electronic charge=   24.000000
 
      Total            charge=   -0.000000
--
 
 

      Expectation values of various properties for root number:  1
      -----------------------------------------------------------
 
 
++    Molecular properties:
      ---------------------
 
      Charge (e):
                      =   -0.0000
      Dipole Moment (Debye):
      Origin of the operator (Ang)=    0.0000    0.0000    0.0000
                   X= -1.6349E-02               Y=  2.2045E-11               Z=  5.7312E-13           Total=  1.6349E-02
      Quadrupole Moment (Debye*Ang):
      Origin of the operator (Ang)=   -0.0074    0.0000    0.0000
                  XX= -1.6280E+01              XY= -4.5502E-12              XZ= -4.8233E-12              YY= -1.5756E+01
                  YZ=  1.1021E-13              ZZ= -1.4802E+01
      In traceless form (Debye*Ang)
                  XX= -1.0007E+00              XY= -6.8252E-12              XZ= -7.2349E-12              YY= -2.1537E-01
                  YZ=  1.6532E-13              ZZ=  1.2160E+00
--
 

      LoProp population analysis for root number:  1
      -----------------------------------------------
 
 
++    LoProp analysis:
      ----------------
 
 
 
  Input file to MOLDEN was generated!
 
 
++    Static properties:
      ------------------
 
 
      LoProp Charges per center
 

                   O1       O2       O3    
      Nuclear      8.0000   8.0000   8.0000
      Electronic  -8.0525  -7.8951  -8.0525
 
      Total       -0.0525   0.1049  -0.0525
--
 
 
      Natural Bond Order analysis for root number:  1
 
++    Natural Bond Order analysis
      ---------------------------
      Based on LoProp computed density
      -------------------------------------------------------------------------------------
      Atom A       Atom B       Bond Order | Atom A       Atom B       Bond Order
        O1           O2             1.969  |   O2           O3             1.969
      -------------------------------------------------------------------------------------
      NBO located     16.000 core electrons.
      NBO located      7.877 electrons involved in    2 bonds.
      The remaining    0.123 electrons are to be considered as diffuse
--
 
--
 
 
  Input file to MOLDEN was generated!
 
      Average orbitals are written to the RASORB file
      Natural orbitals for root   1 are written to the RASORB.1 file
      Spin density orbitals for root   1 are written to the SPDORB.1 file
 
--- Stop Module: rasscf at Fri Jul 26 14:28:43 2024 /rc=_RC_ALL_IS_WELL_ ---
*** files: O3_181.LprOrb O3_181.rasscf.molden O3_181.LoProp.molden O3_181.RasOrb O3_181.RasOrb.1 O3_181.rasscf.h5 O3_181.SpdOrb.1 xmldump
    saved to directory /home/grierjones/DDCASPT2/ozone/O3/O3_181

>>> COPY /tmp/O3_181/O3_181.rasscf.h5 /home/grierjones/DDCASPT2/ozone/O3/O3_181/

>>> COPY /tmp/O3_181/GMJ_Fock_MO.csv /home/grierjones/DDCASPT2/ozone/O3/O3_181/O3_181.GMJ_Fock_MO.csv

*** symbolic link created: INPORB -> O3_181.RasOrb
--- Start Module: caspt2 at Fri Jul 26 14:28:43 2024 ---
 
()()()()()()()()()()()()()()()()()()()()()()()()()()()()()()()()()()()()()()()()()()()()()()()()()()

                                              &CASPT2

                                   only a single process is used
                       available to each process: 2.0 GB of memory, 1 thread?
()()()()()()()()()()()()()()()()()()()()()()()()()()()()()()()()()()()()()()()()()()()()()()()()()()
 
 Cholesky algorithm in CASPT2 =    1
 
 ###############################################################################
 ###############################################################################
 ###                                                                         ###
 ###                                                                         ###
 ###    User changed nr of frozen orbitals.                                  ###
 ###                                                                         ###
 ###                                                                         ###
 ###############################################################################
 ###############################################################################
 
++    Wave function specifications:
      -----------------------------
 
      Number of closed shell electrons          20
      Number of electrons in active shells       4
      Max number of holes in RAS1 space          0
      Max number of electrons in RAS3 space      0
      Number of inactive orbitals               10
      Number of active orbitals                  3
      Number of secondary orbitals              29
      Spin quantum number                      0.0
      State symmetry                             1
      Number of CSFs                             6
      Number of root(s) available                1
      Root passed to geometry opt.               1
      A file JOBMIX will be created.
      This is a CASSCF or RASSCF reference function
--
 
++    Orbital specifications:
      -----------------------
 
      Symmetry species                           1
                                                 a
      Frozen orbitals                            0
      Inactive orbitals                         10
      Active orbitals                            3
      Secondary orbitals                        29
      Deleted orbitals                           0
      Number of basis functions                 42
--
 
      Type of Fock operator: STANDARD
      Type of 0-order Hamiltonian: STANDARD WITH DEFAULT IPEA
        "IP-EA" denominator shift =      0.25
      The input orbitals and the CI vector will be transformed.
 
--------------------------------------------------------------------------------
 Estimated memory requirements:
  POLY3 :                   250202
  RHS:                      279634
  SIGMA :                   302200
  PRPCTL:                        0
 Available workspace:    230396563
 
++ CASPT2 computation for group   1
 
********************************************************************************
 Multi-State initialization phase begins for group   1
--------------------------------------------------------------------------------
********************************************************************************
 Compute H0 matrices for state    1
--------------------------------------------------------------------------------
--------------------------------------------------------------------------------
 H0 matrices have been computed.
 
********************************************************************************
  CASPT2 EQUATION SOLUTION
--------------------------------------------------------------------------------
 
  Total nr of CASPT2 parameters:
   Before reduction:       86691
   After  reduction:       82880
 
 The contributions to the second order correlation energy in atomic units.
-----------------------------------------------------------------------------------------------------------------------------
  IT.      VJTU        VJTI        ATVX        AIVX        VJAI        BVAT        BJAT        BJAI        TOTAL       RNORM  
-----------------------------------------------------------------------------------------------------------------------------
   1    -0.000000   -0.001583   -0.015688   -0.100738   -0.016718   -0.017122   -0.120514   -0.256139   -0.528502    0.002155
   2    -0.000000   -0.001602   -0.015745   -0.101077   -0.016734   -0.017127   -0.120527   -0.256141   -0.528952    0.000173
   3    -0.000000   -0.001602   -0.015745   -0.101082   -0.016734   -0.017127   -0.120528   -0.256141   -0.528959    0.000025
   4    -0.000000   -0.001602   -0.015745   -0.101080   -0.016734   -0.017127   -0.120527   -0.256141   -0.528956    0.000003
-------------------------------------------------------------------------------------------------------------------
 
  FINAL CASPT2 RESULT:
 
  Correlation energy /Case, /Symm, and sums:
 VJTU     -0.00000000 -0.00000000
 VJTIP    -0.00160216 -0.00160216
 VJTIM     0.00000000  0.00000000
 ATVX     -0.01574508 -0.01574508
 AIVX     -0.10107944 -0.10107944
 VJAIP    -0.01163005 -0.01163005
 VJAIM    -0.00510404 -0.00510404
 BVATP    -0.01628442 -0.01628442
 BVATM    -0.00084251 -0.00084251
 BJATP    -0.04527144 -0.04527144
 BJATM    -0.07525599 -0.07525599
 BJAIP    -0.17238754 -0.17238754
 BJAIM    -0.08375350 -0.08375350
 Summed:  -0.52895618 -0.52895618
 
      Reference energy:        -224.4492853401
      E2 (Non-variational):      -0.5289561832
      E2 (Variational):          -0.5289562099
      Total energy:            -224.9782415500
      Residual norm:              0.0000002969
      Reference weight:           0.85837
 
      Contributions to the CASPT2 correlation energy
      Active & Virtual Only:         -0.0328720049
      One Inactive Excited:          -0.2216068738
      Two Inactive Excited:          -0.2744773045
 
 
++ Denominators, etc.
----------------------------------------------------------------------------------------------------
 Report on small energy denominators, large coefficients, and large energy contributions.
CASE  SYMM ACTIVE-MIX  NON-ACTIVE INDICES          DENOMINATOR     RHS VALUE       COEFFICIENT     CONTRIBUTION
ATVX     1  Mu1.0006  Se1.016                       1.90523982     -0.06904927      0.03693907     -0.00255062
ATVX     1  Mu1.0005  Se1.021                       1.87929736     -0.11179616      0.05829999     -0.00651772
ATVX     1  Mu1.0005  Se1.026                       2.88573288      0.08086079     -0.02810810     -0.00227284
AIVX     1  Mu1.0005  In1.004 Se1.014               2.60071914      0.08738656     -0.03359413     -0.00293568
AIVX     1  Mu1.0002  In1.005 Se1.014               1.98650243      0.05273442     -0.02596014     -0.00136899
AIVX     1  Mu1.0003  In1.005 Se1.014               2.08772793     -0.06650246      0.03135811     -0.00208539
AIVX     1  Mu1.0004  In1.006 Se1.014               1.82545554      0.06776132     -0.03748488     -0.00254002
AIVX     1  Mu1.0005  In1.006 Se1.014               1.97870623     -0.06391880      0.03279049     -0.00209593
AIVX     1  Mu1.0002  In1.008 Se1.014               1.30133175     -0.12515394      0.09536694     -0.01193555
AIVX     1  Mu1.0003  In1.008 Se1.014               1.40255725      0.07218761     -0.05108121     -0.00368743
AIVX     1  Mu1.0002  In1.009 Se1.017               1.50727125      0.06134181     -0.03954434     -0.00242572
AIVX     1  Mu1.0003  In1.009 Se1.017               1.60849675     -0.04304908      0.02596517     -0.00111778
AIVX     1  Mu1.0004  In1.010 Se1.017               1.57025793     -0.06179166      0.03920483     -0.00242253
AIVX     1  Mu1.0002  In1.008 Se1.018               1.68207266     -0.04887057      0.02825578     -0.00138088
AIVX     1  Mu1.0004  In1.008 Se1.019               2.07676473      0.13345081     -0.06456739     -0.00861657
AIVX     1  Mu1.0005  In1.008 Se1.019               2.23001542     -0.08262158      0.03716740     -0.00307083
AIVX     1  Mu1.0002  In1.010 Se1.020               1.51903939      0.06227819     -0.03982475     -0.00248021
AIVX     1  Mu1.0003  In1.010 Se1.020               1.62026489     -0.04215295      0.02517911     -0.00106137
AIVX     1  Mu1.0004  In1.006 Se1.022               2.55086407     -0.07020160      0.02746385     -0.00192801
AIVX     1  Mu1.0002  In1.008 Se1.022               2.02674028      0.05566889     -0.02699907     -0.00150301
AIVX     1  Mu1.0002  In1.010 Se1.027               2.54334144      0.06392161     -0.02503601     -0.00160034
BJATM    1  Mu1.0002  In1.008 Se1.019 Se1.016       2.61796874      0.06252604     -0.02629505     -0.00164413
BJATM    1  Mu1.0001  In1.009 Se1.021 Se1.020       2.38708307     -0.06598076      0.02763701     -0.00182351
BJATM    1  Mu1.0002  In1.010 Se1.023 Se1.016       2.66162346     -0.06618974      0.02573792     -0.00170359
BJAIP    1  Se1.014 In1.006 Se1.014 In1.006         2.36319320      0.06780180     -0.02869076     -0.00194528
BJAIP    1  Se1.014 In1.006 Se1.019 In1.008         2.61450240      0.10516400     -0.04022333     -0.00423005
BJAIP    1  Se1.019 In1.006 Se1.022 In1.008         3.33991093     -0.08515818      0.02549714     -0.00217129
BJAIP    1  Se1.014 In1.008 Se1.014 In1.008         1.80259105      0.09338635     -0.05180673     -0.00483804
BJAIP    1  Se1.019 In1.008 Se1.019 In1.008         2.86581159      0.12413248     -0.04331495     -0.00537679
BJAIP    1  Se1.017 In1.007 Se1.023 In1.010         2.76054407     -0.07589467      0.02749265     -0.00208655
BJAIP    1  Se1.017 In1.009 Se1.020 In1.010         2.22623820      0.06848435     -0.03076236     -0.00210674
BJAIP    1  Se1.014 In1.010 Se1.014 In1.010         1.16099886      0.03130222     -0.02696146     -0.00084395
BJAIM    1  Se1.014 In1.006 Se1.018 In1.008         2.61450240      0.07649298     -0.02925718     -0.00223797
BJAIM    1  Se1.014 In1.008 Se1.016 In1.009         2.00853055     -0.05755330      0.02865443     -0.00164916
BJAIM    1  Se1.017 In1.008 Se1.018 In1.010         2.35930479      0.06500013     -0.02755054     -0.00179079
BJAIM    1  Se1.014 In1.008 Se1.019 In1.010         2.02029870     -0.05549198      0.02746721     -0.00152421
BJAIM    1  Se1.019 In1.008 Se1.022 In1.010         2.90946631     -0.07322288      0.02516712     -0.00184281
BJAIM    1  Se1.014 In1.008 Se1.026 In1.010         3.04460075     -0.09470746      0.03110669     -0.00294604
--
 
   (Skipping property calculation,
    use PROP keyword to activate)
--
 
  Total CASPT2 energies:
::    CASPT2 Root  1     Total energy:   -224.97824155
 
  A NEW JOBIPH FILE NAMED 'JOBMIX' IS PREPARED.
********************************************************************************
--- Stop Module: caspt2 at Fri Jul 26 14:28:43 2024 /rc=_RC_ALL_IS_WELL_ ---
*** files: xmldump
    saved to directory /home/grierjones/DDCASPT2/ozone/O3/O3_181

>>> EXPORT i = B

>>> EXPORT j = P

>>> IF (-FILE GMJ_e2_${i}_${j}.csv)

>>> COPY /tmp/O3_181/GMJ_RHS_B_P.csv /home/grierjones/DDCASPT2/ozone/O3/O3_181/GMJ_RHS_B_P.csv

>>> COPY /tmp/O3_181/GMJ_IVECW_B_P.csv /home/grierjones/DDCASPT2/ozone/O3/O3_181/GMJ_IVECW_B_P.csv

>>> COPY /tmp/O3_181/GMJ_e2_B_P.csv /home/grierjones/DDCASPT2/ozone/O3/O3_181/GMJ_e2_B_P.csv

>>> END FOREACH

>>> EXPORT j = M

>>> IF (-FILE GMJ_e2_${i}_${j}.csv)
(Skipped)

>>> END FOREACH

>>> END FOREACH

>>> EXPORT i = E

>>> EXPORT j = P

>>> IF (-FILE GMJ_e2_${i}_${j}.csv)

>>> COPY /tmp/O3_181/GMJ_RHS_E_P.csv /home/grierjones/DDCASPT2/ozone/O3/O3_181/GMJ_RHS_E_P.csv

>>> COPY /tmp/O3_181/GMJ_IVECW_E_P.csv /home/grierjones/DDCASPT2/ozone/O3/O3_181/GMJ_IVECW_E_P.csv

>>> COPY /tmp/O3_181/GMJ_e2_E_P.csv /home/grierjones/DDCASPT2/ozone/O3/O3_181/GMJ_e2_E_P.csv

>>> END FOREACH

>>> EXPORT j = M

>>> IF (-FILE GMJ_e2_${i}_${j}.csv)

>>> COPY /tmp/O3_181/GMJ_RHS_E_M.csv /home/grierjones/DDCASPT2/ozone/O3/O3_181/GMJ_RHS_E_M.csv

>>> COPY /tmp/O3_181/GMJ_IVECW_E_M.csv /home/grierjones/DDCASPT2/ozone/O3/O3_181/GMJ_IVECW_E_M.csv

>>> COPY /tmp/O3_181/GMJ_e2_E_M.csv /home/grierjones/DDCASPT2/ozone/O3/O3_181/GMJ_e2_E_M.csv

>>> END FOREACH

>>> END FOREACH

>>> EXPORT i = F

>>> EXPORT j = P

>>> IF (-FILE GMJ_e2_${i}_${j}.csv)

>>> COPY /tmp/O3_181/GMJ_RHS_F_P.csv /home/grierjones/DDCASPT2/ozone/O3/O3_181/GMJ_RHS_F_P.csv

>>> COPY /tmp/O3_181/GMJ_IVECW_F_P.csv /home/grierjones/DDCASPT2/ozone/O3/O3_181/GMJ_IVECW_F_P.csv

>>> COPY /tmp/O3_181/GMJ_e2_F_P.csv /home/grierjones/DDCASPT2/ozone/O3/O3_181/GMJ_e2_F_P.csv

>>> END FOREACH

>>> EXPORT j = M

>>> IF (-FILE GMJ_e2_${i}_${j}.csv)

>>> COPY /tmp/O3_181/GMJ_RHS_F_M.csv /home/grierjones/DDCASPT2/ozone/O3/O3_181/GMJ_RHS_F_M.csv

>>> COPY /tmp/O3_181/GMJ_IVECW_F_M.csv /home/grierjones/DDCASPT2/ozone/O3/O3_181/GMJ_IVECW_F_M.csv

>>> COPY /tmp/O3_181/GMJ_e2_F_M.csv /home/grierjones/DDCASPT2/ozone/O3/O3_181/GMJ_e2_F_M.csv

>>> END FOREACH

>>> END FOREACH

>>> EXPORT i = G

>>> EXPORT j = P

>>> IF (-FILE GMJ_e2_${i}_${j}.csv)

>>> COPY /tmp/O3_181/GMJ_RHS_G_P.csv /home/grierjones/DDCASPT2/ozone/O3/O3_181/GMJ_RHS_G_P.csv

>>> COPY /tmp/O3_181/GMJ_IVECW_G_P.csv /home/grierjones/DDCASPT2/ozone/O3/O3_181/GMJ_IVECW_G_P.csv

>>> COPY /tmp/O3_181/GMJ_e2_G_P.csv /home/grierjones/DDCASPT2/ozone/O3/O3_181/GMJ_e2_G_P.csv

>>> END FOREACH

>>> EXPORT j = M

>>> IF (-FILE GMJ_e2_${i}_${j}.csv)

>>> COPY /tmp/O3_181/GMJ_RHS_G_M.csv /home/grierjones/DDCASPT2/ozone/O3/O3_181/GMJ_RHS_G_M.csv

>>> COPY /tmp/O3_181/GMJ_IVECW_G_M.csv /home/grierjones/DDCASPT2/ozone/O3/O3_181/GMJ_IVECW_G_M.csv

>>> COPY /tmp/O3_181/GMJ_e2_G_M.csv /home/grierjones/DDCASPT2/ozone/O3/O3_181/GMJ_e2_G_M.csv

>>> END FOREACH

>>> END FOREACH

>>> EXPORT i = H

>>> EXPORT j = P

>>> IF (-FILE GMJ_e2_${i}_${j}.csv)

>>> COPY /tmp/O3_181/GMJ_RHS_H_P.csv /home/grierjones/DDCASPT2/ozone/O3/O3_181/GMJ_RHS_H_P.csv

>>> COPY /tmp/O3_181/GMJ_IVECW_H_P.csv /home/grierjones/DDCASPT2/ozone/O3/O3_181/GMJ_IVECW_H_P.csv

>>> COPY /tmp/O3_181/GMJ_e2_H_P.csv /home/grierjones/DDCASPT2/ozone/O3/O3_181/GMJ_e2_H_P.csv

>>> END FOREACH

>>> EXPORT j = M

>>> IF (-FILE GMJ_e2_${i}_${j}.csv)

>>> COPY /tmp/O3_181/GMJ_RHS_H_M.csv /home/grierjones/DDCASPT2/ozone/O3/O3_181/GMJ_RHS_H_M.csv

>>> COPY /tmp/O3_181/GMJ_IVECW_H_M.csv /home/grierjones/DDCASPT2/ozone/O3/O3_181/GMJ_IVECW_H_M.csv

>>> COPY /tmp/O3_181/GMJ_e2_H_M.csv /home/grierjones/DDCASPT2/ozone/O3/O3_181/GMJ_e2_H_M.csv

>>> END FOREACH

>>> END FOREACH

>>> EXPORT i = A

>>> IF (-FILE GMJ_e2_$i.csv)

>>> COPY /tmp/O3_181/GMJ_RHS_A.csv /home/grierjones/DDCASPT2/ozone/O3/O3_181/GMJ_RHS_A.csv

>>> COPY /tmp/O3_181/GMJ_IVECW_A.csv /home/grierjones/DDCASPT2/ozone/O3/O3_181/GMJ_IVECW_A.csv

>>> COPY /tmp/O3_181/GMJ_e2_A.csv /home/grierjones/DDCASPT2/ozone/O3/O3_181/GMJ_e2_A.csv

>>> END FOREACH

>>> EXPORT i = C

>>> IF (-FILE GMJ_e2_$i.csv)

>>> COPY /tmp/O3_181/GMJ_RHS_C.csv /home/grierjones/DDCASPT2/ozone/O3/O3_181/GMJ_RHS_C.csv

>>> COPY /tmp/O3_181/GMJ_IVECW_C.csv /home/grierjones/DDCASPT2/ozone/O3/O3_181/GMJ_IVECW_C.csv

>>> COPY /tmp/O3_181/GMJ_e2_C.csv /home/grierjones/DDCASPT2/ozone/O3/O3_181/GMJ_e2_C.csv

>>> END FOREACH

>>> EXPORT i = D

>>> IF (-FILE GMJ_e2_$i.csv)

>>> COPY /tmp/O3_181/GMJ_RHS_D.csv /home/grierjones/DDCASPT2/ozone/O3/O3_181/GMJ_RHS_D.csv

>>> COPY /tmp/O3_181/GMJ_IVECW_D.csv /home/grierjones/DDCASPT2/ozone/O3/O3_181/GMJ_IVECW_D.csv

>>> COPY /tmp/O3_181/GMJ_e2_D.csv /home/grierjones/DDCASPT2/ozone/O3/O3_181/GMJ_e2_D.csv

>>> END FOREACH

.########################.
.# Non-zero return code #.
.########################.

    Timing: Wall=7.20 User=4.58 System=2.61
**************************************
*** WorkDir at /tmp/O3_181 cleaned ***
**************************************
