[Molden Format]
[N_Atoms]
                     2
[Atoms] (AU)
LI1         1      3           0.00000000      0.00000000      0.00000000
LI2         2      3           0.00000000      0.00000000      3.77945225
[Charge] (Mulliken)
  5.857536677922326E-013
 -5.897504706808832E-013
[GTO] (AU)
   1
   s  14
  9.497934400E+03  9.668999974E-05
  1.416811200E+03  6.087099984E-04
  3.214599400E+02  3.101519992E-03
  9.112416300E+01  1.266904997E-02
  2.999989100E+01  4.248012989E-02
  1.101763100E+01  1.150183297E-01
  4.372801000E+00  2.398650094E-01
  1.831256000E+00  3.584300090E-01
  8.022610000E-01  3.048527792E-01
  3.626480000E-01  8.824261976E-02
  1.139950000E-01 -8.445899977E-04
  5.123700000E-02 -7.943959979E-03
  2.246800000E-02 -3.764419990E-03
  7.860000000E-03 -8.868999976E-05
   s  14
  9.497934400E+03 -1.244999993E-05
  1.416811200E+03 -7.838999954E-05
  3.214599400E+02 -4.007099976E-04
  9.112416300E+01 -1.645249990E-03
  2.999989100E+01 -5.634599967E-03
  1.101763100E+01 -1.590780991E-02
  4.372801000E+00 -3.612581979E-02
  1.831256000E+00 -6.459927962E-02
  8.022610000E-01 -1.008321794E-01
  3.626480000E-01 -9.757613942E-02
  1.139950000E-01  2.301215886E-01
  5.123700000E-02  6.102389764E-01
  2.246800000E-02  2.849406083E-01
  7.860000000E-03  4.026899976E-03
   p   9
  1.311950400E+01  1.524940000E-03
  3.077424200E+00  8.314830000E-03
  1.098800500E+00  1.933203000E-02
  4.357784000E-01  4.934293000E-02
  1.802432000E-01  1.623554000E-01
  7.613330000E-02  3.847505400E-01
  3.254650000E-02  4.336100400E-01
  1.401820000E-02  1.287005900E-01
  4.906400000E-03 -1.018520000E-03
 
   2
   s  14
  9.497934400E+03  9.668999974E-05
  1.416811200E+03  6.087099984E-04
  3.214599400E+02  3.101519992E-03
  9.112416300E+01  1.266904997E-02
  2.999989100E+01  4.248012989E-02
  1.101763100E+01  1.150183297E-01
  4.372801000E+00  2.398650094E-01
  1.831256000E+00  3.584300090E-01
  8.022610000E-01  3.048527792E-01
  3.626480000E-01  8.824261976E-02
  1.139950000E-01 -8.445899977E-04
  5.123700000E-02 -7.943959979E-03
  2.246800000E-02 -3.764419990E-03
  7.860000000E-03 -8.868999976E-05
   s  14
  9.497934400E+03 -1.244999993E-05
  1.416811200E+03 -7.838999954E-05
  3.214599400E+02 -4.007099976E-04
  9.112416300E+01 -1.645249990E-03
  2.999989100E+01 -5.634599967E-03
  1.101763100E+01 -1.590780991E-02
  4.372801000E+00 -3.612581979E-02
  1.831256000E+00 -6.459927962E-02
  8.022610000E-01 -1.008321794E-01
  3.626480000E-01 -9.757613942E-02
  1.139950000E-01  2.301215886E-01
  5.123700000E-02  6.102389764E-01
  2.246800000E-02  2.849406083E-01
  7.860000000E-03  4.026899976E-03
   p   9
  1.311950400E+01  1.524940000E-03
  3.077424200E+00  8.314830000E-03
  1.098800500E+00  1.933203000E-02
  4.357784000E-01  4.934293000E-02
  1.802432000E-01  1.623554000E-01
  7.613330000E-02  3.847505400E-01
  3.254650000E-02  4.336100400E-01
  1.401820000E-02  1.287005900E-01
  4.906400000E-03 -1.018520000E-03
 
[MO]
Sym=     1a  
Ene=    -2.4775
Spin= Alpha
Occup=    2.00000
   1         0.70622445
   2         0.00633570
   3        -0.00000000
   4         0.00000000
   5         0.00010177
   6         0.70622445
   7         0.00633570
   8         0.00000000
   9        -0.00000000
  10        -0.00010177
Sym=     2a  
Ene=    -2.4725
Spin= Alpha
Occup=    2.00000
   1        -0.70757805
   2        -0.00570260
   3        -0.00000000
   4         0.00000000
   5         0.00141976
   6         0.70757805
   7         0.00570260
   8         0.00000000
   9        -0.00000000
  10         0.00141976
Sym=     3a  
Ene=    -0.1870
Spin= Alpha
Occup=    1.87195
   1        -0.09218470
   2         0.48877036
   3        -0.00000000
   4         0.00000000
   5         0.15406225
   6        -0.09218470
   7         0.48877036
   8        -0.00000000
   9         0.00000000
  10        -0.15406225
Sym=     4a  
Ene=    -0.0000
Spin= Alpha
Occup=    0.12805
   1        -0.00000000
   2         0.00000000
   3         0.50423240
   4        -0.20940255
   5         0.00000000
   6        -0.00000000
   7         0.00000000
   8         0.50423240
   9        -0.20940255
  10         0.00000000
Sym=     5a  
Ene=     0.0263
Spin= Alpha
Occup=    0.00000
   1         0.05656725
   2        -0.33216885
   3         0.00000000
   4         0.00000000
   5         0.49767391
   6        -0.05656725
   7         0.33216885
   8         0.00000000
   9         0.00000000
  10         0.49767391
Sym=     6a  
Ene=     0.0307
Spin= Alpha
Occup=    0.00000
   1        -0.00000000
   2         0.00000000
   3         0.20940255
   4         0.50423240
   5        -0.00000000
   6         0.00000000
   7        -0.00000000
   8         0.20940255
   9         0.50423240
  10        -0.00000000
Sym=     7a  
Ene=     0.0883
Spin= Alpha
Occup=    0.00000
   1         0.11808592
   2         0.35722078
   3         0.00000000
   4        -0.00000000
   5        -0.88523515
   6         0.11808592
   7         0.35722078
   8        -0.00000000
   9         0.00000000
  10         0.88523515
Sym=     8a  
Ene=     0.1478
Spin= Alpha
Occup=    0.00000
   1         0.00000000
   2        -0.00000000
   3        -1.14955405
   4         0.47739802
   5        -0.00000000
   6         0.00000000
   7         0.00000000
   8         1.14955405
   9        -0.47739802
  10         0.00000000
Sym=     9a  
Ene=     0.1482
Spin= Alpha
Occup=    0.00000
   1        -0.00000000
   2        -0.00000000
   3        -0.47739802
   4        -1.14955405
   5         0.00000000
   6         0.00000000
   7         0.00000000
   8         0.47739802
   9         1.14955405
  10        -0.00000000
Sym=    10a  
Ene=     0.5044
Spin= Alpha
Occup=    0.00000
   1        -1.03875487
   2        -5.15386888
   3         0.00000000
   4         0.00000000
   5        -2.46863464
   6         1.03875487
   7         5.15386888
   8        -0.00000000
   9        -0.00000000
  10        -2.46863464
