[Molden Format]
[N_Atoms]
                     2
[Atoms] (AU)
LI1         1      3           0.00000000      0.00000000      0.00000000
LI2         2      3           0.00000000      0.00000000      3.77945225
[Charge] (Mulliken)
   1.00013838950266     
  0.999861610497329     
[GTO] (AU)
   1
   s  14
  9.497934400E+03  9.668999974E-05
  1.416811200E+03  6.087099984E-04
  3.214599400E+02  3.101519992E-03
  9.112416300E+01  1.266904997E-02
  2.999989100E+01  4.248012989E-02
  1.101763100E+01  1.150183297E-01
  4.372801000E+00  2.398650094E-01
  1.831256000E+00  3.584300090E-01
  8.022610000E-01  3.048527792E-01
  3.626480000E-01  8.824261976E-02
  1.139950000E-01 -8.445899977E-04
  5.123700000E-02 -7.943959979E-03
  2.246800000E-02 -3.764419990E-03
  7.860000000E-03 -8.868999976E-05
   s  14
  9.497934400E+03 -1.244999993E-05
  1.416811200E+03 -7.838999954E-05
  3.214599400E+02 -4.007099976E-04
  9.112416300E+01 -1.645249990E-03
  2.999989100E+01 -5.634599967E-03
  1.101763100E+01 -1.590780991E-02
  4.372801000E+00 -3.612581979E-02
  1.831256000E+00 -6.459927962E-02
  8.022610000E-01 -1.008321794E-01
  3.626480000E-01 -9.757613942E-02
  1.139950000E-01  2.301215886E-01
  5.123700000E-02  6.102389764E-01
  2.246800000E-02  2.849406083E-01
  7.860000000E-03  4.026899976E-03
   p   9
  1.311950400E+01  1.524940000E-03
  3.077424200E+00  8.314830000E-03
  1.098800500E+00  1.933203000E-02
  4.357784000E-01  4.934293000E-02
  1.802432000E-01  1.623554000E-01
  7.613330000E-02  3.847505400E-01
  3.254650000E-02  4.336100400E-01
  1.401820000E-02  1.287005900E-01
  4.906400000E-03 -1.018520000E-03
 
   2
   s  14
  9.497934400E+03  9.668999974E-05
  1.416811200E+03  6.087099984E-04
  3.214599400E+02  3.101519992E-03
  9.112416300E+01  1.266904997E-02
  2.999989100E+01  4.248012989E-02
  1.101763100E+01  1.150183297E-01
  4.372801000E+00  2.398650094E-01
  1.831256000E+00  3.584300090E-01
  8.022610000E-01  3.048527792E-01
  3.626480000E-01  8.824261976E-02
  1.139950000E-01 -8.445899977E-04
  5.123700000E-02 -7.943959979E-03
  2.246800000E-02 -3.764419990E-03
  7.860000000E-03 -8.868999976E-05
   s  14
  9.497934400E+03 -1.244999993E-05
  1.416811200E+03 -7.838999954E-05
  3.214599400E+02 -4.007099976E-04
  9.112416300E+01 -1.645249990E-03
  2.999989100E+01 -5.634599967E-03
  1.101763100E+01 -1.590780991E-02
  4.372801000E+00 -3.612581979E-02
  1.831256000E+00 -6.459927962E-02
  8.022610000E-01 -1.008321794E-01
  3.626480000E-01 -9.757613942E-02
  1.139950000E-01  2.301215886E-01
  5.123700000E-02  6.102389764E-01
  2.246800000E-02  2.849406083E-01
  7.860000000E-03  4.026899976E-03
   p   9
  1.311950400E+01  1.524940000E-03
  3.077424200E+00  8.314830000E-03
  1.098800500E+00  1.933203000E-02
  4.357784000E-01  4.934293000E-02
  1.802432000E-01  1.623554000E-01
  7.613330000E-02  3.847505400E-01
  3.254650000E-02  4.336100400E-01
  1.401820000E-02  1.287005900E-01
  4.906400000E-03 -1.018520000E-03
 
[MO]
Sym=     1a  
Ene=    -3.0580
Spin= Alpha
Occup=    2.00000
   1         0.00096274
   2        -0.00623885
   3        -0.00000000
   4         0.00000000
   5        -0.00103295
   6         1.00081793
   7         0.01710525
   8         0.00000000
   9         0.00000000
  10        -0.00643412
Sym=     2a  
Ene=    -3.0580
Spin= Alpha
Occup=    1.99998
   1        -1.00079342
   2        -0.01708511
   3        -0.00000000
   4        -0.00000000
   5        -0.00638463
   6         0.00758960
   7         0.00620113
   8        -0.00000000
   9         0.00000000
  10        -0.00092290
Sym=     3a  
Ene=    -0.0010
Spin= Alpha
Occup=    0.00002
   1        -0.39435907
   2        -0.83365827
   3        -0.00000000
   4         0.00000000
   5        -0.55874705
   6         0.18813449
   7         1.47513153
   8        -0.00000000
   9        -0.00000000
  10        -1.18194788
Sym=     4a  
Ene=    -0.3459
Spin= Alpha
Occup=    0.00000
   1        -0.05914660
   2        -0.33569654
   3         0.00000000
   4        -0.00000000
   5         0.45742693
   6        -0.05271563
   7         0.75004927
   8         0.00000000
   9        -0.00000000
  10         0.16620573
Sym=     5a  
Ene=    -0.3368
Spin= Alpha
Occup=    0.00000
   1        -0.00000000
   2        -0.00000000
   3        -0.53364427
   4        -0.11558662
   5         0.00000000
   6        -0.00000000
   7         0.00000000
   8        -0.53357852
   9        -0.11557238
  10         0.00000000
Sym=     6a  
Ene=    -0.3368
Spin= Alpha
Occup=    0.00000
   1        -0.00000000
   2        -0.00000000
   3        -0.11558662
   4         0.53364427
   5         0.00000000
   6        -0.00000000
   7         0.00000000
   8        -0.11557238
   9         0.53357852
  10         0.00000000
Sym=     7a  
Ene=    -0.2846
Spin= Alpha
Occup=    0.00000
   1        -0.09860668
   2        -0.50259650
   3         0.00000000
   4         0.00000000
   5         0.82977762
   6        -0.09104172
   7        -0.41852590
   8        -0.00000000
   9        -0.00000000
  10        -0.81960377
Sym=     8a  
Ene=    -0.2369
Spin= Alpha
Occup=    0.00000
   1        -0.00000000
   2         0.00000000
   3        -1.24287958
   4        -0.06780109
   5         0.00000000
   6        -0.00000000
   7        -0.00000000
   8         1.24290905
   9         0.06780270
  10        -0.00000000
Sym=     9a  
Ene=    -0.2369
Spin= Alpha
Occup=    0.00000
   1        -0.00000000
   2        -0.00000000
   3        -0.06780109
   4         1.24287958
   5        -0.00000000
   6         0.00000000
   7         0.00000000
   8         0.06780270
   9        -1.24290905
  10         0.00000000
Sym=    10a  
Ene=     0.0859
Spin= Alpha
Occup=    0.00000
   1        -0.96630452
   2        -5.09692692
   3         0.00000000
   4        -0.00000000
   5        -2.43704828
   6         1.02757834
   7         4.91174047
   8         0.00000000
   9         0.00000000
  10        -2.24784275
