[Molden Format]
[N_Atoms]
                     2
[Atoms] (AU)
LI1         1      3           0.00000000      0.00000000      0.00000000
LI2         2      3           0.00000000      0.00000000      3.77945225
[Charge] (Mulliken)
 -8.348877145181177E-013
  8.339995360984176E-013
[GTO] (AU)
   1
   s  14
  9.497934400E+03  9.668999974E-05
  1.416811200E+03  6.087099984E-04
  3.214599400E+02  3.101519992E-03
  9.112416300E+01  1.266904997E-02
  2.999989100E+01  4.248012989E-02
  1.101763100E+01  1.150183297E-01
  4.372801000E+00  2.398650094E-01
  1.831256000E+00  3.584300090E-01
  8.022610000E-01  3.048527792E-01
  3.626480000E-01  8.824261976E-02
  1.139950000E-01 -8.445899977E-04
  5.123700000E-02 -7.943959979E-03
  2.246800000E-02 -3.764419990E-03
  7.860000000E-03 -8.868999976E-05
   s  14
  9.497934400E+03 -1.244999993E-05
  1.416811200E+03 -7.838999954E-05
  3.214599400E+02 -4.007099976E-04
  9.112416300E+01 -1.645249990E-03
  2.999989100E+01 -5.634599967E-03
  1.101763100E+01 -1.590780991E-02
  4.372801000E+00 -3.612581979E-02
  1.831256000E+00 -6.459927962E-02
  8.022610000E-01 -1.008321794E-01
  3.626480000E-01 -9.757613942E-02
  1.139950000E-01  2.301215886E-01
  5.123700000E-02  6.102389764E-01
  2.246800000E-02  2.849406083E-01
  7.860000000E-03  4.026899976E-03
   p   9
  1.311950400E+01  1.524940000E-03
  3.077424200E+00  8.314830000E-03
  1.098800500E+00  1.933203000E-02
  4.357784000E-01  4.934293000E-02
  1.802432000E-01  1.623554000E-01
  7.613330000E-02  3.847505400E-01
  3.254650000E-02  4.336100400E-01
  1.401820000E-02  1.287005900E-01
  4.906400000E-03 -1.018520000E-03
 
   2
   s  14
  9.497934400E+03  9.668999974E-05
  1.416811200E+03  6.087099984E-04
  3.214599400E+02  3.101519992E-03
  9.112416300E+01  1.266904997E-02
  2.999989100E+01  4.248012989E-02
  1.101763100E+01  1.150183297E-01
  4.372801000E+00  2.398650094E-01
  1.831256000E+00  3.584300090E-01
  8.022610000E-01  3.048527792E-01
  3.626480000E-01  8.824261976E-02
  1.139950000E-01 -8.445899977E-04
  5.123700000E-02 -7.943959979E-03
  2.246800000E-02 -3.764419990E-03
  7.860000000E-03 -8.868999976E-05
   s  14
  9.497934400E+03 -1.244999993E-05
  1.416811200E+03 -7.838999954E-05
  3.214599400E+02 -4.007099976E-04
  9.112416300E+01 -1.645249990E-03
  2.999989100E+01 -5.634599967E-03
  1.101763100E+01 -1.590780991E-02
  4.372801000E+00 -3.612581979E-02
  1.831256000E+00 -6.459927962E-02
  8.022610000E-01 -1.008321794E-01
  3.626480000E-01 -9.757613942E-02
  1.139950000E-01  2.301215886E-01
  5.123700000E-02  6.102389764E-01
  2.246800000E-02  2.849406083E-01
  7.860000000E-03  4.026899976E-03
   p   9
  1.311950400E+01  1.524940000E-03
  3.077424200E+00  8.314830000E-03
  1.098800500E+00  1.933203000E-02
  4.357784000E-01  4.934293000E-02
  1.802432000E-01  1.623554000E-01
  7.613330000E-02  3.847505400E-01
  3.254650000E-02  4.336100400E-01
  1.401820000E-02  1.287005900E-01
  4.906400000E-03 -1.018520000E-03
 
[MO]
Sym=     1a  
Ene=    -2.4708
Spin= Alpha
Occup=    1.00000
   1         0.70570239
   2         0.00912274
   3        -0.00000000
   4        -0.00000000
   5         0.00090031
   6         0.70570239
   7         0.00912274
   8         0.00000000
   9         0.00000000
  10        -0.00090031
Sym=     1a  
Ene=    -2.4708
Spin= Beta
Occup=    1.00000
   1         0.70570239
   2         0.00912274
   3        -0.00000000
   4        -0.00000000
   5         0.00090031
   6         0.70570239
   7         0.00912274
   8         0.00000000
   9         0.00000000
  10        -0.00090031
Sym=     2a  
Ene=    -2.4657
Spin= Alpha
Occup=    1.00000
   1        -0.70749046
   2        -0.00527613
   3        -0.00000000
   4         0.00000000
   5         0.00163275
   6         0.70749046
   7         0.00527613
   8         0.00000000
   9         0.00000000
  10         0.00163275
Sym=     2a  
Ene=    -2.4657
Spin= Beta
Occup=    1.00000
   1        -0.70749046
   2        -0.00527613
   3        -0.00000000
   4         0.00000000
   5         0.00163275
   6         0.70749046
   7         0.00527613
   8         0.00000000
   9         0.00000000
  10         0.00163275
Sym=     3a  
Ene=    -0.1956
Spin= Alpha
Occup=    1.00000
   1        -0.09534780
   2         0.49119344
   3        -0.00000000
   4         0.00000000
   5         0.14791378
   6        -0.09534780
   7         0.49119344
   8         0.00000000
   9        -0.00000000
  10        -0.14791378
Sym=     3a  
Ene=    -0.1956
Spin= Beta
Occup=    1.00000
   1        -0.09534780
   2         0.49119344
   3        -0.00000000
   4         0.00000000
   5         0.14791378
   6        -0.09534780
   7         0.49119344
   8         0.00000000
   9        -0.00000000
  10        -0.14791378
Sym=     4a  
Ene=     0.0270
Spin= Alpha
Occup=    0.00000
   1         0.05644362
   2        -0.33282872
   3         0.00000000
   4         0.00000000
   5         0.49735778
   6        -0.05644362
   7         0.33282872
   8         0.00000000
   9         0.00000000
  10         0.49735778
Sym=     4a  
Ene=     0.0270
Spin= Beta
Occup=    0.00000
   1         0.05644362
   2        -0.33282872
   3         0.00000000
   4         0.00000000
   5         0.49735778
   6        -0.05644362
   7         0.33282872
   8         0.00000000
   9         0.00000000
  10         0.49735778
Sym=     5a  
Ene=     0.0320
Spin= Alpha
Occup=    0.00000
   1        -0.00000000
   2         0.00000000
   3         0.52832702
   4         0.13773269
   5        -0.00000000
   6         0.00000000
   7        -0.00000000
   8         0.52832702
   9         0.13773269
  10        -0.00000000
Sym=     5a  
Ene=     0.0320
Spin= Beta
Occup=    0.00000
   1        -0.00000000
   2         0.00000000
   3         0.52832702
   4         0.13773269
   5        -0.00000000
   6         0.00000000
   7        -0.00000000
   8         0.52832702
   9         0.13773269
  10        -0.00000000
Sym=     6a  
Ene=     0.0320
Spin= Alpha
Occup=    0.00000
   1        -0.00000000
   2         0.00000000
   3        -0.13773269
   4         0.52832702
   5        -0.00000000
   6         0.00000000
   7        -0.00000000
   8        -0.13773269
   9         0.52832702
  10        -0.00000000
Sym=     6a  
Ene=     0.0320
Spin= Beta
Occup=    0.00000
   1        -0.00000000
   2         0.00000000
   3        -0.13773269
   4         0.52832702
   5        -0.00000000
   6         0.00000000
   7        -0.00000000
   8        -0.13773269
   9         0.52832702
  10        -0.00000000
Sym=     7a  
Ene=     0.0905
Spin= Alpha
Occup=    0.00000
   1         0.11869373
   2         0.35382068
   3         0.00000000
   4        -0.00000000
   5        -0.88628277
   6         0.11869373
   7         0.35382068
   8        -0.00000000
   9         0.00000000
  10         0.88628277
Sym=     7a  
Ene=     0.0905
Spin= Beta
Occup=    0.00000
   1         0.11869373
   2         0.35382068
   3         0.00000000
   4        -0.00000000
   5        -0.88628277
   6         0.11869373
   7         0.35382068
   8        -0.00000000
   9         0.00000000
  10         0.88628277
Sym=     8a  
Ene=     0.1507
Spin= Alpha
Occup=    0.00000
   1        -0.00000000
   2        -0.00000000
   3        -1.24306038
   4        -0.06468585
   5        -0.00000000
   6         0.00000000
   7         0.00000000
   8         1.24306038
   9         0.06468585
  10         0.00000000
Sym=     8a  
Ene=     0.1507
Spin= Beta
Occup=    0.00000
   1        -0.00000000
   2        -0.00000000
   3        -1.24306038
   4        -0.06468585
   5        -0.00000000
   6         0.00000000
   7         0.00000000
   8         1.24306038
   9         0.06468585
  10         0.00000000
Sym=     9a  
Ene=     0.1507
Spin= Alpha
Occup=    0.00000
   1        -0.00000000
   2        -0.00000000
   3         0.06468585
   4        -1.24306038
   5         0.00000000
   6        -0.00000000
   7        -0.00000000
   8        -0.06468585
   9         1.24306038
  10        -0.00000000
Sym=     9a  
Ene=     0.1507
Spin= Beta
Occup=    0.00000
   1        -0.00000000
   2        -0.00000000
   3         0.06468585
   4        -1.24306038
   5         0.00000000
   6        -0.00000000
   7        -0.00000000
   8        -0.06468585
   9         1.24306038
  10        -0.00000000
Sym=    10a  
Ene=     0.5066
Spin= Alpha
Occup=    0.00000
   1         1.03882125
   2         5.15382676
   3        -0.00000000
   4        -0.00000000
   5         2.46869821
   6        -1.03882125
   7        -5.15382676
   8         0.00000000
   9        -0.00000000
  10         2.46869821
Sym=    10a  
Ene=     0.5066
Spin= Beta
Occup=    0.00000
   1         1.03882125
   2         5.15382676
   3        -0.00000000
   4        -0.00000000
   5         2.46869821
   6        -1.03882125
   7        -5.15382676
   8         0.00000000
   9        -0.00000000
  10         2.46869821
