[Molden Format]
[N_Atoms]
                     2
[Atoms] (AU)
F1          1      9           0.00000000      0.00000000      0.00000000
LI2         2      3           0.00000000      0.00000000      4.34637009
[Charge] (Mulliken)
 -0.542523014908552     
  0.542523014908535     
[GTO] (AU)
   1
   s  14
  1.031094600E+05  1.713099991E-04
  1.528100700E+04  7.123999962E-04
  3.441539200E+03  2.990479984E-03
  9.670948300E+02  1.164036994E-02
  3.140353400E+02  3.968642979E-02
  1.134423000E+02  1.128546094E-01
  4.464472700E+01  2.473650687E-01
  1.894287400E+01  3.672702681E-01
  8.532743000E+00  2.896286985E-01
  3.919401000E+00  7.786681959E-02
  1.568157000E+00  4.562139976E-03
  6.232900000E-01  2.468879987E-03
  2.408610000E-01  1.106309994E-03
  8.430100000E-02  1.739699991E-04
   s  14
  1.031094600E+05 -4.044999995E-05
  1.528100700E+04 -1.682299998E-04
  3.441539200E+03 -7.084299991E-04
  9.670948300E+02 -2.767999996E-03
  3.140353400E+02 -9.611379987E-03
  1.134423000E+02 -2.833957996E-02
  4.464472700E+01 -6.839343991E-02
  1.894287400E+01 -1.237379298E-01
  8.532743000E+00 -1.512859698E-01
  3.919401000E+00 -9.099909988E-03
  1.568157000E+00  3.716257695E-01
  6.232900000E-01  5.500214393E-01
  2.408610000E-01  2.092318697E-01
  8.430100000E-02  8.074639989E-03
   p   9
  2.453302900E+02  1.024860004E-03
  5.691900500E+01  8.344290032E-03
  1.760456800E+01  4.078927016E-02
  6.274995000E+00  1.351370605E-01
  2.447030000E+00  2.798830811E-01
  9.950600000E-01  3.597966414E-01
  4.039730000E-01  3.055347412E-01
  1.548100000E-01  1.354703905E-01
  5.418400000E-02  2.804449011E-02
 
   2
   s  14
  9.497934400E+03  9.668999974E-05
  1.416811200E+03  6.087099984E-04
  3.214599400E+02  3.101519992E-03
  9.112416300E+01  1.266904997E-02
  2.999989100E+01  4.248012989E-02
  1.101763100E+01  1.150183297E-01
  4.372801000E+00  2.398650094E-01
  1.831256000E+00  3.584300090E-01
  8.022610000E-01  3.048527792E-01
  3.626480000E-01  8.824261976E-02
  1.139950000E-01 -8.445899977E-04
  5.123700000E-02 -7.943959979E-03
  2.246800000E-02 -3.764419990E-03
  7.860000000E-03 -8.868999976E-05
   s  14
  9.497934400E+03 -1.244999993E-05
  1.416811200E+03 -7.838999954E-05
  3.214599400E+02 -4.007099976E-04
  9.112416300E+01 -1.645249990E-03
  2.999989100E+01 -5.634599967E-03
  1.101763100E+01 -1.590780991E-02
  4.372801000E+00 -3.612581979E-02
  1.831256000E+00 -6.459927962E-02
  8.022610000E-01 -1.008321794E-01
  3.626480000E-01 -9.757613942E-02
  1.139950000E-01  2.301215886E-01
  5.123700000E-02  6.102389764E-01
  2.246800000E-02  2.849406083E-01
  7.860000000E-03  4.026899976E-03
   p   9
  1.311950400E+01  1.524940000E-03
  3.077424200E+00  8.314830000E-03
  1.098800500E+00  1.933203000E-02
  4.357784000E-01  4.934293000E-02
  1.802432000E-01  1.623554000E-01
  7.613330000E-02  3.847505400E-01
  3.254650000E-02  4.336100400E-01
  1.401820000E-02  1.287005900E-01
  4.906400000E-03 -1.018520000E-03
 
[MO]
Sym=     1a  
Ene=   -25.9410
Spin= Alpha
Occup=    2.00000
   1         1.00001496
   2        -0.00251525
   3        -0.00000001
   4        -0.00000001
   5        -0.00007562
   6        -0.00001197
   7        -0.00040972
   8        -0.00000000
   9        -0.00000000
  10         0.00037735
Sym=     2a  
Ene=    -2.5184
Spin= Alpha
Occup=    2.00000
   1         0.00000824
   2         0.00207983
   3         0.00000006
   4         0.00000004
   5         0.00262273
   6         0.99982872
   7         0.01310592
   8        -0.00000001
   9        -0.00000001
  10         0.00175105
Sym=     3a  
Ene=    -1.2822
Spin= Alpha
Occup=    2.00000
   1         0.00277392
   2         0.99356927
   3        -0.00000452
   4        -0.00000310
   5        -0.12140685
   6        -0.00316214
   7        -0.02055499
   8        -0.00000097
   9        -0.00000066
  10        -0.00809965
Sym=     4a  
Ene=    -0.4182
Spin= Alpha
Occup=    2.00000
   1         0.00000017
   2         0.00000274
   3         0.81821640
   4         0.56032573
   5        -0.00003560
   6         0.00000098
   7        -0.00000383
   8         0.04711546
   9         0.03226531
  10         0.00000313
Sym=     5a  
Ene=    -0.4182
Spin= Alpha
Occup=    2.00000
   1        -0.00000000
   2        -0.00000000
   3         0.56032566
   4        -0.81821629
   5         0.00000000
   6        -0.00000000
   7         0.00000000
   8         0.03226575
   9        -0.04711611
  10        -0.00000000
Sym=     6a  
Ene=    -0.3564
Spin= Alpha
Occup=    1.93769
   1         0.00997610
   2        -0.01724074
   3        -0.00002742
   4        -0.00001878
   5        -0.87256536
   6         0.02971102
   7        -0.34703043
   8        -0.00000901
   9        -0.00000617
  10         0.14533710
Sym=     7a  
Ene=    -0.0004
Spin= Alpha
Occup=    0.06231
   1         0.02792057
   2         0.30430540
   3         0.00001163
   4         0.00000797
   5         0.49822598
   6        -0.00434948
   7        -0.89827077
   8        -0.00002528
   9        -0.00001732
  10         0.40149764
Sym=     8a  
Ene=     0.0539
Spin= Alpha
Occup=    0.00000
   1         0.02243147
   2         0.22042681
   3         0.00003997
   4         0.00002737
   5         0.03689631
   6        -0.00835747
   7         0.35390309
   8        -0.00023784
   9        -0.00016287
  10         0.95896364
Sym=     9a  
Ene=     0.0638
Spin= Alpha
Occup=    0.00000
   1         0.00000739
   2         0.00007329
   3        -0.14416676
   4        -0.09872727
   5         0.00001817
   6        -0.00000225
   7         0.00007052
   8         0.82948332
   9         0.56804097
  10         0.00028859
Sym=    10a  
Ene=     0.0638
Spin= Alpha
Occup=    0.00000
   1         0.00000000
   2         0.00000000
   3         0.09872771
   4        -0.14416740
   5         0.00000000
   6        -0.00000000
   7         0.00000000
   8        -0.56804097
   9         0.82948332
  10         0.00000000
