[Molden Format]
[N_Atoms]
                     2
[Atoms] (AU)
LI1         1      3           0.00000000      0.00000000      0.00000000
O2          2      8           0.00000000      0.00000000      1.51178090
[Charge] (Mulliken)
  0.204510752699695     
 -0.204510752699729     
[GTO] (AU)
   1
   s  14
  9.497934400E+03  9.668999974E-05
  1.416811200E+03  6.087099984E-04
  3.214599400E+02  3.101519992E-03
  9.112416300E+01  1.266904997E-02
  2.999989100E+01  4.248012989E-02
  1.101763100E+01  1.150183297E-01
  4.372801000E+00  2.398650094E-01
  1.831256000E+00  3.584300090E-01
  8.022610000E-01  3.048527792E-01
  3.626480000E-01  8.824261976E-02
  1.139950000E-01 -8.445899977E-04
  5.123700000E-02 -7.943959979E-03
  2.246800000E-02 -3.764419990E-03
  7.860000000E-03 -8.868999976E-05
   s  14
  9.497934400E+03 -1.244999993E-05
  1.416811200E+03 -7.838999954E-05
  3.214599400E+02 -4.007099976E-04
  9.112416300E+01 -1.645249990E-03
  2.999989100E+01 -5.634599967E-03
  1.101763100E+01 -1.590780991E-02
  4.372801000E+00 -3.612581979E-02
  1.831256000E+00 -6.459927962E-02
  8.022610000E-01 -1.008321794E-01
  3.626480000E-01 -9.757613942E-02
  1.139950000E-01  2.301215886E-01
  5.123700000E-02  6.102389764E-01
  2.246800000E-02  2.849406083E-01
  7.860000000E-03  4.026899976E-03
   p   9
  1.311950400E+01  1.524940000E-03
  3.077424200E+00  8.314830000E-03
  1.098800500E+00  1.933203000E-02
  4.357784000E-01  4.934293000E-02
  1.802432000E-01  1.623554000E-01
  7.613330000E-02  3.847505400E-01
  3.254650000E-02  4.336100400E-01
  1.401820000E-02  1.287005900E-01
  4.906400000E-03 -1.018520000E-03
 
   2
   s  14
  1.053749500E+05  1.238600013E-04
  1.567924000E+04  5.120100053E-04
  3.534544700E+03  2.152910022E-03
  9.873651600E+02  8.528440089E-03
  3.159787500E+02  3.018049031E-02
  1.116542800E+02  9.099702095E-02
  4.269945100E+01  2.177936423E-01
  1.739559600E+01  3.686245738E-01
  7.438309000E+00  3.366707335E-01
  3.222862000E+00  9.657630101E-02
  1.253877000E+00  2.144520022E-03
  4.951550000E-01  1.194350012E-03
  1.916650000E-01  5.390200056E-04
  6.708300000E-02  2.103400022E-04
   s  14
  1.053749500E+05 -2.815000008E-05
  1.567924000E+04 -1.163000003E-04
  3.534544700E+03 -4.909200013E-04
  9.873651600E+02 -1.946160005E-03
  3.159787500E+02 -7.005300019E-03
  1.116542800E+02 -2.167814006E-02
  4.269945100E+01 -5.641213015E-02
  1.739559600E+01 -1.127053003E-01
  7.438309000E+00 -1.589119704E-01
  3.222862000E+00 -3.355083009E-02
  1.253877000E+00  3.531902810E-01
  4.951550000E-01  5.534199315E-01
  1.916650000E-01  2.301839106E-01
  6.708300000E-02  1.127267003E-02
   p   9
  2.000000000E+02  9.173000030E-04
  4.653336700E+01  7.377140024E-03
  1.462180900E+01  3.483515011E-02
  5.313064000E+00  1.144397004E-01
  2.102525000E+00  2.554966408E-01
  8.502230000E-01  3.722557412E-01
  3.375970000E-01  3.323314911E-01
  1.288920000E-01  1.400847905E-01
  4.511200000E-02  2.395784008E-02
 
[MO]
Sym=     1a  
Ene=   -21.0090
Spin= Alpha
Occup=    1.00000
   1        -0.00111084
   2        -0.00066267
   3        -0.00000000
   4        -0.00000000
   5         0.00028107
   6         1.00004640
   7         0.00080086
   8        -0.00000000
   9        -0.00000000
  10        -0.00278476
Sym=     1a  
Ene=   -21.0070
Spin= Beta
Occup=    1.00000
   1        -0.00110855
   2        -0.00064191
   3        -0.00000000
   4        -0.00000000
   5         0.00026175
   6         1.00004676
   7         0.00077626
   8        -0.00000000
   9        -0.00000000
  10        -0.00275589
Sym=     2a  
Ene=    -3.1761
Spin= Alpha
Occup=    1.00000
   1         0.89492300
   2        -0.02493958
   3        -0.00000000
   4        -0.00000000
   5         0.01533694
   6        -0.03421482
   7         0.14446802
   8        -0.00000000
   9        -0.00000000
  10        -0.10111509
Sym=     2a  
Ene=    -3.1700
Spin= Beta
Occup=    1.00000
   1         0.89749022
   2        -0.02572497
   3        -0.00000000
   4        -0.00000000
   5         0.01658131
   6        -0.03432607
   7         0.14180397
   8         0.00000000
   9        -0.00000000
  10        -0.09834005
Sym=     3a  
Ene=    -1.3465
Spin= Alpha
Occup=    1.00000
   1        -0.43899584
   2        -0.04246268
   3         0.00000000
   4        -0.00000000
   5         0.00630448
   6         0.01771746
   7         1.05576880
   8        -0.00000000
   9         0.00000000
  10         0.08295138
Sym=     3a  
Ene=    -1.3432
Spin= Beta
Occup=    1.00000
   1        -0.43108685
   2        -0.03871483
   3         0.00000000
   4         0.00000000
   5         0.00156287
   6         0.01759723
   7         1.05402729
   8         0.00000000
   9        -0.00000000
  10         0.09362798
Sym=     4a  
Ene=    -0.8770
Spin= Alpha
Occup=    1.00000
   1         0.00000000
   2         0.00000000
   3         0.00049462
   4        -0.03345198
   5         0.00000000
   6        -0.00000000
   7        -0.00000000
   8        -0.01495988
   9         1.01176880
  10         0.00000000
Sym=     4a  
Ene=    -0.8748
Spin= Beta
Occup=    1.00000
   1        -0.00000000
   2         0.00000000
   3        -0.00420556
   4        -0.04084726
   5         0.00000000
   6        -0.00000000
   7         0.00000000
   8         0.10389638
   9         1.00911128
  10        -0.00000000
Sym=     5a  
Ene=    -0.8770
Spin= Alpha
Occup=    1.00000
   1        -0.00000000
   2        -0.00000000
   3        -0.03345198
   4        -0.00049462
   5        -0.00000000
   6         0.00000000
   7         0.00000000
   8         1.01176880
   9         0.01495988
  10        -0.00000000
Sym=     5a  
Ene=    -0.8748
Spin= Beta
Occup=    1.00000
   1         0.00000000
   2         0.00000000
   3        -0.04084726
   4         0.00420556
   5        -0.00000000
   6        -0.00000000
   7        -0.00000000
   8         1.00911128
   9        -0.10389638
  10         0.00000000
Sym=     6a  
Ene=    -0.2175
Spin= Alpha
Occup=    1.00000
   1         0.17784696
   2         0.91523536
   3         0.00000000
   4         0.00000000
   5        -0.45703180
   6        -0.01271027
   7        -0.18225704
   8        -0.00000000
   9        -0.00000000
  10         0.19536910
Sym=     6a  
Ene=     0.0344
Spin= Beta
Occup=    0.00000
   1        -0.22842815
   2        -0.99721529
   3        -0.00000000
   4        -0.00000000
   5         0.28890817
   6         0.02736272
   7         0.29305413
   8         0.00000000
   9        -0.00000000
  10        -0.21116256
Sym=     7a  
Ene=     0.0705
Spin= Alpha
Occup=    0.00000
   1        -0.00000000
   2        -0.00000000
   3        -0.01122089
   4         1.07559227
   5        -0.00000000
   6         0.00000000
   7         0.00000000
   8         0.00382211
   9        -0.36637332
  10        -0.00000000
Sym=     7a  
Ene=     0.1075
Spin= Beta
Occup=    0.00000
   1         0.00000000
   2         0.00000000
   3         0.01359793
   4        -1.07530127
   5         0.00000000
   6        -0.00000000
   7        -0.00000000
   8        -0.00454231
   9         0.35919805
  10         0.00000000
Sym=     8a  
Ene=     0.0705
Spin= Alpha
Occup=    0.00000
   1        -0.00000000
   2         0.00000000
   3        -1.07559227
   4        -0.01122089
   5        -0.00000000
   6         0.00000000
   7         0.00000000
   8         0.36637332
   9         0.00382211
  10        -0.00000000
Sym=     8a  
Ene=     0.1075
Spin= Beta
Occup=    0.00000
   1        -0.00000000
   2         0.00000000
   3        -1.07530127
   4        -0.01359793
   5        -0.00000000
   6         0.00000000
   7         0.00000000
   8         0.35919805
   9         0.00454231
  10        -0.00000000
Sym=     9a  
Ene=     0.1094
Spin= Alpha
Occup=    0.00000
   1        -0.54655154
   2        -0.43236685
   3         0.00000000
   4        -0.00000000
   5        -0.77760449
   6         0.08021962
   7         0.62941113
   8        -0.00000000
   9         0.00000000
  10        -0.60195239
Sym=     9a  
Ene=     0.1369
Spin= Beta
Occup=    0.00000
   1         0.49355369
   2         0.30783901
   3        -0.00000000
   4         0.00000000
   5         0.86517739
   6        -0.07899642
   7        -0.60612053
   8         0.00000000
   9        -0.00000000
  10         0.52363788
Sym=    10a  
Ene=     0.1409
Spin= Alpha
Occup=    0.00000
   1        -0.42778021
   2         0.42398596
   3         0.00000000
   4        -0.00000000
   5         0.66092912
   6        -0.03976444
   7        -0.20424928
   8        -0.00000000
   9         0.00000000
  10        -0.96456633
Sym=    10a  
Ene=     0.1529
Spin= Beta
Occup=    0.00000
   1         0.46888094
   2        -0.33973850
   3        -0.00000000
   4        -0.00000000
   5        -0.64681671
   6         0.03441946
   7         0.14922423
   8         0.00000000
   9         0.00000000
  10         1.00537858
