   This run of MOLCAS is using the pymolcas driver

                             OPE
                             OPE          NMOL  CASOP  ENMOLC A   SO
                 OPE        NMOLC        AS  OP EN  MO LC     AS  OP
                OPENM       OL CA        SO  PE NM  OL CA     SOP EN
                OP EN      MO   LC       AS  OP ENMOL  CASO   PENMOL
                OP  EN     MO   LC       AS  OP EN     MO     LC ASO
               OP   E  NMOL  C  AS       OP  EN MO     LC     AS  OP
               OP  E   NMO   LC AS        OPEN  MO     LCASOP EN   M
               O  PEN   MO  LCA  SO
            OPE   NMO   L   CAS    OP
        OPENMOL  CASOP     ENMOL   CASOPE
     OPENMOLCA   SOPENMOLCASOPEN   MOLCASOPE
    OPENMOLCAS   OP           EN   MOL    CAS
    OPENMOLCAS       OP  ENM        O     LCA
    OPENMOLCAS    OPEN  MOLCASO     P  E  NMO
    OPENMOLCAS     OP               E  N  MOL
    OPENMOLCA   SO           PENM   O  L  CAS    OPEN    MO    LCAS
    OPENMOLCA   SOP           ENM   O  L  CAS   OP  EN  MOLC  AS   O
    OPENMOLCA   SOPE           NM      O  LCA   S      OP  EN MO
    OPENMOLC                AS         O  PEN   M      OL  CA  SOPE
    OPENMO        LCASOPE  NMOL        C  ASO   P      ENMOLC     AS
    OPE     NMO      LCA  SO     P     E   NM   OL  CA SO  PE N   MO
          OPENMOLCA            SOPE   NMO        LCAS  O    P  ENMO
     OPENMOLCASOPENMOLCASOPENMOLCASOPENMOLCA
        OPENMOLCASOPENMOLCASOPENMOLCASOPE
            OPENMOLCASOPENMOLCASOPENM
               OPENMOLCASOPENMOLCA        version: 24.02
                   OPENMOLCASO
                       OPE                tag: 126-g611b04c8f

 OpenMolcas is free software; you can redistribute it and/or modify it
 under the terms of the GNU Lesser General Public License version 2.1.
 OpenMolcas is distributed in the hope that it will be useful, but it
 is provided "as is" and without any express or implied warranties.
 For more details see the full text of the license in the file
 LICENSE or in <http://www.gnu.org/licenses/>.

                 Copyright (C) The OpenMolcas Authors
           For the author list and the recommended citation,
                   consult the file CONTRIBUTORS.md

           *************************************************
           * pymolcas version py2.28                       *
           *   build c4a6d18ded8cb6cad61d2372a9abd97c      *
           *   (after the EMIL interpreter by V. Veryazov) *
           *************************************************

configuration info
------------------
Host name: debian (Linux)
C Compiler ID: GNU
C flags: -std=gnu99
Fortran Compiler ID: Intel
Fortran flags: -fpp -i8 -heap-arrays
Definitions: _MOLCAS_;_I8_;_LINUX_
Parallel: OFF (GA=OFF)


   ------------------------------------------------------------------
  |
  |              Project: 0.80
  |       Submitted from: /home/grierjones/DDCASPT2/delta_ML/LiO/0.80
  |         Scratch area: /tmp/0.80
  |      Save outputs to: /home/grierjones/DDCASPT2/delta_ML/LiO/0.80
  |               Molcas: /usr/local
  |
  | Scratch area is empty
  |
  |       MOLCAS_DRIVER = /usr/local/pymolcas
  | MOLCAS_KEEP_WORKDIR = NO
  |  MOLCAS_NEW_WORKDIR = YES
  |       MOLCAS_NPROCS = 1
  |       MOLCAS_SOURCE = /usr/local
  |    MOLCAS_STRUCTURE = 0
  |
   ------------------------------------------------------------------

++ ---------   Input file   ---------

&GATEWAY
coord=0.80.xyz
Basis = ANO-RCC-MB
Group = nosymm
End of Input

&SEWARD
End of Input

&SCF
UHF

&MBPT2
Frozen
0

&RASSCF
Title= RASSCF
FileOrb
/home/grierjones/DDCASPT2/delta_ML/LiO/0.70/0.70.RasOrb

NACTEL
1 0 0
Inactive
5
RAS2
2
Symmetry
1
Spin
2
orblisting
all
ITERation
200 100
CIMX
200
SDAV
500

&CASPT2
Imaginary Shift
0.0
Frozen
0

-- ----------------------------------

--- Start Module: gateway at Thu Apr 25 14:03:46 2024 ---
 
()()()()()()()()()()()()()()()()()()()()()()()()()()()()()()()()()()()()()()()()()()()()()()()()()()

                                              &GATEWAY

                                   only a single process is used
                       available to each process: 2.0 GB of memory, 1 thread?
                                            pid: 114961
()()()()()()()()()()()()()()()()()()()()()()()()()()()()()()()()()()()()()()()()()()()()()()()()()()
 
 
++    Symmetry information:
      ---------------------
 
                    Character Table for C1 
 
                             E  
                    a        1  x, y, xy, Rz, z, xz, Ry, yz, Rx, I
--
 
 
++    Basis set information:
      ----------------------
 
 
      Basis set label: LI.ANO-RCC...2S1P.
 
      Electronic valence basis set:
      ------------------
      Associated Effective Charge   3.000000 au
      Associated Actual Charge      3.000000 au
      Nuclear Model: Point charge
 
      Shell  nPrim  nBasis  Cartesian Spherical Contaminant
         s      14       2        X                  
         p       9       1        X                  
 
 
      Basis set label: O.ANO-RCC...2S1P.
 
      Electronic valence basis set:
      ------------------
      Associated Effective Charge   8.000000 au
      Associated Actual Charge      8.000000 au
      Nuclear Model: Point charge
 
      Shell  nPrim  nBasis  Cartesian Spherical Contaminant
         s      14       2        X                  
         p       9       1        X                  
--
 
 
++    Molecular structure info:
      -------------------------
 
                    ************************************************ 
                    **** Cartesian Coordinates / Bohr, Angstrom **** 
                    ************************************************ 
 
     Center  Label                x              y              z                     x              y              z
        1      LI1              0.000000       0.000000       0.000000              0.000000       0.000000       0.000000
        2      O2               0.000000       0.000000       1.511781              0.000000       0.000000       0.800000
--
 
 
            Nuclear Potential Energy             15.87531633 au
 
--- Stop Module: gateway at Thu Apr 25 14:03:47 2024 /rc=_RC_ALL_IS_WELL_ ---
*** files: xmldump
    saved to directory /home/grierjones/DDCASPT2/delta_ML/LiO/0.80

--- Start Module: seward at Thu Apr 25 14:03:47 2024 ---
 
()()()()()()()()()()()()()()()()()()()()()()()()()()()()()()()()()()()()()()()()()()()()()()()()()()

                                              &SEWARD

                                   only a single process is used
                       available to each process: 2.0 GB of memory, 1 thread?
                                            pid: 114964
()()()()()()()()()()()()()()()()()()()()()()()()()()()()()()()()()()()()()()()()()()()()()()()()()()
 
               SEWARD will generate:
                  Multipole Moment integrals up to order  2
                  Kinetic Energy integrals
                  Nuclear Attraction integrals (point charge)
                  One-Electron Hamiltonian integrals
                  Velocity integrals
                  Relativistic Douglas-Kroll-Hess integrals:
                    - Parametrization         : EXP
                    - DKH order of Hamiltonian: 2
                    - DKH order of Properties : 0
                         - multipole moment operators
                         - electric potential operators
                         - contact operators
                  Orbital angular momentum around ( 0.0000  0.0000  1.0508 )
                  Velocity quadrupole around ( 0.0000  0.0000  1.0508 )
                  Atomic mean-field integrals
                  Two-Electron Repulsion integrals
 
                   Integrals are discarded if absolute value <: 1.00E-14
                   Integral cutoff threshold is set to       <: 1.00E-16
 
            Nuclear Potential Energy             15.87531633 au
 
 
      Basis set specifications :
      Symmetry species         a  
      Basis functions           10
 
 
      Input file to MOLDEN was generated!
 
--- Stop Module: seward at Thu Apr 25 14:03:47 2024 /rc=_RC_ALL_IS_WELL_ ---
*** files: 0.80.GssOrb 0.80.guessorb.h5 0.80.guessorb.molden xmldump
    saved to directory /home/grierjones/DDCASPT2/delta_ML/LiO/0.80

*** symbolic link created: INPORB -> 0.80.GssOrb
--- Start Module: scf at Thu Apr 25 14:03:47 2024 ---
 
()()()()()()()()()()()()()()()()()()()()()()()()()()()()()()()()()()()()()()()()()()()()()()()()()()

                                                &SCF

                                   only a single process is used
                       available to each process: 2.0 GB of memory, 1 thread?
                                            pid: 114968
()()()()()()()()()()()()()()()()()()()()()()()()()()()()()()()()()()()()()()()()()()()()()()()()()()
 
++    Input section:
      --------------
 
      Header of the integral files:
      
       Integrals generated by Gateway/Seward, Thu Apr 25 14:03:47 2024
 
 
      Cartesian coordinates in Angstrom:
      -----------------------------------------------------
      No.  Label        X            Y            Z        
      -----------------------------------------------------
       1   LI1        0.00000000   0.00000000   0.00000000
       2   O2         0.00000000   0.00000000   0.80000000
      -----------------------------------------------------
      Nuclear repulsion energy =   15.87531633
--
 
++    Orbital specifications:
      -----------------------
 
      Symmetry species               1
                                     a
      Frozen orbitals                0
      Occupied orbitals alpha        6
      Occupied orbitals beta         5
      Secondary orbitals alpha       4
      Secondary orbitals beta        5
      Deleted orbitals               0
      Total number of orbitals      10
      Number of basis functions     10
--
 
      Molecular charge                           0.000
 
++    Optimization specifications:
      ----------------------------
 
      SCF Algorithm: Conventional USCF
      D(i)-D(i-1) density differences are used
      Number of density matrices in core                 5
      Maximum number of NDDO SCF iterations            400
      Maximum number of HF SCF iterations              400
      Threshold for SCF energy change             1.00E-09
      Threshold for density matrix                1.00E-04
      Threshold for Fock matrix                   1.50E-04
      Threshold for linear dependence             1.00E-09
      Threshold at which DIIS is turned on        1.50E-01
      Maximum depth in the DIIS procedure                5
      Maximum depth in the BFGS Hessian update          30
      Threshold at which QNR/C2DIIS is turned on  7.50E-02
      Threshold for Norm(delta) (QNR/C2DIIS)      1.00E-03
      All orbitals punched on: UHFORB
--
 
      Input vectors read from INPORB
      Orbital file label: *Guess orbitals
 
 
++ Convergence information
                               UHF SCF        iterations: Energy and convergence statistics
 
Iter     Tot. SCF        One-elec.       Two-elec.     Energy      Max Dij or  Max Fij      DNorm      TNorm      AccCon     Time
         Energy          Energy          Energy        Change      Delta Norm                                                in Sec.
   1   -81.179624976  -143.945714691    46.890773388   0.00E+00    2.08E-01*   1.19E-01*    5.59E+00   2.31E+01   None         0.
   2   -81.232484445  -143.083920748    45.976119976  -5.29E-02*   1.85E-01*   3.71E-02*    8.09E-01   2.29E+01   EDIIS        0.
   3   -81.239221838  -143.345041305    46.230503140  -6.74E-03*   1.54E-01*   2.05E-02*    4.18E-01   2.29E+01   EDIIS        0.
   4   -81.242680074  -143.287888392    46.169891991  -3.46E-03*   1.25E-01*   1.76E-02*    3.18E-01   2.29E+01   EDIIS        0.
   5   -81.244782547  -143.259455866    46.139356992  -2.10E-03*   2.71E-02*   6.75E-02*    2.51E-01   2.29E+01   c2DIIS       0.
   6   -81.248952663  -142.894267541    45.769998551  -4.17E-03*   5.84E-02*   9.77E-03*    2.54E-01   2.28E+01   QNRc2DIIS    0.
   7   -81.249637139  -143.007374567    45.882421101  -6.84E-04*   1.11E-01*   7.29E-03*    1.03E-01   2.28E+01   QNRc2DIIS    0.
   8   -81.250493471  -142.952362568    45.826552769  -8.56E-04*   3.77E-01*   9.05E-03*    2.07E-01   2.28E+01   QNRc2DIIS    0.
 DIIS_X: Resetting BFGS depth!
         Too large B matrix values.
 DIIS_X: Resetting kOptim!
         Caused by energies and gradients which are inconsistent with a convex e
 nergy functional.
 kOptim=                     4 -> kOptim=                     1
   9   -81.252623166  -142.644606525    45.516667032  -2.13E-03*   1.73E-01*   2.01E-02*    6.78E-01   2.28E+01   QNRc2DIIS    0.
  10   -81.255583004  -142.102428938    44.971529607  -2.96E-03*   1.95E-01*   1.10E-02*    3.05E-01   2.26E+01   QNRc2DIIS    0.
 DIIS_X: Resetting BFGS depth!
         Too large B matrix values.
 DIIS_X: Resetting kOptim!
         Caused by energies and gradients which are inconsistent with a convex e
 nergy functional.
 kOptim=                     3 -> kOptim=                     1
  11   -81.258471147  -141.705296419    44.571508945  -2.89E-03*   1.14E-01*   1.65E-02*    3.56E-01   2.25E+01   QNRc2DIIS    0.
  12   -81.261409446  -141.697394942    44.560669170  -2.94E-03*   1.11E+00*   1.95E-02*    1.97E-01   2.25E+01   QNRc2DIIS    0.
  13   -81.272343908  -140.343530820    43.195870585  -1.09E-02*   7.75E-01*   5.65E-02*    2.02E+00   2.22E+01   QNRc2DIIS    0.
  14   -81.269911729  -140.915526523    43.770298467   2.43E-03*   9.77E-01*   2.04E-02*    1.44E+00   2.23E+01   QNRc2DIIS    0.
  15   -81.251917203  -142.653747788    45.526514258   1.80E-02*   4.89E-01*   8.15E-03*    1.66E+00   2.28E+01   QNRc2DIIS    0.
 DIIS_X: Resetting BFGS depth!
         Too large B matrix values.
  16   -81.247385889  -143.012561621    45.889859405   4.53E-03*   7.04E-01*   9.21E-03*    8.89E-01   2.28E+01   QNRc2DIIS    0.
 DIIS_X: Resetting BFGS depth!
         Too large B matrix values.
 DIIS_X: Resetting kOptim!
         Caused by energies and gradients which are inconsistent with a convex e
 nergy functional.
 kOptim=                     5 -> kOptim=                     1
  17   -81.254074183  -142.279938273    45.150547762  -6.69E-03*   8.14E-02*   8.79E-03*    1.25E+00   2.27E+01   QNRc2DIIS    0.
  18   -81.255423713  -142.271962018    45.141221979  -1.35E-03*   1.10E+00*   1.34E-02*    1.40E-01   2.27E+01   QNRc2DIIS    0.
  19   -81.272080090  -140.789262218    43.641865801  -1.67E-02*   1.30E+00*   3.82E-02*    1.92E+00   2.23E+01   QNRc2DIIS    0.
 DIIS_X: Resetting BFGS depth!
         Too large B matrix values.
 DIIS_X: Resetting kOptim!
         Caused by energies and gradients which are inconsistent with a convex e
 nergy functional.
 kOptim=                     4 -> kOptim=                     1
  20   -81.272117937  -139.818143076    42.670708813  -3.78E-05*   2.56E-01*   3.67E-02*    2.48E+00   2.21E+01   QNRc2DIIS    0.
  21   -81.284019477  -139.442959318    42.283623513  -1.19E-02*   2.24E-01*   2.29E-02*    4.81E-01   2.20E+01   QNRc2DIIS    0.
  22   -81.287719816  -139.393236882    42.230200739  -3.70E-03*   2.51E-01*   1.16E-02*    4.47E-01   2.20E+01   QNRc2DIIS    0.
  23   -81.289002322  -139.604203733    42.439885084  -1.28E-03*   6.00E-02*   2.67E-03*    5.18E-01   2.20E+01   QNRc2DIIS    0.
  24   -81.289052388  -139.529477112    42.365108397  -5.01E-05*   3.99E-02*   1.32E-03*    1.23E-01   2.20E+01   QNRc2DIIS    0.
  25   -81.289065579  -139.574048823    42.409666916  -1.32E-05*   1.68E-02*   9.09E-04*    8.41E-02   2.20E+01   QNRc2DIIS    0.
  26   -81.289074094  -139.554711033    42.390320611  -8.52E-06*   1.19E-03*   1.13E-04     3.50E-02   2.20E+01   QNRc2DIIS    0.
  27   -81.289074166  -139.555926466    42.391535973  -7.15E-08*   1.69E-04    2.05E-05     2.71E-03   2.20E+01   QNRc2DIIS    0.
  28   -81.289074168  -139.555805716    42.391415221  -1.98E-09*   6.43E-06    3.13E-06     2.93E-04   2.20E+01   QNRc2DIIS    0.
 DIIS_X: Reduction of the subspace dimension due to numerical imbalance of the v
 alues in the B-Matrix
 kOptim=                     5 -> kOptim=                     4
  29   -81.289074168  -139.555814732    42.391424237  -7.47E-12    1.33E-06    2.05E-07     1.27E-05   2.20E+01   QNRc2DIIS    0.
 
       Convergence after  29 Macro Iterations
--
 
 *****************************************************************************************************************************
 *                                                                                                                           *
 *                                             SCF/KS-DFT Program, Final results                                             *
 *                                                                                                                           *
 *                                                                                                                           *
 *                                                                                                                           *
 *                                                       Final Results                                                       *
 *                                                                                                                           *
 *****************************************************************************************************************************
 
::    Total SCF energy                                -81.2890741677
      One-electron energy                            -139.5558147322
      Two-electron energy                              42.3914242374
      Nuclear repulsion energy                         15.8753163271
      Kinetic energy (interpolated)                    83.3881782113
      Virial theorem                                    0.9748273186
      Total spin, S(S+1)                                0.7501823638
      Total spin, S                                     0.5000911778
      Max non-diagonal density matrix element           0.0000011765
      Max non-diagonal Fock matrix element              0.0000001384
 
 
      All orbitals with orbital energies smaller than  E(LUMO)+0.5 are printed
 
++    Molecular orbitals:
      -------------------
 
      Title: UHF orbitals (alpha)

      Molecular orbitals for symmetry species 1: a  
 
          Orbital            1         2         3         4         5         6         7         8         9        10    
          Energy          -21.0094   -3.1761   -1.3465   -0.8770   -0.8770   -0.2175    0.0705    0.0705    0.1094    0.1409
          Occ. No.          1.0000    1.0000    1.0000    1.0000    1.0000    1.0000    0.0000    0.0000    0.0000    0.0000
 
        1 LI1    1s        -0.0011    0.8949   -0.4390    0.0000   -0.0000    0.1778   -0.0000   -0.0000   -0.5466   -0.4278
        2 LI1    2s        -0.0007   -0.0249   -0.0425    0.0000   -0.0000    0.9152   -0.0000   -0.0000   -0.4324    0.4240
        3 LI1    2px       -0.0000   -0.0000    0.0000    0.0005   -0.0335    0.0000   -0.0112   -1.0756    0.0000    0.0000
        4 LI1    2py       -0.0000   -0.0000   -0.0000   -0.0335   -0.0005    0.0000    1.0756   -0.0112   -0.0000   -0.0000
        5 LI1    2pz        0.0003    0.0153    0.0063    0.0000   -0.0000   -0.4570   -0.0000   -0.0000   -0.7776    0.6609
        6 O2     1s         1.0000   -0.0342    0.0177   -0.0000    0.0000   -0.0127    0.0000    0.0000    0.0802   -0.0398
        7 O2     2s         0.0008    0.1445    1.0558   -0.0000    0.0000   -0.1823    0.0000    0.0000    0.6294   -0.2042
        8 O2     2px       -0.0000   -0.0000   -0.0000   -0.0150    1.0118   -0.0000    0.0038    0.3664   -0.0000   -0.0000
        9 O2     2py       -0.0000   -0.0000    0.0000    1.0118    0.0150   -0.0000   -0.3664    0.0038    0.0000   -0.0000
       10 O2     2pz       -0.0028   -0.1011    0.0830    0.0000   -0.0000    0.1954   -0.0000   -0.0000   -0.6020   -0.9646
--
 
 
      Input file to MOLDEN was generated!
 
 
++    Static properties:
      ------------------
 
 
      LoProp Charges per center
 

                   LI1      O2    
      Nuclear      3.0000   8.0000
      Electronic  -2.7896  -8.2104
 
      Total        0.2104  -0.2104
--
 
 
      All orbitals with orbital energies smaller than  E(LUMO)+0.5 are printed
 
++    Molecular orbitals:
      -------------------
 
      Title: UHF orbitals (beta)

      Molecular orbitals for symmetry species 1: a  
 
          Orbital            1         2         3         4         5         6         7         8         9        10    
          Energy          -21.0068   -3.1700   -1.3432   -0.8748   -0.8748    0.0344    0.1075    0.1075    0.1369    0.1529
          Occ. No.          1.0000    1.0000    1.0000    1.0000    1.0000    0.0000    0.0000    0.0000    0.0000    0.0000
 
        1 LI1    1s        -0.0011    0.8975   -0.4311   -0.0000    0.0000   -0.2284    0.0000   -0.0000    0.4936    0.4689
        2 LI1    2s        -0.0006   -0.0257   -0.0387    0.0000    0.0000   -0.9972    0.0000   -0.0000    0.3078   -0.3397
        3 LI1    2px       -0.0000   -0.0000    0.0000   -0.0042   -0.0408   -0.0000    0.0136   -1.0753   -0.0000   -0.0000
        4 LI1    2py       -0.0000   -0.0000    0.0000   -0.0408    0.0042   -0.0000   -1.0753   -0.0136    0.0000   -0.0000
        5 LI1    2pz        0.0003    0.0166    0.0016    0.0000   -0.0000    0.2889    0.0000   -0.0000    0.8652   -0.6468
        6 O2     1s         1.0000   -0.0343    0.0176   -0.0000    0.0000    0.0274   -0.0000    0.0000   -0.0790    0.0344
        7 O2     2s         0.0008    0.1418    1.0540    0.0000   -0.0000    0.2931   -0.0000    0.0000   -0.6061    0.1492
        8 O2     2px       -0.0000    0.0000    0.0000    0.1039    1.0091    0.0000   -0.0045    0.3592    0.0000    0.0000
        9 O2     2py       -0.0000   -0.0000   -0.0000    1.0091   -0.1039   -0.0000    0.3592    0.0045   -0.0000    0.0000
       10 O2     2pz       -0.0028   -0.0983    0.0936   -0.0000    0.0000   -0.2112    0.0000   -0.0000    0.5236    1.0054
--
 
 
++    Molecular charges:
      ------------------
 
      Mulliken charges per centre and basis function type
      ---------------------------------------------------
 
                            LI1                     O2    
                     alpha        beta       alpha        beta
      1s           0.9377      0.9338      1.0001      1.0001
      2s           0.7658     -0.0137      0.9972      1.0034
      2px         -0.0114     -0.0137      1.0114      1.0137
      2pz          0.2209      0.0013      0.0784      0.0752
      2py         -0.0114     -0.0137      1.0114      1.0137
      Total        1.9016      0.8939      4.0984      4.1061
      Total              2.7955                  8.2045
 
      Charge            0.2045                 -0.2045
 
      Total electronic charge=   11.000000
 
      Total            charge=   -0.000000
--
 
 
      Input file to MOLDEN was generated!
 
 
++    Static properties:
      ------------------
 
 
      LoProp Charges per center
 

                   LI1      O2    
      Nuclear      3.0000   8.0000
      Electronic  -2.7896  -8.2104
 
      Total        0.2104  -0.2104
--
 
 
++    Natural Bond Order analysis
      ---------------------------
      Based on LoProp computed density
      -------------------------------------------------------------------------------------
      Atom A       Atom B       Bond Order
      -------------------------------------------------------------------------------------
      NBO located      0.998 non-bonded electrons on atom O2        
      NBO located      0.999 non-bonded electrons on atom O2        
      NBO located      0.999 non-bonded electrons on atom O2        
      The remaining    2.226 electrons are to be considered as diffuse
--
 
 
++    Molecular orbitals:
      -------------------
 
      Title: Natural orbitals

      Molecular orbitals for symmetry species 1: a  
 
          Orbital            1         2         3         4         5         6         7         8         9        10    
          Energy          -21.0080   -2.9925   -0.8759   -0.8759   -1.5254   -0.0902    0.1416    0.0890    0.0890    0.1270
          Occ. No.          2.0000    2.0000    2.0000    2.0000    2.0000    1.0000    0.0000    0.0000    0.0000    0.0000
 
        1 LI1    1s         0.0003   -0.9872    0.0000   -0.0000   -0.1309    0.1812    0.6405   -0.0000    0.0000    0.2686
        2 LI1    2s        -0.0006    0.0127   -0.0000   -0.0000   -0.0441    0.9153   -0.1593    0.0000    0.0000    0.5843
        3 LI1    2px        0.0000   -0.0000    0.0006   -0.0372    0.0000    0.0000   -0.0000   -0.0112    1.0755   -0.0000
        4 LI1    2py        0.0000   -0.0000   -0.0372   -0.0006    0.0000    0.0000    0.0000    1.0755    0.0112   -0.0000
        5 LI1    2pz        0.0003   -0.0146    0.0000    0.0000    0.0076   -0.4572   -0.1991    0.0000    0.0000    1.0008
        6 O2     1s         1.0000    0.0392    0.0000    0.0000    0.0081   -0.0129   -0.0044    0.0000   -0.0000   -0.0894
        7 O2     2s        -0.0016    0.1953    0.0000    0.0000    1.0460   -0.1880   -0.1327    0.0000   -0.0000   -0.6492
        8 O2     2px       -0.0000    0.0000   -0.0150    1.0130   -0.0000   -0.0000    0.0000    0.0038   -0.3628    0.0000
        9 O2     2py       -0.0000    0.0000    1.0130    0.0150   -0.0000   -0.0000   -0.0000   -0.3628   -0.0038    0.0000
       10 O2     2pz       -0.0030    0.1227   -0.0000    0.0000    0.0530    0.1943    1.1354   -0.0000    0.0000    0.0565
--
 
 
++    Molecular properties:
      ---------------------
 
      Charge (e):
                      =   -0.0000
      Dipole Moment (Debye):
      Origin of the operator (Ang)=    0.0000    0.0000    0.0000
                   X= -3.3644E-13               Y= -3.9979E-13               Z=  3.6405E+00           Total=  3.6405E+00
      Quadrupole Moment (Debye*Ang):
      Origin of the operator (Ang)=    0.0000    0.0000    0.5561
                  XX= -1.3856E+01              XY= -1.3288E-14              XZ=  3.8331E-13              YY= -1.3856E+01
                  YZ=  3.6297E-13              ZZ= -2.0480E+01
      In traceless form (Debye*Ang)
                  XX=  3.3118E+00              XY= -1.9932E-14              XZ=  5.7497E-13              YY=  3.3118E+00
                  YZ=  5.4445E-13              ZZ= -6.6237E+00
--
 
 
      Input file to MOLDEN was generated!
 
 ###############################################################################
 ###############################################################################
 ###                                                                         ###
 ###                                                                         ###
 ###    WARNING: RunFile label nBas                                          ###
 ###    was used       87 times                                              ###
 ###                                                                         ###
 ###                                                                         ###
 ###############################################################################
 ###############################################################################
--- Stop Module: scf at Thu Apr 25 14:03:48 2024 /rc=_RC_ALL_IS_WELL_ ---
*** files: 0.80.LprOrb 0.80.LoProp.molden 0.80.scf.molden 0.80.scf.h5 0.80.UhfOrb 0.80.UnaOrb xmldump
    saved to directory /home/grierjones/DDCASPT2/delta_ML/LiO/0.80

*** symbolic link created: INPORB -> 0.80.UnaOrb
--- Start Module: mbpt2 at Thu Apr 25 14:03:48 2024 ---
 
()()()()()()()()()()()()()()()()()()()()()()()()()()()()()()()()()()()()()()()()()()()()()()()()()()

                                               &MBPT2

                                   only a single process is used
                       available to each process: 2.0 GB of memory, 1 thread?
                                            pid: 114973
()()()()()()()()()()()()()()()()()()()()()()()()()()()()()()()()()()()()()()()()()()()()()()()()()()
 
 
 ###############################################################################
 ###############################################################################
 ###                                                                         ###
 ###                                                                         ###
 ###    WARNING: MP2 implementation intended for RHF references only         ###
 ###                                                                         ###
 ###                                                                         ###
 ###############################################################################
 ###############################################################################
MBPT2 WARNING: Reference function according to RunFile:UHF-SCF 
I'll assume you know what you're doing and continue
 
 
WARNING!
Default frozen orbitals as non valence orbitals is overwritten by user input.
Default values:   2
 
 
      Cartesian coordinates in Angstrom:
      -----------------------------------------------------
      No.  Label        X            Y            Z        
      -----------------------------------------------------
       1   LI1        0.00000000   0.00000000   0.00000000
       2   O2         0.00000000   0.00000000   0.80000000
      -----------------------------------------------------
      Nuclear repulsion energy =   15.87531633
 
      Contents of RUNFILE file:
      -------------------------
 
      Symmetry species                           1
                                                 a
      Number of basis functions                 10
      Frozen occupied orbitals                   0
      Active occupied orbitals                   6
      Active external orbitals                   4
      Deleted external orbitals                  0
 
 
      Energies of the active occupied orbitals
 
      symmetry species 1                   -21.009436     -3.176061     -1.346477     -0.876956     -0.876956
                                            -0.217543
 
 
      Energies of the active external orbitals
 
      symmetry species 1                     0.070536      0.070536      0.109401      0.140895
 
 
      ********************************************************************************************************
      *                                               Results                                                *
      ********************************************************************************************************
 
 Conventional algorithm used...

       SCF energy                           =      -81.2890741677 a.u.
       Second-order correlation energy      =       -0.0241625204 a.u.

       Total energy                         =      -81.3132366881 a.u.
       Reference weight ( Cref**2 )         =        0.98331
 
::    Total MBPT2 energy                              -81.3132366881
 
 
       Zeroth-order energy (E0)             =      -39.1315422321 a.u.
 
       Shanks-type energy S1(E)             =      -81.3132505448 a.u.
 
 


       Data processing and timing information:

       Section                                              time(sec)
                                                          CPU  Elapsed

      Input data processing                              0.02      0.03
      Transformation of integrals                        0.00      0.01
      MBPT2 calculations (BJAI)                          0.00      0.00
      Total MBPT2 calculations                           0.02      0.04
 
 
--- Stop Module: mbpt2 at Thu Apr 25 14:03:48 2024 /rc=_RC_ALL_IS_WELL_ ---
*** files: xmldump
    saved to directory /home/grierjones/DDCASPT2/delta_ML/LiO/0.80

*** symbolic link created: INPORB -> 0.80.UnaOrb
--- Start Module: rasscf at Thu Apr 25 14:03:48 2024 ---
 
()()()()()()()()()()()()()()()()()()()()()()()()()()()()()()()()()()()()()()()()()()()()()()()()()()

                                              &RASSCF

                                   only a single process is used
                       available to each process: 2.0 GB of memory, 1 thread?
                                            pid: 114976
()()()()()()()()()()()()()()()()()()()()()()()()()()()()()()()()()()()()()()()()()()()()()()()()()()
 
 
      Header of the ONEINT file:
      --------------------------
      
      Integrals generated by Gateway/Seward, Thu Apr 25 14:03:47 2024
 
 
      OrdInt status: non-squared
 
 
      Cartesian coordinates in Angstrom:
      -----------------------------------------------------
      No.  Label        X            Y            Z        
      -----------------------------------------------------
       1   LI1        0.00000000   0.00000000   0.00000000
       2   O2         0.00000000   0.00000000   0.80000000
      -----------------------------------------------------
      Nuclear repulsion energy =   15.87531633
 
++    Wave function specifications:
      -----------------------------
 
      Number of closed shell electrons          10
      Number of electrons in active shells       1
      Max number of holes in RAS1 space          0
      Max nr of electrons in RAS3 space          0
      Number of inactive orbitals                5
      Number of active orbitals                  2
      Number of secondary orbitals               3
      Spin quantum number                      0.5
      State symmetry                             1
--
 
++    Orbital specifications:
      -----------------------
 
      Symmetry species                           1
                                                 a
      Frozen orbitals                            0
      Inactive orbitals                          5
      Active orbitals                            2
      RAS1 orbitals                              0
      RAS2 orbitals                              2
      RAS3 orbitals                              0
      Secondary orbitals                         3
      Deleted orbitals                           0
      Number of basis functions                 10
--
 
++    CI expansion specifications:
      ----------------------------
 
      Number of CSFs                             2
      Number of determinants                     2
      Number of root(s) required                 1
      Root chosen for geometry opt.              1
      CI root used                               1
         
      highest root included in the CI            1
      max. size of the explicit Hamiltonian      2
--
 
++    Optimization specifications:
      ----------------------------
 
      RASSCF algorithm: Conventional
      Maximum number of macro iterations       200
      Maximum number of SX iterations          100
      Threshold for RASSCF energy            1.000E-08
      Threshold for max MO rotation          1.000E-01
      Threshold for max BLB element          1.000E-04
      Level shift parameter                  5.000E-01
      Make Quasi-Newton update
--
 
      The MO-coefficients are taken from the file:
      /home/grierjones/DDCASPT2/delta_ML/LiO/0.70/0.70.RasOrb                                                                                                                                                                                                         
      Title: RASSCF average (pseudo-natural) orbitals                                      
 
      Total molecular charge    0.00
 
      ************************************************************************************************************************
      *                                                                                                                      *
      *                                            Wave function control section                                             *
      *                                                                                                                      *
      ************************************************************************************************************************
 
 
                                         RASSCF iterations: Energy and convergence statistics
                                         ----------------------------------------------------
 
      Iter CI   SX   CI       RASSCF       Energy    max ROT     max BLB   max BLB  Level Ln srch  Step   QN   Walltime
          iter iter root      energy       change     param      element    value   shift minimum  type update hh:mm:ss
 Nr of preliminary CI iterations:   1
 ###############################################################################
 ###############################################################################
 ###                                                                         ###
 ###                                                                         ###
 ###    WARNING: Problems in orbital optimization.                           ###
 ###                                                                         ###
 ###                                                                         ###
 ###############################################################################
 ###############################################################################
  Warning: In symmetry  1, orbital p=   7 has diagonal density matrix element D(p,p) close to zero. D(p,p)=  1.269366E-27
        1   1    5    1   -81.27289671    0.00E+00  -4.26E-02    3  10 1  1.68E-01*  0.50   0.00    SX    NO    0:00:00
 ###############################################################################
 ###############################################################################
 ###                                                                         ###
 ###                                                                         ###
 ###    WARNING: Problems in orbital optimization.                           ###
 ###                                                                         ###
 ###                                                                         ###
 ###############################################################################
 ###############################################################################
  Warning: In symmetry  1, orbital p=   7 has diagonal density matrix element D(p,p) close to zero. D(p,p)=  1.257935E-27
        2   1    4    1   -81.28511683   -1.22E-02* -1.77E-02    3  10 1  6.99E-02*  0.50   0.00    SX    NO    0:00:00
 ###############################################################################
 ###############################################################################
 ###                                                                         ###
 ###                                                                         ###
 ###    WARNING: Problems in orbital optimization.                           ###
 ###                                                                         ###
 ###                                                                         ###
 ###############################################################################
 ###############################################################################
  Warning: In symmetry  1, orbital p=   7 has diagonal density matrix element D(p,p) close to zero. D(p,p)=  1.281438E-27
        3   1    4    1   -81.28742255   -2.31E-03*  1.49E-02    3  10 1  2.93E-02*  0.50   0.00    SX    NO    0:00:00
 ###############################################################################
 ###############################################################################
 ###                                                                         ###
 ###                                                                         ###
 ###    WARNING: Problems in orbital optimization.                           ###
 ###                                                                         ###
 ###                                                                         ###
 ###############################################################################
 ###############################################################################
  Warning: In symmetry  1, orbital p=   7 has diagonal density matrix element D(p,p) close to zero. D(p,p)=  1.310554E-27
        4   1    4    1   -81.28807751   -6.55E-04*  1.28E-02    3  10 1  1.24E-02*  0.50   0.00    SX    NO    0:00:00
 ###############################################################################
 ###############################################################################
 ###                                                                         ###
 ###                                                                         ###
 ###    WARNING: Problems in orbital optimization.                           ###
 ###                                                                         ###
 ###                                                                         ###
 ###############################################################################
 ###############################################################################
  Warning: In symmetry  1, orbital p=   7 has diagonal density matrix element D(p,p) close to zero. D(p,p)=  1.337511E-27
        5   1    4    1   -81.28837612   -2.99E-04*  1.84E-02    6  10 1  7.83E-03*  0.50   2.50    LS   YES    0:00:00
 ###############################################################################
 ###############################################################################
 ###                                                                         ###
 ###                                                                         ###
 ###    WARNING: Problems in orbital optimization.                           ###
 ###                                                                         ###
 ###                                                                         ###
 ###############################################################################
 ###############################################################################
  Warning: In symmetry  1, orbital p=   7 has diagonal density matrix element D(p,p) close to zero. D(p,p)=  1.376950E-27
        6   1    4    1   -81.28865549   -2.79E-04*  1.91E-02    6  10 1  5.91E-03*  0.50   2.08    LS   YES    0:00:00
 ###############################################################################
 ###############################################################################
 ###                                                                         ###
 ###                                                                         ###
 ###    WARNING: Problems in orbital optimization.                           ###
 ###                                                                         ###
 ###                                                                         ###
 ###############################################################################
 ###############################################################################
  Warning: In symmetry  1, orbital p=   7 has diagonal density matrix element D(p,p) close to zero. D(p,p)=  1.418674E-27
        7   1    4    1   -81.28875841   -1.03E-04*  1.23E-02    3  10 1 -1.52E-02*  0.50   1.04    QN   YES    0:00:00
 ###############################################################################
 ###############################################################################
 ###                                                                         ###
 ###                                                                         ###
 ###    WARNING: Problems in orbital optimization.                           ###
 ###                                                                         ###
 ###                                                                         ###
 ###############################################################################
 ###############################################################################
  Warning: In symmetry  1, orbital p=   7 has diagonal density matrix element D(p,p) close to zero. D(p,p)=  1.445909E-27
        8   1    4    1   -81.28889676   -1.38E-04*  1.78E-02    3  10 1 -1.02E-02*  0.50   2.50    LS   YES    0:00:00
 ###############################################################################
 ###############################################################################
 ###                                                                         ###
 ###                                                                         ###
 ###    WARNING: Problems in orbital optimization.                           ###
 ###                                                                         ###
 ###                                                                         ###
 ###############################################################################
 ###############################################################################
  Warning: In symmetry  1, orbital p=   7 has diagonal density matrix element D(p,p) close to zero. D(p,p)=  1.486755E-27
        9   1    4    1   -81.28899458   -9.78E-05*  5.00E-03    3  10 1 -2.86E-03*  0.50   1.31    QN   YES    0:00:00
 ###############################################################################
 ###############################################################################
 ###                                                                         ###
 ###                                                                         ###
 ###    WARNING: Problems in orbital optimization.                           ###
 ###                                                                         ###
 ###                                                                         ###
 ###############################################################################
 ###############################################################################
  Warning: In symmetry  1, orbital p=   7 has diagonal density matrix element D(p,p) close to zero. D(p,p)=  1.490274E-27
       10   1    4    1   -81.28900507   -1.05E-05*  1.38E-03    6   9 1  8.12E-04*  0.50   1.23    QN   YES    0:00:00
 ###############################################################################
 ###############################################################################
 ###                                                                         ###
 ###                                                                         ###
 ###    WARNING: Problems in orbital optimization.                           ###
 ###                                                                         ###
 ###                                                                         ###
 ###############################################################################
 ###############################################################################
  Warning: In symmetry  1, orbital p=   7 has diagonal density matrix element D(p,p) close to zero. D(p,p)=  1.485105E-27
       11   1    3    1   -81.28900740   -2.33E-06*  1.44E-03    6   9 1  5.65E-04*  0.50   2.05    LS   YES    0:00:00
 ###############################################################################
 ###############################################################################
 ###                                                                         ###
 ###                                                                         ###
 ###    WARNING: Problems in orbital optimization.                           ###
 ###                                                                         ###
 ###                                                                         ###
 ###############################################################################
 ###############################################################################
  Warning: In symmetry  1, orbital p=   7 has diagonal density matrix element D(p,p) close to zero. D(p,p)=  1.479750E-27
       12   1    4    1   -81.28900822   -8.24E-07* -9.20E-04    3  10 1  8.93E-04*  0.50   1.00    QN   YES    0:00:00
 ###############################################################################
 ###############################################################################
 ###                                                                         ###
 ###                                                                         ###
 ###    WARNING: Problems in orbital optimization.                           ###
 ###                                                                         ###
 ###                                                                         ###
 ###############################################################################
 ###############################################################################
  Warning: In symmetry  1, orbital p=   7 has diagonal density matrix element D(p,p) close to zero. D(p,p)=  1.474835E-27
       13   1    3    1   -81.28900909   -8.73E-07* -6.97E-04    3  10 1  3.32E-04*  0.50   1.76    LS   YES    0:00:00
 ###############################################################################
 ###############################################################################
 ###                                                                         ###
 ###                                                                         ###
 ###    WARNING: Problems in orbital optimization.                           ###
 ###                                                                         ###
 ###                                                                         ###
 ###############################################################################
 ###############################################################################
  Warning: In symmetry  1, orbital p=   7 has diagonal density matrix element D(p,p) close to zero. D(p,p)=  1.471122E-27
       14   1    3    1   -81.28900929   -2.00E-07* -7.73E-05    5   8 1  1.67E-04*  0.50   1.00    QN   YES    0:00:00
 ###############################################################################
 ###############################################################################
 ###                                                                         ###
 ###                                                                         ###
 ###    WARNING: Problems in orbital optimization.                           ###
 ###                                                                         ###
 ###                                                                         ###
 ###############################################################################
 ###############################################################################
  Warning: In symmetry  1, orbital p=   7 has diagonal density matrix element D(p,p) close to zero. D(p,p)=  1.471024E-27
       15   1    3    1   -81.28900933   -3.41E-08* -4.83E-05    4   7 1  6.54E-05   0.50   1.57    QN   YES    0:00:00
 ###############################################################################
 ###############################################################################
 ###                                                                         ###
 ###                                                                         ###
 ###    WARNING: Problems in orbital optimization.                           ###
 ###                                                                         ###
 ###                                                                         ###
 ###############################################################################
 ###############################################################################
  Warning: In symmetry  1, orbital p=   7 has diagonal density matrix element D(p,p) close to zero. D(p,p)=  1.470954E-27
       16   1    2    1   -81.28900933   -5.88E-09   2.52E-06    2  10 1 -1.13E-05   0.50   1.03    QN   YES    0:00:00
      Convergence after 16 iterations
       17   1    2    1   -81.28900933   -7.63E-11   2.52E-06    3   9 1  3.93E-06   0.50   1.03    QN   YES    0:00:00
 
      ************************************************************************************************************************
                                                      Wave function printout:
                       occupation of active orbitals, and spin coupling of open shells (u,d: Spin up or down)
      ************************************************************************************************************************
 
      Note: transformation to natural orbitals
      has been made, which may change the order of the CSFs.
 
      printout of CI-coefficients larger than  0.05 for root  1
      energy=     -81.289009
      conf/sym  11     Coeff  Weight
             1  u0   1.00000 1.00000
 
      Natural orbitals and occupation numbers for root  1
      sym 1:   1.000000   0.000000
 
      ************************************************************************************************************************
      *                                                                                                                      *
      *                                                    Final results                                                     *
      *                                                                                                                      *
      ************************************************************************************************************************
 
 
++    Wave function specifications:
      -----------------------------
 
      Number of closed shell electrons          10
      Number of electrons in active shells       1
      Max number of holes in RAS1 space          0
      Max nr of electrons in RAS3 space          0
      Number of inactive orbitals                5
      Number of active orbitals                  2
      Number of secondary orbitals               3
      Spin quantum number                      0.5
      State symmetry                             1
--
 
++    Orbital specifications:
      -----------------------
 
      Symmetry species                           1
                                                 a
      Frozen orbitals                            0
      Inactive orbitals                          5
      Active orbitals                            2
      RAS1 orbitals                              0
      RAS2 orbitals                              2
      RAS3 orbitals                              0
      Secondary orbitals                         3
      Deleted orbitals                           0
      Number of basis functions                 10
--
 
++    CI expansion specifications:
      ----------------------------
 
      Number of CSFs                             2
      Number of determinants                     2
      Number of root(s) required                 1
      CI root used                               1
      highest root included in the CI            1
      Root passed to geometry opt.               1
--
 
++    Final optimization conditions:
      ------------------------------
 
      Average CI energy                             -81.28900933
      RASSCF energy for state  1                    -81.28900933
      Super-CI energy                                -0.00000000
      RASSCF energy change                           -0.00000000
      Max change in MO coefficients               2.381E-06
      Max non-diagonal density matrix element     2.522E-06
      Maximum BLB matrix element                  3.931E-06
      (orbital pair   3,   9 in symmetry   1)
      Norm of electronic gradient            5.172E-06
--
 
 
      Final state energy(ies):
      ------------------------
 
::    RASSCF root number  1 Total energy:    -81.28900933
 
++    Molecular orbitals:
      -------------------
 
      Pseudonatural active orbitals and approximate occupation numbers
 
 
 
 
      Molecular orbitals for symmetry species 1: a  
 
 
      Orbital                 1         2         3         4         5         6         7         8         9        10
      Energy           -21.0082   -3.1731   -1.3449   -0.8760   -0.8760   -0.0902   -0.0000    0.0890    0.1220    0.1466
      Occ. No.           2.0000    2.0000    2.0000    2.0000    2.0000    1.0000    0.0000    0.0000    0.0000    0.0000
 
     1 LI1    1s        -0.0011    0.8961   -0.4345   -0.0000    0.0000   -0.1807   -0.0000   -0.0000   -0.5292    0.4499
     2 LI1    2s        -0.0006   -0.0259   -0.0381   -0.0000   -0.0000   -0.9150   -0.0000   -0.0000   -0.4499   -0.4062
     3 LI1    2px       -0.0000   -0.0000    0.0000    0.0061   -0.0369   -0.0000    1.0642   -0.1559   -0.0000   -0.0000
     4 LI1    2py        0.0000    0.0000   -0.0000   -0.0369   -0.0061   -0.0000    0.1559    1.0642   -0.0000    0.0000
     5 LI1    2pz        0.0003    0.0163    0.0027   -0.0000   -0.0000    0.4578   -0.0000   -0.0000   -0.8025   -0.6299
     6 O2     1s         1.0000   -0.0343    0.0176    0.0000    0.0000    0.0128    0.0000    0.0000    0.0817    0.0365
     7 O2     2s         0.0008    0.1433    1.0544    0.0000    0.0000    0.1873    0.0000    0.0000    0.6392    0.1750
     8 O2     2px       -0.0000    0.0000    0.0000   -0.1665    0.9994    0.0000   -0.3589    0.0526    0.0000    0.0000
     9 O2     2py       -0.0000   -0.0000   -0.0000    0.9994    0.1665    0.0000   -0.0526   -0.3589    0.0000   -0.0000
    10 O2     2pz       -0.0028   -0.0998    0.0888    0.0000    0.0000   -0.1939    0.0000   -0.0000   -0.5637    0.9873
--
 
      Von Neumann Entropy (Root   1) =  0.50000
 

      Mulliken population analysis for root number:  1
      -----------------------------------------------
 
 
++    Molecular charges:
      ------------------
 
      Mulliken charges per centre and basis function type
      ---------------------------------------------------
 
                LI1     O2    
      1s       1.8714  2.0001
      2s       0.7514  2.0006
      2px     -0.0252  2.0252
      2pz      0.2229  0.1535
      2py     -0.0252  2.0252
      Total    2.7954  8.2046
 
      N-E      0.2046 -0.2046
 
      Total electronic charge=   11.000000
 
      Total            charge=    0.000000
--
 
 

      Expectation values of various properties for root number:  1
      -----------------------------------------------------------
 
 
++    Molecular properties:
      ---------------------
 
      Charge (e):
                      =    0.0000
      Dipole Moment (Debye):
      Origin of the operator (Ang)=    0.0000    0.0000    0.0000
                   X= -3.0313E-13               Y= -2.6273E-13               Z=  3.6479E+00           Total=  3.6479E+00
      Quadrupole Moment (Debye*Ang):
      Origin of the operator (Ang)=    0.0000    0.0000    0.5561
                  XX= -1.3855E+01              XY= -1.9376E-15              XZ=  4.3816E-13              YY= -1.3855E+01
                  YZ=  4.2735E-13              ZZ= -2.0496E+01
      In traceless form (Debye*Ang)
                  XX=  3.3208E+00              XY= -2.9064E-15              XZ=  6.5724E-13              YY=  3.3208E+00
                  YZ=  6.4103E-13              ZZ= -6.6417E+00
--
 

      Mulliken spin population analysis for root number:  1
      ---------------------------------------------------
 
 
++    Molecular charges:
      ------------------
 
      Mulliken spin population per centre and basis function type
      ---------------------------------------------------
 
                LI1     O2    
      1s       0.0053 -0.0000
      2s       0.7786 -0.0079
      2px      0.0000 -0.0000
      2pz      0.2194  0.0046
      2py      0.0000  0.0000
      Total    1.0033 -0.0033
 
      Total electronic spin=    1.000000
--
 
 

      LoProp population analysis for root number:  1
      -----------------------------------------------
 
 
++    LoProp analysis:
      ----------------
 
 
 
      Input file to MOLDEN was generated!
 
 
++    Static properties:
      ------------------
 
 
      LoProp Charges per center
 

                   LI1      O2    
      Nuclear      3.0000   8.0000
      Electronic  -2.7896  -8.2104
 
      Total        0.2104  -0.2104
--
 
 
      Natural Bond Order analysis for root number:  1
 
++    Natural Bond Order analysis
      ---------------------------
      Based on LoProp computed density
      -------------------------------------------------------------------------------------
      Atom A       Atom B       Bond Order
      -------------------------------------------------------------------------------------
      NBO located      0.998 non-bonded electrons on atom O2        
      NBO located      0.999 non-bonded electrons on atom O2        
      NBO located      0.999 non-bonded electrons on atom O2        
      The remaining    2.227 electrons are to be considered as diffuse
--
 
--
 
 
      Input file to MOLDEN was generated!
 
 
      Input file to MOLDEN was generated!
 
      Average orbitals are written to the RASORB file
      Natural orbitals for root   1 are written to the RASORB.1 file
      Spin density orbitals for root   1 are written to the SPDORB.1 file
 
--- Stop Module: rasscf at Thu Apr 25 14:03:49 2024 /rc=_RC_ALL_IS_WELL_ ---
*** files: 0.80.LprOrb 0.80.rasscf.molden 0.80.rasscf.molden.1 0.80.LoProp.molden 0.80.RasOrb.1 0.80.RasOrb 0.80.rasscf.h5 0.80.SpdOrb.1 xmldump
    saved to directory /home/grierjones/DDCASPT2/delta_ML/LiO/0.80

*** symbolic link created: INPORB -> 0.80.RasOrb
--- Start Module: caspt2 at Thu Apr 25 14:03:49 2024 ---
 
()()()()()()()()()()()()()()()()()()()()()()()()()()()()()()()()()()()()()()()()()()()()()()()()()()

                                              &CASPT2

                                   only a single process is used
                       available to each process: 2.0 GB of memory, 1 thread?
                                            pid: 114979
()()()()()()()()()()()()()()()()()()()()()()()()()()()()()()()()()()()()()()()()()()()()()()()()()()
 
 ###############################################################################
 ###############################################################################
 ###                                                                         ###
 ###                                                                         ###
 ###    WARNING: User changed nr of frozen orbitals.                         ###
 ###                                                                         ###
 ###                                                                         ###
 ###############################################################################
 ###############################################################################
 
++    Wave function specifications:
      -----------------------------
 
      Number of closed shell electrons          10
      Number of electrons in active shells       1
      Max number of holes in RAS1 space          0
      Max number of electrons in RAS3 space      0
      Number of inactive orbitals                5
      Number of active orbitals                  2
      Number of secondary orbitals               3
      Spin quantum number                      0.5
      State symmetry                             1
      Number of CSFs                             2
      Number of CASSCF root(s) available         1
      CASPT2 state passed to geometry opt.       1
      A file JOBMIX will be created
      This is a CASSCF or RASSCF reference function
--
 
++    Orbital specifications:
      -----------------------
 
      Symmetry species                           1
                                                 a
      Frozen orbitals                            0
      Inactive orbitals                          5
      Active orbitals                            2
      Secondary orbitals                         3
      Deleted orbitals                           0
      Number of basis functions                 10
--
 
++    CASPT2 specifications:
      ----------------------
 
      Type of calculation                        SS-CASPT2
      Fock operator                              state-specific
      IPEA shift                                 0.25
      Real shift                                 0.00
      Imaginary shift                            0.00
      The input orbitals will be transformed to quasi-canonical
--
 
--------------------------------------------------------------------------------
 Estimated memory requirements:
  POLY3 :                   250056
  RHS:                      250476
  SIGMA :                   250480
  PRPCTL:                        0
 Available workspace:    230392719
 
++ CASPT2 computation for group   1
 
********************************************************************************
 Multi-State initialization phase begins for group   1
--------------------------------------------------------------------------------
********************************************************************************
 Compute H0 matrices for state    1
--------------------------------------------------------------------------------
--------------------------------------------------------------------------------
 H0 matrices have been computed.
 
********************************************************************************
  CASPT2 EQUATION SOLUTION
--------------------------------------------------------------------------------
 
  Total nr of CASPT2 parameters:
   Before reduction:         620
   After  reduction:         438
 
 Variance of |WF0>:       0.0608318432
 
 The contributions to the second order correlation energy in atomic units.
-----------------------------------------------------------------------------------------------------------------------------
  IT.      VJTU        VJTI        ATVX        AIVX        VJAI        BVAT        BJAT        BJAI        TOTAL       RNORM  
-----------------------------------------------------------------------------------------------------------------------------
   1    -0.000026   -0.000363   -0.000000   -0.000432   -0.001800    0.000000   -0.000702   -0.013924   -0.017246    0.000001
-----------------------------------------------------------------------------------------------------------------------------
 
  FINAL CASPT2 RESULT:
 
      Reference energy:         -81.2890093342
      E2 (Non-variational):      -0.0172462147
      E2 (Variational):          -0.0172462146
      Total energy:             -81.3062555489
      Residual norm:              0.0000000073
      Reference weight:           0.99383
 
      Contributions to the CASPT2 correlation energy
      Active & Virtual Only:         -0.0000000000
      One Inactive Excited:          -0.0011592160
      Two Inactive Excited:          -0.0160869987
 
 
++ Denominators, etc.
--------------------------------------------------------------------------------------------------------------
 Report on small energy denominators, large coefficients, and large energy contributions.
CASE  SYMM ACTIVE-MIX  NON-ACTIVE INDICES          DENOMINATOR     RHS VALUE       COEFFICIENT     CONTRIBUTION
BJAIP    1  Se1.009 In1.003 Se1.010 In1.003         2.95835663     -0.08264588      0.02793901     -0.00230904
BJAIP    1  Se1.010 In1.003 Se1.010 In1.003         2.98290916      0.11758377     -0.03941404     -0.00463445
--
 
   (Skipping property calculation,
    use PROP keyword to activate)
--
 
  Total CASPT2 energies:
::    CASPT2 Root  1     Total energy:    -81.30625555
 
  A NEW JOBIPH FILE NAMED 'JOBMIX' IS PREPARED.
********************************************************************************
--- Stop Module: caspt2 at Thu Apr 25 14:03:49 2024 /rc=_RC_ALL_IS_WELL_ ---
*** files: xmldump
    saved to directory /home/grierjones/DDCASPT2/delta_ML/LiO/0.80

.##################.
.# Happy landing! #.
.##################.

    Timing: Wall=2.82 User=1.90 System=0.29
************************************
*** WorkDir at /tmp/0.80 removed ***
************************************
