[Molden Format]
[N_Atoms]
                     2
[Atoms] (AU)
N1          1      7           0.00000000      0.00000000      0.00000000
O2          2      8           0.00000000      0.00000000      3.77945225
[Charge] (Mulliken)
  0.188749549063497     
 -0.188749549063566     
[GTO] (AU)
   1
   s  14
  7.476171500E+04  1.182599996E-04
  1.112365400E+04  5.172899983E-04
  2.512685700E+03  2.266659992E-03
  7.037772900E+02  9.145289970E-03
  2.254787900E+02  3.239342989E-02
  7.961581000E+01  9.770792967E-02
  3.023728300E+01  2.317036792E-01
  1.226362200E+01  3.768898887E-01
  5.265086000E+00  3.177420689E-01
  2.333471000E+00  8.211308973E-02
  9.018560000E-01  3.312089989E-03
  3.583360000E-01  3.720819988E-03
  1.410930000E-01  3.165419989E-03
  4.938300000E-02  4.595799985E-04
   s  14
  7.476171500E+04 -2.707000010E-05
  1.112365400E+04 -1.183700004E-04
  2.512685700E+03 -5.203800020E-04
  7.037772900E+02 -2.102930008E-03
  2.254787900E+02 -7.568200028E-03
  7.961581000E+01 -2.346767009E-02
  3.023728300E+01 -6.042901023E-02
  1.226362200E+01 -1.170549104E-01
  5.265086000E+00 -1.555321506E-01
  2.333471000E+00 -2.468935009E-02
  9.018560000E-01  3.625054514E-01
  3.583360000E-01  5.550845021E-01
  1.410930000E-01  2.148376908E-01
  4.938300000E-02  8.983850034E-03
   p   9
  1.266665700E+02  1.233630000E-03
  2.983738900E+01  9.493409996E-03
  9.394038000E+00  4.293961998E-02
  3.405104000E+00  1.362925399E-01
  1.350000000E+00  2.921362499E-01
  5.576960000E-01  3.887887598E-01
  2.324490000E-01  2.946801399E-01
  9.426400000E-02  8.012875997E-02
  3.299200000E-02  5.405199998E-04
 
   2
   s  14
  1.053749500E+05  1.238600013E-04
  1.567924000E+04  5.120100053E-04
  3.534544700E+03  2.152910022E-03
  9.873651600E+02  8.528440089E-03
  3.159787500E+02  3.018049031E-02
  1.116542800E+02  9.099702095E-02
  4.269945100E+01  2.177936423E-01
  1.739559600E+01  3.686245738E-01
  7.438309000E+00  3.366707335E-01
  3.222862000E+00  9.657630101E-02
  1.253877000E+00  2.144520022E-03
  4.951550000E-01  1.194350012E-03
  1.916650000E-01  5.390200056E-04
  6.708300000E-02  2.103400022E-04
   s  14
  1.053749500E+05 -2.815000008E-05
  1.567924000E+04 -1.163000003E-04
  3.534544700E+03 -4.909200013E-04
  9.873651600E+02 -1.946160005E-03
  3.159787500E+02 -7.005300019E-03
  1.116542800E+02 -2.167814006E-02
  4.269945100E+01 -5.641213015E-02
  1.739559600E+01 -1.127053003E-01
  7.438309000E+00 -1.589119704E-01
  3.222862000E+00 -3.355083009E-02
  1.253877000E+00  3.531902810E-01
  4.951550000E-01  5.534199315E-01
  1.916650000E-01  2.301839106E-01
  6.708300000E-02  1.127267003E-02
   p   9
  2.000000000E+02  9.173000030E-04
  4.653336700E+01  7.377140024E-03
  1.462180900E+01  3.483515011E-02
  5.313064000E+00  1.144397004E-01
  2.102525000E+00  2.554966408E-01
  8.502230000E-01  3.722557412E-01
  3.375970000E-01  3.323314911E-01
  1.288920000E-01  1.400847905E-01
  4.511200000E-02  2.395784008E-02
 
[MO]
Sym=     1a  
Ene=   -20.5870
Spin= Alpha
Occup=    1.00000
   1        -0.00001392
   2        -0.00018640
   3         0.00000000
   4        -0.00000000
   5        -0.00016013
   6         1.00000263
   7        -0.00008639
   8        -0.00000000
   9         0.00000000
  10        -0.00031811
Sym=     1a  
Ene=   -20.5890
Spin= Beta
Occup=    1.00000
   1        -0.00000876
   2        -0.00017047
   3         0.00000000
   4        -0.00000000
   5        -0.00013965
   6         1.00000234
   7         0.00000125
   8        -0.00000000
   9         0.00000000
  10        -0.00029333
Sym=     2a  
Ene=   -15.7360
Spin= Alpha
Occup=    1.00000
   1         0.99999545
   2        -0.00481161
   3         0.00000000
   4         0.00000000
   5         0.00042780
   6        -0.00005603
   7        -0.00050971
   8         0.00000000
   9         0.00000000
  10         0.00038993
Sym=     2a  
Ene=   -15.7020
Spin= Beta
Occup=    1.00000
   1         0.99997706
   2        -0.00721398
   3         0.00000000
   4         0.00000000
   5         0.00033789
   6        -0.00004912
   7        -0.00032286
   8        -0.00000000
   9        -0.00000000
  10         0.00015032
Sym=     3a  
Ene=    -1.2083
Spin= Alpha
Occup=    1.00000
   1         0.00187923
   2        -0.32542982
   3        -0.00000000
   4         0.00000000
   5        -0.06768548
   6         0.00214122
   7        -0.90378811
   8         0.00000000
   9         0.00000000
  10         0.02082015
Sym=     3a  
Ene=    -1.2065
Spin= Beta
Occup=    1.00000
   1         0.00237906
   2        -0.14632596
   3         0.00000000
   4         0.00000000
   5        -0.06266745
   6         0.00134768
   7        -0.96540544
   8        -0.00000000
   9        -0.00000000
  10         0.00454895
Sym=     4a  
Ene=    -1.0688
Spin= Alpha
Occup=    1.00000
   1         0.00563655
   2         0.94245426
   3        -0.00000000
   4         0.00000000
   5        -0.01145733
   6        -0.00423806
   7        -0.40955013
   8        -0.00000000
   9        -0.00000000
  10        -0.03407399
Sym=     4a  
Ene=    -0.9298
Spin= Beta
Occup=    1.00000
   1         0.00698371
   2         0.97904910
   3        -0.00000000
   4         0.00000000
   5        -0.01490043
   6        -0.00435056
   7        -0.23052851
   8         0.00000000
   9         0.00000000
  10        -0.07247382
Sym=     5a  
Ene=    -0.6129
Spin= Alpha
Occup=    1.00000
   1         0.00000000
   2         0.00000000
   3         0.90727089
   4         0.32175084
   5        -0.00000000
   6         0.00000000
   7         0.00000000
   8         0.20213260
   9         0.07168348
  10         0.00000000
Sym=     5a  
Ene=    -0.5085
Spin= Beta
Occup=    1.00000
   1         0.00000000
   2         0.00000000
   3        -0.02316675
   4         0.06532544
   5        -0.00000000
   6         0.00000000
   7         0.00000000
   8        -0.33190584
   9         0.93590588
  10         0.00000000
Sym=     6a  
Ene=    -0.5313
Spin= Alpha
Occup=    1.00000
   1        -0.00239197
   2        -0.04411121
   3         0.00000000
   4         0.00000000
   5         0.95494451
   6        -0.01063597
   7        -0.20108490
   8        -0.00000000
   9        -0.00000000
  10        -0.19894337
Sym=     6a  
Ene=    -0.5070
Spin= Beta
Occup=    1.00000
   1        -0.00000000
   2        -0.00000000
   3         0.04940265
   4         0.01751995
   5         0.00000000
   6        -0.00000000
   7        -0.00000000
   8         0.93792688
   9         0.33262256
  10        -0.00000000
Sym=     7a  
Ene=    -0.5055
Spin= Alpha
Occup=    1.00000
   1        -0.00000000
   2        -0.00000000
   3        -0.02799488
   4         0.07893978
   5         0.00000000
   6        -0.00000000
   7        -0.00000000
   8        -0.33121717
   9         0.93396397
  10        -0.00000000
Sym=     7a  
Ene=    -0.4791
Spin= Beta
Occup=    1.00000
   1        -0.00382562
   2        -0.06084917
   3        -0.00000000
   4        -0.00000000
   5         0.91733364
   6        -0.01016069
   7        -0.18370825
   8        -0.00000000
   9        -0.00000000
  10        -0.29183026
Sym=     8a  
Ene=    -0.5012
Spin= Alpha
Occup=    1.00000
   1        -0.00000000
   2        -0.00000000
   3         0.26278250
   4         0.09319211
   5        -0.00000000
   6         0.00000000
   7         0.00000000
   8        -0.92267953
   9        -0.32721530
  10        -0.00000000
Sym=     8a  
Ene=     0.0535
Spin= Beta
Occup=    0.00000
   1        -0.00000000
   2        -0.00000000
   3        -0.33417312
   4         0.94229915
   5        -0.00000000
   6         0.00000000
   7         0.00000000
   8         0.04524255
   9        -0.12757464
  10        -0.00000000
Sym=     9a  
Ene=     0.0126
Spin= Alpha
Occup=    0.00000
   1        -0.00000000
   2        -0.00000000
   3        -0.33380333
   4         0.94125640
   5        -0.00000000
   6         0.00000000
   7         0.00000000
   8         0.05003561
   9        -0.14109007
  10        -0.00000000
Sym=     9a  
Ene=     0.1196
Spin= Beta
Occup=    0.00000
   1         0.01463372
   2         0.22707123
   3        -0.00000000
   4        -0.00000000
   5         0.45354971
   6        -0.00593114
   7        -0.10841287
   8         0.00000000
   9         0.00000000
  10         0.98265164
Sym=    10a  
Ene=     0.1341
Spin= Alpha
Occup=    0.00000
   1         0.01433225
   2         0.19791632
   3         0.00000000
   4         0.00000000
   5         0.36705025
   6        -0.00478631
   7        -0.07519020
   8        -0.00000000
   9        -0.00000000
  10         1.00740716
Sym=    10a  
Ene=     0.1273
Spin= Beta
Occup=    0.00000
   1        -0.00000000
   2        -0.00000000
   3        -0.94326798
   4        -0.33451671
   5        -0.00000000
   6         0.00000000
   7         0.00000000
   8         0.11175094
   9         0.03963090
  10        -0.00000000
