[Molden Format]
[N_Atoms]
                     2
[Atoms] (AU)
N1          1      7           0.00000000      0.00000000      0.00000000
N2          2      7           0.00000000      0.00000000      3.40150702
[Charge] (Mulliken)
 -1.975184460434320E-010
  1.975122287944941E-010
[GTO] (AU)
   1
   s  14
  7.476171500E+04  1.182599996E-04
  1.112365400E+04  5.172899983E-04
  2.512685700E+03  2.266659992E-03
  7.037772900E+02  9.145289970E-03
  2.254787900E+02  3.239342989E-02
  7.961581000E+01  9.770792967E-02
  3.023728300E+01  2.317036792E-01
  1.226362200E+01  3.768898887E-01
  5.265086000E+00  3.177420689E-01
  2.333471000E+00  8.211308973E-02
  9.018560000E-01  3.312089989E-03
  3.583360000E-01  3.720819988E-03
  1.410930000E-01  3.165419989E-03
  4.938300000E-02  4.595799985E-04
   s  14
  7.476171500E+04 -2.707000010E-05
  1.112365400E+04 -1.183700004E-04
  2.512685700E+03 -5.203800020E-04
  7.037772900E+02 -2.102930008E-03
  2.254787900E+02 -7.568200028E-03
  7.961581000E+01 -2.346767009E-02
  3.023728300E+01 -6.042901023E-02
  1.226362200E+01 -1.170549104E-01
  5.265086000E+00 -1.555321506E-01
  2.333471000E+00 -2.468935009E-02
  9.018560000E-01  3.625054514E-01
  3.583360000E-01  5.550845021E-01
  1.410930000E-01  2.148376908E-01
  4.938300000E-02  8.983850034E-03
   p   9
  1.266665700E+02  1.233630000E-03
  2.983738900E+01  9.493409996E-03
  9.394038000E+00  4.293961998E-02
  3.405104000E+00  1.362925399E-01
  1.350000000E+00  2.921362499E-01
  5.576960000E-01  3.887887598E-01
  2.324490000E-01  2.946801399E-01
  9.426400000E-02  8.012875997E-02
  3.299200000E-02  5.405199998E-04
 
   2
   s  14
  7.476171500E+04  1.182599996E-04
  1.112365400E+04  5.172899983E-04
  2.512685700E+03  2.266659992E-03
  7.037772900E+02  9.145289970E-03
  2.254787900E+02  3.239342989E-02
  7.961581000E+01  9.770792967E-02
  3.023728300E+01  2.317036792E-01
  1.226362200E+01  3.768898887E-01
  5.265086000E+00  3.177420689E-01
  2.333471000E+00  8.211308973E-02
  9.018560000E-01  3.312089989E-03
  3.583360000E-01  3.720819988E-03
  1.410930000E-01  3.165419989E-03
  4.938300000E-02  4.595799985E-04
   s  14
  7.476171500E+04 -2.707000010E-05
  1.112365400E+04 -1.183700004E-04
  2.512685700E+03 -5.203800020E-04
  7.037772900E+02 -2.102930008E-03
  2.254787900E+02 -7.568200028E-03
  7.961581000E+01 -2.346767009E-02
  3.023728300E+01 -6.042901023E-02
  1.226362200E+01 -1.170549104E-01
  5.265086000E+00 -1.555321506E-01
  2.333471000E+00 -2.468935009E-02
  9.018560000E-01  3.625054514E-01
  3.583360000E-01  5.550845021E-01
  1.410930000E-01  2.148376908E-01
  4.938300000E-02  8.983850034E-03
   p   9
  1.266665700E+02  1.233630000E-03
  2.983738900E+01  9.493409996E-03
  9.394038000E+00  4.293961998E-02
  3.405104000E+00  1.362925399E-01
  1.350000000E+00  2.921362499E-01
  5.576960000E-01  3.887887598E-01
  2.324490000E-01  2.946801399E-01
  9.426400000E-02  8.012875997E-02
  3.299200000E-02  5.405199998E-04
 
[MO]
Sym=     1a  
Ene=   -15.6710
Spin= Alpha
Occup=    1.00000
   1         0.70703468
   2        -0.00461062
   3        -0.00000000
   4        -0.00000000
   5         0.00051137
   6         0.70703453
   7        -0.00461062
   8        -0.00000000
   9        -0.00000000
  10        -0.00051137
Sym=     1a  
Ene=   -15.6710
Spin= Beta
Occup=    1.00000
   1         0.70703468
   2        -0.00461062
   3        -0.00000000
   4        -0.00000000
   5         0.00051137
   6         0.70703453
   7        -0.00461062
   8        -0.00000000
   9        -0.00000000
  10        -0.00051137
Sym=     2a  
Ene=   -15.6700
Spin= Alpha
Occup=    1.00000
   1        -0.70717352
   2         0.00371104
   3        -0.00000000
   4        -0.00000000
   5        -0.00101584
   6         0.70717367
   7        -0.00371104
   8        -0.00000000
   9         0.00000000
  10        -0.00101584
Sym=     2a  
Ene=   -15.6700
Spin= Beta
Occup=    1.00000
   1        -0.70717352
   2         0.00371104
   3        -0.00000000
   4        -0.00000000
   5        -0.00101584
   6         0.70717367
   7        -0.00371104
   8        -0.00000000
   9         0.00000000
  10        -0.00101584
Sym=     3a  
Ene=    -1.0876
Spin= Alpha
Occup=    1.00000
   1        -0.00434691
   2         0.63120509
   3         0.00000000
   4         0.00000000
   5         0.09431396
   6        -0.00434691
   7         0.63120509
   8        -0.00000000
   9         0.00000000
  10        -0.09431396
Sym=     3a  
Ene=    -1.0876
Spin= Beta
Occup=    1.00000
   1        -0.00434691
   2         0.63120509
   3         0.00000000
   4         0.00000000
   5         0.09431396
   6        -0.00434691
   7         0.63120509
   8        -0.00000000
   9         0.00000000
  10        -0.09431396
Sym=     4a  
Ene=    -0.8836
Spin= Alpha
Occup=    1.00000
   1        -0.00937339
   2        -0.73826595
   3        -0.00000000
   4         0.00000000
   5         0.10541772
   6         0.00937339
   7         0.73826595
   8        -0.00000000
   9         0.00000000
  10         0.10541772
Sym=     4a  
Ene=    -0.8836
Spin= Beta
Occup=    1.00000
   1        -0.00937339
   2        -0.73826595
   3        -0.00000000
   4         0.00000000
   5         0.10541772
   6         0.00937339
   7         0.73826595
   8        -0.00000000
   9         0.00000000
  10         0.10541772
Sym=     5a  
Ene=    -0.4553
Spin= Alpha
Occup=    1.00000
   1         0.01374890
   2         0.21771380
   3        -0.00000000
   4         0.00000000
   5        -0.64545757
   6         0.01374890
   7         0.21771380
   8        -0.00000000
   9        -0.00000000
  10         0.64545757
Sym=     5a  
Ene=    -0.4553
Spin= Beta
Occup=    1.00000
   1         0.01374890
   2         0.21771380
   3        -0.00000000
   4         0.00000000
   5        -0.64545757
   6         0.01374890
   7         0.21771380
   8        -0.00000000
   9        -0.00000000
  10         0.64545757
Sym=     6a  
Ene=    -0.3815
Spin= Alpha
Occup=    1.00000
   1        -0.00000000
   2         0.00000000
   3        -0.09311037
   4         0.66746416
   5         0.00000000
   6        -0.00000000
   7        -0.00000000
   8        -0.09311037
   9         0.66746416
  10        -0.00000000
Sym=     6a  
Ene=    -0.3815
Spin= Beta
Occup=    1.00000
   1        -0.00000000
   2         0.00000000
   3        -0.09311037
   4         0.66746416
   5         0.00000000
   6        -0.00000000
   7        -0.00000000
   8        -0.09311037
   9         0.66746416
  10        -0.00000000
Sym=     7a  
Ene=    -0.3815
Spin= Alpha
Occup=    1.00000
   1         0.00000000
   2         0.00000000
   3         0.66746416
   4         0.09311037
   5        -0.00000000
   6         0.00000000
   7         0.00000000
   8         0.66746416
   9         0.09311037
  10         0.00000000
Sym=     7a  
Ene=    -0.3815
Spin= Beta
Occup=    1.00000
   1         0.00000000
   2         0.00000000
   3         0.66746416
   4         0.09311037
   5        -0.00000000
   6         0.00000000
   7         0.00000000
   8         0.66746416
   9         0.09311037
  10         0.00000000
Sym=     8a  
Ene=    -0.0004
Spin= Alpha
Occup=    0.00000
   1         0.00000000
   2        -0.00000000
   3        -0.19102096
   4        -0.72084431
   5         0.00000000
   6        -0.00000000
   7         0.00000000
   8         0.19102096
   9         0.72084431
  10         0.00000000
Sym=     8a  
Ene=    -0.0004
Spin= Beta
Occup=    0.00000
   1         0.00000000
   2        -0.00000000
   3        -0.19102096
   4        -0.72084431
   5         0.00000000
   6        -0.00000000
   7         0.00000000
   8         0.19102096
   9         0.72084431
  10         0.00000000
Sym=     9a  
Ene=    -0.0004
Spin= Alpha
Occup=    0.00000
   1        -0.00000000
   2        -0.00000000
   3        -0.72084431
   4         0.19102096
   5         0.00000000
   6        -0.00000000
   7        -0.00000000
   8         0.72084431
   9        -0.19102096
  10        -0.00000000
Sym=     9a  
Ene=    -0.0004
Spin= Beta
Occup=    0.00000
   1        -0.00000000
   2        -0.00000000
   3        -0.72084431
   4         0.19102096
   5         0.00000000
   6        -0.00000000
   7        -0.00000000
   8         0.72084431
   9        -0.19102096
  10        -0.00000000
Sym=    10a  
Ene=     0.1858
Spin= Alpha
Occup=    0.00000
   1         0.02208711
   2         0.31602766
   3         0.00000000
   4        -0.00000000
   5         0.82478682
   6        -0.02208711
   7        -0.31602766
   8        -0.00000000
   9        -0.00000000
  10         0.82478682
Sym=    10a  
Ene=     0.1858
Spin= Beta
Occup=    0.00000
   1         0.02208711
   2         0.31602766
   3         0.00000000
   4        -0.00000000
   5         0.82478682
   6        -0.02208711
   7        -0.31602766
   8        -0.00000000
   9        -0.00000000
  10         0.82478682
