[Molden Format]
[N_Atoms]
                     2
[Atoms] (AU)
N1          1      7           0.00000000      0.00000000      0.00000000
N2          2      7           0.00000000      0.00000000      3.40150702
[Charge] (Mulliken)
 -3.815214810742873E-010
  3.815188165390282E-010
[GTO] (AU)
   1
   s  14
  7.476171500E+04  1.182599996E-04
  1.112365400E+04  5.172899983E-04
  2.512685700E+03  2.266659992E-03
  7.037772900E+02  9.145289970E-03
  2.254787900E+02  3.239342989E-02
  7.961581000E+01  9.770792967E-02
  3.023728300E+01  2.317036792E-01
  1.226362200E+01  3.768898887E-01
  5.265086000E+00  3.177420689E-01
  2.333471000E+00  8.211308973E-02
  9.018560000E-01  3.312089989E-03
  3.583360000E-01  3.720819988E-03
  1.410930000E-01  3.165419989E-03
  4.938300000E-02  4.595799985E-04
   s  14
  7.476171500E+04 -2.707000010E-05
  1.112365400E+04 -1.183700004E-04
  2.512685700E+03 -5.203800020E-04
  7.037772900E+02 -2.102930008E-03
  2.254787900E+02 -7.568200028E-03
  7.961581000E+01 -2.346767009E-02
  3.023728300E+01 -6.042901023E-02
  1.226362200E+01 -1.170549104E-01
  5.265086000E+00 -1.555321506E-01
  2.333471000E+00 -2.468935009E-02
  9.018560000E-01  3.625054514E-01
  3.583360000E-01  5.550845021E-01
  1.410930000E-01  2.148376908E-01
  4.938300000E-02  8.983850034E-03
   p   9
  1.266665700E+02  1.233630000E-03
  2.983738900E+01  9.493409996E-03
  9.394038000E+00  4.293961998E-02
  3.405104000E+00  1.362925399E-01
  1.350000000E+00  2.921362499E-01
  5.576960000E-01  3.887887598E-01
  2.324490000E-01  2.946801399E-01
  9.426400000E-02  8.012875997E-02
  3.299200000E-02  5.405199998E-04
 
   2
   s  14
  7.476171500E+04  1.182599996E-04
  1.112365400E+04  5.172899983E-04
  2.512685700E+03  2.266659992E-03
  7.037772900E+02  9.145289970E-03
  2.254787900E+02  3.239342989E-02
  7.961581000E+01  9.770792967E-02
  3.023728300E+01  2.317036792E-01
  1.226362200E+01  3.768898887E-01
  5.265086000E+00  3.177420689E-01
  2.333471000E+00  8.211308973E-02
  9.018560000E-01  3.312089989E-03
  3.583360000E-01  3.720819988E-03
  1.410930000E-01  3.165419989E-03
  4.938300000E-02  4.595799985E-04
   s  14
  7.476171500E+04 -2.707000010E-05
  1.112365400E+04 -1.183700004E-04
  2.512685700E+03 -5.203800020E-04
  7.037772900E+02 -2.102930008E-03
  2.254787900E+02 -7.568200028E-03
  7.961581000E+01 -2.346767009E-02
  3.023728300E+01 -6.042901023E-02
  1.226362200E+01 -1.170549104E-01
  5.265086000E+00 -1.555321506E-01
  2.333471000E+00 -2.468935009E-02
  9.018560000E-01  3.625054514E-01
  3.583360000E-01  5.550845021E-01
  1.410930000E-01  2.148376908E-01
  4.938300000E-02  8.983850034E-03
   p   9
  1.266665700E+02  1.233630000E-03
  2.983738900E+01  9.493409996E-03
  9.394038000E+00  4.293961998E-02
  3.405104000E+00  1.362925399E-01
  1.350000000E+00  2.921362499E-01
  5.576960000E-01  3.887887598E-01
  2.324490000E-01  2.946801399E-01
  9.426400000E-02  8.012875997E-02
  3.299200000E-02  5.405199998E-04
 
[MO]
Sym=     1a  
Ene=   -15.6700
Spin= Alpha
Occup=    2.00000
   1         0.70703471
   2        -0.00460558
   3        -0.00000000
   4        -0.00000000
   5         0.00050496
   6         0.70703476
   7        -0.00460558
   8        -0.00000000
   9        -0.00000000
  10        -0.00050496
Sym=     2a  
Ene=   -15.6670
Spin= Alpha
Occup=    2.00000
   1        -0.70697830
   2         0.01382947
   3        -0.00000000
   4        -0.00000000
   5        -0.00243470
   6         0.70697825
   7        -0.01382947
   8         0.00000000
   9        -0.00000000
  10        -0.00243470
Sym=     3a  
Ene=    -1.0865
Spin= Alpha
Occup=    2.00000
   1         0.00435266
   2        -0.63116254
   3        -0.00000000
   4        -0.00000000
   5        -0.09444009
   6         0.00435266
   7        -0.63116255
   8         0.00000000
   9        -0.00000000
  10         0.09444009
Sym=     4a  
Ene=    -0.4545
Spin= Alpha
Occup=    2.00000
   1         0.01374057
   2         0.21783720
   3        -0.00000000
   4         0.00000000
   5        -0.64543914
   6         0.01374057
   7         0.21783720
   8        -0.00000000
   9         0.00000000
  10         0.64543913
Sym=     5a  
Ene=    -0.3819
Spin= Alpha
Occup=    2.00000
   1         0.00000000
   2         0.00000000
   3         0.67249915
   4         0.04385015
   5        -0.00000000
   6         0.00000000
   7         0.00000000
   8         0.67249916
   9         0.04385015
  10         0.00000000
Sym=     6a  
Ene=    -0.3811
Spin= Alpha
Occup=    2.00000
   1        -0.00000000
   2         0.00000000
   3        -0.04385015
   4         0.67249916
   5         0.00000000
   6        -0.00000000
   7        -0.00000000
   8        -0.04385015
   9         0.67249916
  10        -0.00000000
Sym=     7a  
Ene=    -0.8839
Spin= Alpha
Occup=    1.98792
   1        -0.01909201
   2        -0.73865817
   3        -0.00000000
   4         0.00000000
   5         0.10405434
   6         0.01909201
   7         0.73865816
   8         0.00000000
   9         0.00000000
  10         0.10405434
Sym=     8a  
Ene=     0.0000
Spin= Alpha
Occup=    0.01208
   1         0.00000000
   2         0.00000000
   3        -0.74414459
   4        -0.04852177
   5        -0.00000000
   6        -0.00000000
   7         0.00000000
   8         0.74414458
   9         0.04852177
  10        -0.00000000
Sym=     9a  
Ene=     0.0000
Spin= Alpha
Occup=    0.00000
   1         0.00000000
   2         0.00000000
   3         0.04852177
   4        -0.74414459
   5        -0.00000000
   6         0.00000000
   7        -0.00000000
   8        -0.04852177
   9         0.74414459
  10        -0.00000000
Sym=    10a  
Ene=     0.1864
Spin= Alpha
Occup=    0.00000
   1         0.02207719
   2         0.31482809
   3        -0.00000000
   4        -0.00000000
   5         0.82495696
   6        -0.02207719
   7        -0.31482809
   8         0.00000000
   9         0.00000000
  10         0.82495697
