[Molden Format]
[N_Atoms]
                     2
[Atoms] (AU)
N1          1      7           0.00000000      0.00000000      0.00000000
N2          2      7           0.00000000      0.00000000      3.40150702
[Charge] (Mulliken)
  0.000000000000000E+000
  0.000000000000000E+000
[GTO] (AU)
   1
   s  14
  7.476171500E+04  1.182599996E-04
  1.112365400E+04  5.172899983E-04
  2.512685700E+03  2.266659992E-03
  7.037772900E+02  9.145289970E-03
  2.254787900E+02  3.239342989E-02
  7.961581000E+01  9.770792967E-02
  3.023728300E+01  2.317036792E-01
  1.226362200E+01  3.768898887E-01
  5.265086000E+00  3.177420689E-01
  2.333471000E+00  8.211308973E-02
  9.018560000E-01  3.312089989E-03
  3.583360000E-01  3.720819988E-03
  1.410930000E-01  3.165419989E-03
  4.938300000E-02  4.595799985E-04
   s  14
  7.476171500E+04 -2.707000010E-05
  1.112365400E+04 -1.183700004E-04
  2.512685700E+03 -5.203800020E-04
  7.037772900E+02 -2.102930008E-03
  2.254787900E+02 -7.568200028E-03
  7.961581000E+01 -2.346767009E-02
  3.023728300E+01 -6.042901023E-02
  1.226362200E+01 -1.170549104E-01
  5.265086000E+00 -1.555321506E-01
  2.333471000E+00 -2.468935009E-02
  9.018560000E-01  3.625054514E-01
  3.583360000E-01  5.550845021E-01
  1.410930000E-01  2.148376908E-01
  4.938300000E-02  8.983850034E-03
   p   9
  1.266665700E+02  1.233630000E-03
  2.983738900E+01  9.493409996E-03
  9.394038000E+00  4.293961998E-02
  3.405104000E+00  1.362925399E-01
  1.350000000E+00  2.921362499E-01
  5.576960000E-01  3.887887598E-01
  2.324490000E-01  2.946801399E-01
  9.426400000E-02  8.012875997E-02
  3.299200000E-02  5.405199998E-04
 
   2
   s  14
  7.476171500E+04  1.182599996E-04
  1.112365400E+04  5.172899983E-04
  2.512685700E+03  2.266659992E-03
  7.037772900E+02  9.145289970E-03
  2.254787900E+02  3.239342989E-02
  7.961581000E+01  9.770792967E-02
  3.023728300E+01  2.317036792E-01
  1.226362200E+01  3.768898887E-01
  5.265086000E+00  3.177420689E-01
  2.333471000E+00  8.211308973E-02
  9.018560000E-01  3.312089989E-03
  3.583360000E-01  3.720819988E-03
  1.410930000E-01  3.165419989E-03
  4.938300000E-02  4.595799985E-04
   s  14
  7.476171500E+04 -2.707000010E-05
  1.112365400E+04 -1.183700004E-04
  2.512685700E+03 -5.203800020E-04
  7.037772900E+02 -2.102930008E-03
  2.254787900E+02 -7.568200028E-03
  7.961581000E+01 -2.346767009E-02
  3.023728300E+01 -6.042901023E-02
  1.226362200E+01 -1.170549104E-01
  5.265086000E+00 -1.555321506E-01
  2.333471000E+00 -2.468935009E-02
  9.018560000E-01  3.625054514E-01
  3.583360000E-01  5.550845021E-01
  1.410930000E-01  2.148376908E-01
  4.938300000E-02  8.983850034E-03
   p   9
  1.266665700E+02  1.233630000E-03
  2.983738900E+01  9.493409996E-03
  9.394038000E+00  4.293961998E-02
  3.405104000E+00  1.362925399E-01
  1.350000000E+00  2.921362499E-01
  5.576960000E-01  3.887887598E-01
  2.324490000E-01  2.946801399E-01
  9.426400000E-02  8.012875997E-02
  3.299200000E-02  5.405199998E-04
 
[MO]
Sym=     1a  
Ene=   -15.6390
Spin= Alpha
Occup=    2.00000
   1         0.70699220
   2         0.00051204
   3        -0.00000000
   4         0.00000000
   5         0.00062690
   6         0.70699220
   7         0.00051204
   8        -0.00000000
   9         0.00000000
  10        -0.00062690
Sym=     2a  
Ene=   -15.6300
Spin= Alpha
Occup=    2.00000
   1        -0.70718110
   2         0.00048448
   3         0.00000000
   4        -0.00000000
   5         0.00060886
   6         0.70718110
   7        -0.00048448
   8        -0.00000000
   9        -0.00000000
  10         0.00060886
Sym=     3a  
Ene=    -1.1554
Spin= Alpha
Occup=    2.00000
   1        -0.01123723
   2         0.60324507
   3        -0.00000000
   4        -0.00000000
   5         0.16517167
   6        -0.01123723
   7         0.60324507
   8         0.00000000
   9         0.00000000
  10        -0.16517167
Sym=     4a  
Ene=    -0.8569
Spin= Alpha
Occup=    2.00000
   1        -0.00280720
   2        -0.69047200
   3         0.00000000
   4         0.00000000
   5         0.21264141
   6         0.00280720
   7         0.69047200
   8         0.00000000
   9        -0.00000000
  10         0.21264141
Sym=     5a  
Ene=    -0.6374
Spin= Alpha
Occup=    2.00000
   1         0.01190055
   2         0.28624385
   3        -0.00000000
   4         0.00000000
   5        -0.63105371
   6         0.01190055
   7         0.28624385
   8        -0.00000000
   9         0.00000000
  10         0.63105371
Sym=     6a  
Ene=    -0.6283
Spin= Alpha
Occup=    2.00000
   1        -0.00000000
   2        -0.00000000
   3        -0.17559210
   4         0.65064996
   5         0.00000000
   6        -0.00000000
   7        -0.00000000
   8        -0.17559210
   9         0.65064996
  10        -0.00000000
Sym=     7a  
Ene=    -0.6283
Spin= Alpha
Occup=    2.00000
   1        -0.00000000
   2         0.00000000
   3         0.65064996
   4         0.17559210
   5         0.00000000
   6         0.00000000
   7        -0.00000000
   8         0.65064996
   9         0.17559210
  10        -0.00000000
Sym=     8a  
Ene=    -0.5131
Spin= Alpha
Occup=    0.00000
   1        -0.00000000
   2        -0.00000000
   3        -0.46112801
   4        -0.58606014
   5         0.00000000
   6        -0.00000000
   7        -0.00000000
   8         0.46112801
   9         0.58606014
  10        -0.00000000
Sym=     9a  
Ene=    -0.5131
Spin= Alpha
Occup=    0.00000
   1        -0.00000000
   2        -0.00000000
   3        -0.58606014
   4         0.46112801
   5        -0.00000000
   6         0.00000000
   7         0.00000000
   8         0.58606014
   9        -0.46112801
  10        -0.00000000
Sym=    10a  
Ene=    -0.3816
Spin= Alpha
Occup=    0.00000
   1         0.02360511
   2         0.41008785
   3        -0.00000000
   4         0.00000000
   5         0.80384730
   6        -0.02360511
   7        -0.41008785
   8         0.00000000
   9         0.00000000
  10         0.80384730
