[Molden Format]
[N_Atoms]
                     2
[Atoms] (AU)
N1          1      7           0.00000000      0.00000000      0.00000000
N2          2      7           0.00000000      0.00000000      3.40150702
[Charge] (Mulliken)
   1.00000028708340     
  0.999999712916582     
[GTO] (AU)
   1
   s  14
  7.476171500E+04  1.182599996E-04
  1.112365400E+04  5.172899983E-04
  2.512685700E+03  2.266659992E-03
  7.037772900E+02  9.145289970E-03
  2.254787900E+02  3.239342989E-02
  7.961581000E+01  9.770792967E-02
  3.023728300E+01  2.317036792E-01
  1.226362200E+01  3.768898887E-01
  5.265086000E+00  3.177420689E-01
  2.333471000E+00  8.211308973E-02
  9.018560000E-01  3.312089989E-03
  3.583360000E-01  3.720819988E-03
  1.410930000E-01  3.165419989E-03
  4.938300000E-02  4.595799985E-04
   s  14
  7.476171500E+04 -2.707000010E-05
  1.112365400E+04 -1.183700004E-04
  2.512685700E+03 -5.203800020E-04
  7.037772900E+02 -2.102930008E-03
  2.254787900E+02 -7.568200028E-03
  7.961581000E+01 -2.346767009E-02
  3.023728300E+01 -6.042901023E-02
  1.226362200E+01 -1.170549104E-01
  5.265086000E+00 -1.555321506E-01
  2.333471000E+00 -2.468935009E-02
  9.018560000E-01  3.625054514E-01
  3.583360000E-01  5.550845021E-01
  1.410930000E-01  2.148376908E-01
  4.938300000E-02  8.983850034E-03
   p   9
  1.266665700E+02  1.233630000E-03
  2.983738900E+01  9.493409996E-03
  9.394038000E+00  4.293961998E-02
  3.405104000E+00  1.362925399E-01
  1.350000000E+00  2.921362499E-01
  5.576960000E-01  3.887887598E-01
  2.324490000E-01  2.946801399E-01
  9.426400000E-02  8.012875997E-02
  3.299200000E-02  5.405199998E-04
 
   2
   s  14
  7.476171500E+04  1.182599996E-04
  1.112365400E+04  5.172899983E-04
  2.512685700E+03  2.266659992E-03
  7.037772900E+02  9.145289970E-03
  2.254787900E+02  3.239342989E-02
  7.961581000E+01  9.770792967E-02
  3.023728300E+01  2.317036792E-01
  1.226362200E+01  3.768898887E-01
  5.265086000E+00  3.177420689E-01
  2.333471000E+00  8.211308973E-02
  9.018560000E-01  3.312089989E-03
  3.583360000E-01  3.720819988E-03
  1.410930000E-01  3.165419989E-03
  4.938300000E-02  4.595799985E-04
   s  14
  7.476171500E+04 -2.707000010E-05
  1.112365400E+04 -1.183700004E-04
  2.512685700E+03 -5.203800020E-04
  7.037772900E+02 -2.102930008E-03
  2.254787900E+02 -7.568200028E-03
  7.961581000E+01 -2.346767009E-02
  3.023728300E+01 -6.042901023E-02
  1.226362200E+01 -1.170549104E-01
  5.265086000E+00 -1.555321506E-01
  2.333471000E+00 -2.468935009E-02
  9.018560000E-01  3.625054514E-01
  3.583360000E-01  5.550845021E-01
  1.410930000E-01  2.148376908E-01
  4.938300000E-02  8.983850034E-03
   p   9
  1.266665700E+02  1.233630000E-03
  2.983738900E+01  9.493409996E-03
  9.394038000E+00  4.293961998E-02
  3.405104000E+00  1.362925399E-01
  1.350000000E+00  2.921362499E-01
  5.576960000E-01  3.887887598E-01
  2.324490000E-01  2.946801399E-01
  9.426400000E-02  8.012875997E-02
  3.299200000E-02  5.405199998E-04
 
[MO]
Sym=     1a  
Ene=   -16.8710
Spin= Alpha
Occup=    2.00000
   1         0.70719746
   2        -0.00568827
   3        -0.00000000
   4         0.00000000
   5        -0.00008493
   6         0.70690322
   7        -0.00568358
   8        -0.00000000
   9        -0.00000000
  10         0.00008497
Sym=     2a  
Ene=   -16.8700
Spin= Alpha
Occup=    2.00000
   1        -0.70685660
   2         0.01128526
   3        -0.00000000
   4        -0.00000000
   5        -0.00010738
   6         0.70715086
   7        -0.01128763
   8        -0.00000000
   9        -0.00000000
  10        -0.00010734
Sym=     3a  
Ene=    -1.9506
Spin= Alpha
Occup=    2.00000
   1         0.00309691
   2        -0.62935009
   3        -0.00000000
   4        -0.00000000
   5        -0.09971536
   6         0.00309691
   7        -0.62935019
   8         0.00000000
   9        -0.00000000
  10         0.09971537
Sym=     4a  
Ene=    -1.2568
Spin= Alpha
Occup=    2.00000
   1         0.00000000
   2         0.00000000
   3        -0.06760749
   4         0.67052748
   5        -0.00000000
   6         0.00000000
   7        -0.00000000
   8        -0.06760750
   9         0.67052760
  10         0.00000000
Sym=     5a  
Ene=    -1.2568
Spin= Alpha
Occup=    2.00000
   1         0.00000000
   2         0.00000000
   3         0.67052748
   4         0.06760749
   5        -0.00000000
   6         0.00000000
   7         0.00000000
   8         0.67052760
   9         0.06760750
  10         0.00000000
Sym=     6a  
Ene=    -0.9398
Spin= Alpha
Occup=    0.02052
   1         0.01326911
   2         0.22299432
   3        -0.00000000
   4        -0.00000000
   5        -0.64464535
   6         0.01326911
   7         0.22299441
   8        -0.00000000
   9        -0.00000000
  10         0.64464546
Sym=     7a  
Ene=    -0.1174
Spin= Alpha
Occup=    1.97948
   1        -0.01885972
   2        -0.77277576
   3         0.00000000
   4         0.00000000
   5        -0.00179705
   6         0.01885972
   7         0.77277565
   8        -0.00000000
   9         0.00000000
  10        -0.00179713
Sym=     8a  
Ene=    -0.9044
Spin= Alpha
Occup=    0.00000
   1         0.00000000
   2         0.00000000
   3        -0.20792462
   4        -0.71615150
   5         0.00000000
   6        -0.00000000
   7        -0.00000000
   8         0.20792459
   9         0.71615139
  10         0.00000000
Sym=     9a  
Ene=    -0.9044
Spin= Alpha
Occup=    0.00000
   1        -0.00000000
   2        -0.00000000
   3         0.71615150
   4        -0.20792462
   5        -0.00000000
   6         0.00000000
   7        -0.00000000
   8        -0.71615139
   9         0.20792459
  10        -0.00000000
Sym=    10a  
Ene=    -0.6509
Spin= Alpha
Occup=    0.00000
   1         0.02145245
   2         0.21820674
   3         0.00000000
   4        -0.00000000
   5         0.83149507
   6        -0.02145245
   7        -0.21820676
   8        -0.00000000
   9        -0.00000000
  10         0.83149499
