[Molden Format]
[N_Atoms]
                     2
[Atoms] (AU)
F1          1      9           0.00000000      0.00000000      0.00000000
F2          2      9           0.00000000      0.00000000      3.59047964
[Charge] (Mulliken)
 -4.334310688136611E-013
  4.263256414560601E-013
[GTO] (AU)
   1
   s  14
  1.031094600E+05  1.713099991E-04
  1.528100700E+04  7.123999962E-04
  3.441539200E+03  2.990479984E-03
  9.670948300E+02  1.164036994E-02
  3.140353400E+02  3.968642979E-02
  1.134423000E+02  1.128546094E-01
  4.464472700E+01  2.473650687E-01
  1.894287400E+01  3.672702681E-01
  8.532743000E+00  2.896286985E-01
  3.919401000E+00  7.786681959E-02
  1.568157000E+00  4.562139976E-03
  6.232900000E-01  2.468879987E-03
  2.408610000E-01  1.106309994E-03
  8.430100000E-02  1.739699991E-04
   s  14
  1.031094600E+05 -4.044999995E-05
  1.528100700E+04 -1.682299998E-04
  3.441539200E+03 -7.084299991E-04
  9.670948300E+02 -2.767999996E-03
  3.140353400E+02 -9.611379987E-03
  1.134423000E+02 -2.833957996E-02
  4.464472700E+01 -6.839343991E-02
  1.894287400E+01 -1.237379298E-01
  8.532743000E+00 -1.512859698E-01
  3.919401000E+00 -9.099909988E-03
  1.568157000E+00  3.716257695E-01
  6.232900000E-01  5.500214393E-01
  2.408610000E-01  2.092318697E-01
  8.430100000E-02  8.074639989E-03
   p   9
  2.453302900E+02  1.024860004E-03
  5.691900500E+01  8.344290032E-03
  1.760456800E+01  4.078927016E-02
  6.274995000E+00  1.351370605E-01
  2.447030000E+00  2.798830811E-01
  9.950600000E-01  3.597966414E-01
  4.039730000E-01  3.055347412E-01
  1.548100000E-01  1.354703905E-01
  5.418400000E-02  2.804449011E-02
 
   2
   s  14
  1.031094600E+05  1.713099991E-04
  1.528100700E+04  7.123999962E-04
  3.441539200E+03  2.990479984E-03
  9.670948300E+02  1.164036994E-02
  3.140353400E+02  3.968642979E-02
  1.134423000E+02  1.128546094E-01
  4.464472700E+01  2.473650687E-01
  1.894287400E+01  3.672702681E-01
  8.532743000E+00  2.896286985E-01
  3.919401000E+00  7.786681959E-02
  1.568157000E+00  4.562139976E-03
  6.232900000E-01  2.468879987E-03
  2.408610000E-01  1.106309994E-03
  8.430100000E-02  1.739699991E-04
   s  14
  1.031094600E+05 -4.044999995E-05
  1.528100700E+04 -1.682299998E-04
  3.441539200E+03 -7.084299991E-04
  9.670948300E+02 -2.767999996E-03
  3.140353400E+02 -9.611379987E-03
  1.134423000E+02 -2.833957996E-02
  4.464472700E+01 -6.839343991E-02
  1.894287400E+01 -1.237379298E-01
  8.532743000E+00 -1.512859698E-01
  3.919401000E+00 -9.099909988E-03
  1.568157000E+00  3.716257695E-01
  6.232900000E-01  5.500214393E-01
  2.408610000E-01  2.092318697E-01
  8.430100000E-02  8.074639989E-03
   p   9
  2.453302900E+02  1.024860004E-03
  5.691900500E+01  8.344290032E-03
  1.760456800E+01  4.078927016E-02
  6.274995000E+00  1.351370605E-01
  2.447030000E+00  2.798830811E-01
  9.950600000E-01  3.597966414E-01
  4.039730000E-01  3.055347412E-01
  1.548100000E-01  1.354703905E-01
  5.418400000E-02  2.804449011E-02
 
[MO]
Sym=     1a  
Ene=   -26.5020
Spin= Alpha
Occup=    1.00000
   1         0.70709676
   2        -0.00249351
   3        -0.00000000
   4         0.00000000
   5         0.00018844
   6         0.70709660
   7        -0.00249351
   8         0.00000000
   9        -0.00000000
  10        -0.00018844
Sym=     1a  
Ene=   -26.5020
Spin= Beta
Occup=    1.00000
   1         0.70709676
   2        -0.00249351
   3        -0.00000000
   4         0.00000000
   5         0.00018844
   6         0.70709660
   7        -0.00249351
   8         0.00000000
   9        -0.00000000
  10        -0.00018844
Sym=     2a  
Ene=   -26.5020
Spin= Alpha
Occup=    1.00000
   1        -0.70710872
   2         0.00239003
   3        -0.00000000
   4         0.00000000
   5        -0.00021473
   6         0.70710888
   7        -0.00239003
   8         0.00000000
   9        -0.00000000
  10        -0.00021473
Sym=     2a  
Ene=   -26.5020
Spin= Beta
Occup=    1.00000
   1        -0.70710872
   2         0.00239003
   3        -0.00000000
   4         0.00000000
   5        -0.00021473
   6         0.70710888
   7        -0.00239003
   8         0.00000000
   9        -0.00000000
  10        -0.00021473
Sym=     3a  
Ene=    -1.6696
Spin= Alpha
Occup=    1.00000
   1         0.00095362
   2         0.68814270
   3        -0.00000000
   4         0.00000000
   5         0.02856344
   6         0.00095362
   7         0.68814270
   8        -0.00000000
   9         0.00000000
  10        -0.02856344
Sym=     3a  
Ene=    -1.6696
Spin= Beta
Occup=    1.00000
   1         0.00095362
   2         0.68814270
   3        -0.00000000
   4         0.00000000
   5         0.02856344
   6         0.00095362
   7         0.68814270
   8        -0.00000000
   9         0.00000000
  10        -0.02856344
Sym=     4a  
Ene=    -1.6007
Spin= Alpha
Occup=    1.00000
   1        -0.00351349
   2        -0.72023932
   3        -0.00000000
   4         0.00000000
   5         0.02618924
   6         0.00351349
   7         0.72023932
   8        -0.00000000
   9         0.00000000
  10         0.02618924
Sym=     4a  
Ene=    -1.6007
Spin= Beta
Occup=    1.00000
   1        -0.00351349
   2        -0.72023932
   3        -0.00000000
   4         0.00000000
   5         0.02618924
   6         0.00351349
   7         0.72023932
   8        -0.00000000
   9         0.00000000
  10         0.02618924
Sym=     5a  
Ene=    -0.7753
Spin= Alpha
Occup=    1.00000
   1        -0.00000000
   2        -0.00000000
   3        -0.07190587
   4         0.68587614
   5         0.00000000
   6        -0.00000000
   7        -0.00000000
   8        -0.07190587
   9         0.68587614
  10        -0.00000000
Sym=     5a  
Ene=    -0.7753
Spin= Beta
Occup=    1.00000
   1        -0.00000000
   2        -0.00000000
   3        -0.07190587
   4         0.68587614
   5         0.00000000
   6        -0.00000000
   7        -0.00000000
   8        -0.07190587
   9         0.68587614
  10        -0.00000000
Sym=     6a  
Ene=    -0.7753
Spin= Alpha
Occup=    1.00000
   1         0.00000000
   2         0.00000000
   3         0.68587614
   4         0.07190587
   5        -0.00000000
   6         0.00000000
   7         0.00000000
   8         0.68587614
   9         0.07190587
  10         0.00000000
Sym=     6a  
Ene=    -0.7753
Spin= Beta
Occup=    1.00000
   1         0.00000000
   2         0.00000000
   3         0.68587614
   4         0.07190587
   5        -0.00000000
   6         0.00000000
   7         0.00000000
   8         0.68587614
   9         0.07190587
  10         0.00000000
Sym=     7a  
Ene=    -0.7383
Spin= Alpha
Occup=    1.00000
   1        -0.00000000
   2        -0.00000000
   3         0.18626638
   4        -0.70167521
   5        -0.00000000
   6         0.00000000
   7         0.00000000
   8        -0.18626638
   9         0.70167521
  10        -0.00000000
Sym=     7a  
Ene=    -0.7383
Spin= Beta
Occup=    1.00000
   1        -0.00000000
   2        -0.00000000
   3         0.18626638
   4        -0.70167521
   5        -0.00000000
   6         0.00000000
   7         0.00000000
   8        -0.18626638
   9         0.70167521
  10        -0.00000000
Sym=     8a  
Ene=    -0.7383
Spin= Alpha
Occup=    1.00000
   1        -0.00000000
   2        -0.00000000
   3        -0.70167521
   4        -0.18626638
   5         0.00000000
   6        -0.00000000
   7        -0.00000000
   8         0.70167521
   9         0.18626638
  10        -0.00000000
Sym=     8a  
Ene=    -0.7383
Spin= Beta
Occup=    1.00000
   1        -0.00000000
   2        -0.00000000
   3        -0.70167521
   4        -0.18626638
   5         0.00000000
   6        -0.00000000
   7        -0.00000000
   8         0.70167521
   9         0.18626638
  10        -0.00000000
Sym=     9a  
Ene=    -0.6332
Spin= Alpha
Occup=    1.00000
   1         0.00595737
   2         0.09788097
   3        -0.00000000
   4         0.00000000
   5        -0.66952725
   6         0.00595737
   7         0.09788097
   8         0.00000000
   9         0.00000000
  10         0.66952725
Sym=     9a  
Ene=    -0.6332
Spin= Beta
Occup=    1.00000
   1         0.00595737
   2         0.09788097
   3        -0.00000000
   4         0.00000000
   5        -0.66952725
   6         0.00595737
   7         0.09788097
   8         0.00000000
   9         0.00000000
  10         0.66952725
Sym=    10a  
Ene=    -0.1686
Spin= Alpha
Occup=    0.00000
   1         0.00672320
   2         0.10995310
   3         0.00000000
   4        -0.00000000
   5         0.76044410
   6        -0.00672320
   7        -0.10995310
   8        -0.00000000
   9         0.00000000
  10         0.76044410
Sym=    10a  
Ene=    -0.1686
Spin= Beta
Occup=    0.00000
   1         0.00672320
   2         0.10995310
   3         0.00000000
   4        -0.00000000
   5         0.76044410
   6        -0.00672320
   7        -0.10995310
   8        -0.00000000
   9         0.00000000
  10         0.76044410
