   This run of MOLCAS is using the pymolcas driver

                             OPE
                             OPE          NMOL  CASOP  ENMOLC A   SO
                 OPE        NMOLC        AS  OP EN  MO LC     AS  OP
                OPENM       OL CA        SO  PE NM  OL CA     SOP EN
                OP EN      MO   LC       AS  OP ENMOL  CASO   PENMOL
                OP  EN     MO   LC       AS  OP EN     MO     LC ASO
               OP   E  NMOL  C  AS       OP  EN MO     LC     AS  OP
               OP  E   NMO   LC AS        OPEN  MO     LCASOP EN   M
               O  PEN   MO  LCA  SO
            OPE   NMO   L   CAS    OP
        OPENMOL  CASOP     ENMOL   CASOPE
     OPENMOLCA   SOPENMOLCASOPEN   MOLCASOPE
    OPENMOLCAS   OP           EN   MOL    CAS
    OPENMOLCAS       OP  ENM        O     LCA
    OPENMOLCAS    OPEN  MOLCASO     P  E  NMO
    OPENMOLCAS     OP               E  N  MOL
    OPENMOLCA   SO           PENM   O  L  CAS    OPEN    MO    LCAS
    OPENMOLCA   SOP           ENM   O  L  CAS   OP  EN  MOLC  AS   O
    OPENMOLCA   SOPE           NM      O  LCA   S      OP  EN MO
    OPENMOLC                AS         O  PEN   M      OL  CA  SOPE
    OPENMO        LCASOPE  NMOL        C  ASO   P      ENMOLC     AS
    OPE     NMO      LCA  SO     P     E   NM   OL  CA SO  PE N   MO
          OPENMOLCA            SOPE   NMO        LCAS  O    P  ENMO
     OPENMOLCASOPENMOLCASOPENMOLCASOPENMOLCA
        OPENMOLCASOPENMOLCASOPENMOLCASOPE
            OPENMOLCASOPENMOLCASOPENM
               OPENMOLCASOPENMOLCA        version: ea724fe96-dirty
                   OPENMOLCASO
                       OPE                tag:

 OpenMolcas is free software; you can redistribute it and/or modify it
 under the terms of the GNU Lesser General Public License version 2.1.
 OpenMolcas is distributed in the hope that it will be useful, but it
 is provided "as is" and without any express or implied warranties.
 For more details see the full text of the license in the file
 LICENSE or in <http://www.gnu.org/licenses/>.

                 Copyright (C) The OpenMolcas Authors
           For the author list and the recommended citation,
                   consult the file CONTRIBUTORS.md

           *************************************************
           * pymolcas version py2.28                       *
           *   build c4a6d18ded8cb6cad61d2372a9abd97c      *
           *   (after the EMIL interpreter by V. Veryazov) *
           *************************************************

configuration info
------------------
C Compiler ID: Intel
C flags: -std=gnu99
Fortran Compiler ID: Intel
Fortran flags: -fpp -i8 -r8 -heap-arrays
Definitions: _MOLCAS_;_I8_;_LINUX_
Parallel: OFF (GA=OFF)


   -------------------------------------------------------------------------------
  |
  |              Project: 3.12
  |       Submitted from: /home/grierjones/DDCASPT2/iron_oxo_DDCASPT2/cluster/3.12
  |         Scratch area: /tmp/3.12
  |      Save outputs to: /home/grierjones/DDCASPT2/iron_oxo_DDCASPT2/cluster/3.12
  |               Molcas: /home/grierjones/Test/build
  |
  | Scratch area is empty
  |
  |       MOLCAS_DRIVER = /usr/local/pymolcas
  | MOLCAS_KEEP_WORKDIR = NO
  |  MOLCAS_NEW_WORKDIR = YES
  |       MOLCAS_NPROCS = 1
  |        MOLCAS_PRINT = NORMAL
  |       MOLCAS_SOURCE = /home/grierjones/Test/build
  |    MOLCAS_STRUCTURE = 0
  |
   -------------------------------------------------------------------------------

++ ---------   Input file   ---------

&GATEWAY
coord=3.12.xyz
Basis = ANO-RCC-VDZP
Group = nosymm
Expert
End of Input

&SEWARD
End of Input

&SCF
UHF
charge
2
spin
5
FileOrb
/home/grierjones/DDCASPT2/iron_oxo_DDCASPT2/cluster/3.11/3.11.UhfOrb

>>> COPY $WorkDir/3.12.scf.h5 $CurrDir/

&RASSCF
Title= RASSCF
FileOrb
/home/grierjones/DDCASPT2/iron_oxo_DDCASPT2/cluster/3.11/3.11.RasOrb
NACTEL
10 0 0
RAS2
14
Symmetry
1
Spin
5
charge
2
orblisting
all
ITERation
300 200

>>> COPY $WorkDir/3.12.rasscf.h5 $CurrDir/

>>> COPY $WorkDir/GMJ_Fock_MO.csv $CurrDir/3.12.GMJ_Fock_MO.csv

>>> COPY $WorkDir/GMJ_PT2_Fock_MO.csv $CurrDir/3.12.GMJ_PT2_Fock_MO.csv

&MOTRA
Frozen=0
LUMORB

>>> COPY $WorkDir/GMJ_one_int_indx.csv $CurrDir/3.12.GMJ_one_int_indx.csv

>>> COPY $WorkDir/GMJ_one_int.csv $CurrDir/3.12.GMJ_one_int.csv

>>> COPY $WorkDir/GMJ_two_int_indx.csv $CurrDir/3.12.GMJ_two_int_indx.csv

>>> COPY $WorkDir/GMJ_two_int.csv $CurrDir/3.12.GMJ_two_int.csv

&CASPT2
Frozen
0
MAXITER
50

>>> FOREACH i IN (B,E,F,G,H)

  >>> FOREACH j IN (P,M)

    >>> IF (-FILE GMJ_e2_${i}_${j}.csv)

      >>> COPY $WorkDir/GMJ_RHS_${i}_${j}.csv $CurrDir/GMJ_RHS_${i}_${j}.csv

      >>> COPY $WorkDir/GMJ_IVECW_${i}_${j}.csv $CurrDir/GMJ_IVECW_${i}_${j}.csv

      >>> COPY $WorkDir/GMJ_IVECX_${i}_${j}.csv $CurrDir/GMJ_IVECX_${i}_${j}.csv

      >>> COPY $WorkDir/GMJ_IVECC2_${i}_${j}.csv $CurrDir/GMJ_IVECC2_${i}_${j}.csv

      >>> COPY $WorkDir/GMJ_e2_${i}_${j}.csv $CurrDir/GMJ_e2_${i}_${j}.csv

    >>> END IF

  >>> END FOREACH

>>> END FOREACH

>>> FOREACH i IN (A,C,D)

  >>> IF (-FILE GMJ_e2_$i.csv)

    >>> COPY $WorkDir/GMJ_RHS_$i.csv $CurrDir/GMJ_RHS_$i.csv

    >>> COPY $WorkDir/GMJ_IVECW_$i.csv $CurrDir/GMJ_IVECW_$i.csv

    >>> COPY $WorkDir/GMJ_IVECX_$i.csv $CurrDir/GMJ_IVECX_$i.csv

    >>> COPY $WorkDir/GMJ_IVECC2_$i.csv $CurrDir/GMJ_IVECC2_$i.csv

    >>> COPY $WorkDir/GMJ_e2_$i.csv $CurrDir/GMJ_e2_$i.csv

  >>> END IF

>>> END FOREACH

-- ----------------------------------

--- Start Module: gateway at Tue Dec 24 09:50:36 2024 ---
 
()()()()()()()()()()()()()()()()()()()()()()()()()()()()()()()()()()()()()()()()()()()()()()()()()()

                                              &GATEWAY

                                   only a single process is used
                       available to each process: 2.0 GB of memory, 1 thread?
()()()()()()()()()()()()()()()()()()()()()()()()()()()()()()()()()()()()()()()()()()()()()()()()()()
 
 ###############################################################################
 ###############################################################################
 ###                                                                         ###
 ###                                                                         ###
 ###                                                                         ###
 ###    WARNING: EXPERT option is ON!                                        ###
 ###                                                                         ###
 ###                                                                         ###
 ###############################################################################
 ###############################################################################
 
++    Symmetry information:
      ---------------------
 
                    Character Table for C1 
 
                             E  
                    a        1  x, y, xy, Rz, z, xz, Ry, yz, Rx, I
--
 
 
++    Basis set information:
      ----------------------
 
 
      Basis set label: O.ANO-RCC...3S2P1D.
 
      Electronic valence basis set:
      ------------------
      Associated Effective Charge   8.000000 au
      Associated Actual Charge      8.000000 au
      Nuclear Model: Point charge
 
      Shell  nPrim  nBasis  Cartesian Spherical Contaminant
         s      14       3        X                  
         p       9       2        X                  
         d       4       1                 X         
 
 
      Basis set label: FE.ANO-RCC...5S4P2D1F.
 
      Electronic valence basis set:
      ------------------
      Associated Effective Charge  26.000000 au
      Associated Actual Charge     26.000000 au
      Nuclear Model: Point charge
 
      Shell  nPrim  nBasis  Cartesian Spherical Contaminant
         s      21       5        X                  
         p      15       4        X                  
         d      10       2                 X         
         f       6       1                 X         
--
 
 
++    Molecular structure info:
      -------------------------
 
                    ************************************************ 
                    **** Cartesian Coordinates / Bohr, Angstrom **** 
                    ************************************************ 
 
     Center  Label                x              y              z                     x              y              z
        1      O1               0.000000       0.000000       4.459225              0.000000       0.000000       2.359720
        2      FE2              0.000000       0.000000      -1.435663              0.000000       0.000000      -0.759720
--
 
 
            Nuclear Potential Energy             35.28481388 au
 
 ###############################################################################
 ###############################################################################
 ###                                                                         ###
 ###                                                                         ###
 ###    There were warnings during the execution                             ###
 ###    Please, check the output with care!                                  ###
 ###                                                                         ###
 ###                                                                         ###
 ###############################################################################
 ###############################################################################
--- Stop Module: gateway at Tue Dec 24 09:50:36 2024 /rc=_RC_ALL_IS_WELL_ ---
*** files: xmldump
    saved to directory /home/grierjones/DDCASPT2/iron_oxo_DDCASPT2/cluster/3.12

--- Start Module: seward at Tue Dec 24 09:50:36 2024 ---
 
()()()()()()()()()()()()()()()()()()()()()()()()()()()()()()()()()()()()()()()()()()()()()()()()()()

                                              &SEWARD

                                   only a single process is used
                       available to each process: 2.0 GB of memory, 1 thread?
()()()()()()()()()()()()()()()()()()()()()()()()()()()()()()()()()()()()()()()()()()()()()()()()()()
 
 ###############################################################################
 ###############################################################################
 ###                                                                         ###
 ###                                                                         ###
 ###                                                                         ###
 ###    WARNING: EXPERT option is ON!                                        ###
 ###                                                                         ###
 ###                                                                         ###
 ###############################################################################
 ###############################################################################
               SEWARD will generate:
                  Multipole Moment integrals up to order  2
                  Kinetic Energy integrals
                  Nuclear Attraction integrals (point charge)
                  One-Electron Hamiltonian integrals
                  Velocity integrals
                  Relativistic Douglas-Kroll-Hess integrals:
                    - Parametrization         : EXP
                    - DKH order of Hamiltonian: 2
                    - DKH order of Properties : 0
                         - multipole moment operators
                         - electric potential operators
                         - contact operators
                  Atomic mean-field integrals
                  Two-Electron Repulsion integrals
 
                   Integrals are discarded if absolute value <: 0.10E-13
                   Integral cutoff threshold is set to       <: 0.10E-15
 
            Nuclear Potential Energy             35.28481388 au
 
 
      Basis set specifications :
      Symmetry species         a  
      Basis functions           48
 
 
  Input file to MOLDEN was generated!
 
 ###############################################################################
 ###############################################################################
 ###                                                                         ###
 ###                                                                         ###
 ###    There were warnings during the execution                             ###
 ###    Please, check the output with care!                                  ###
 ###                                                                         ###
 ###                                                                         ###
 ###############################################################################
 ###############################################################################
--- Stop Module: seward at Tue Dec 24 09:50:37 2024 /rc=_RC_ALL_IS_WELL_ ---
*** files: 3.12.GssOrb 3.12.guessorb.h5 3.12.guessorb.molden xmldump
    saved to directory /home/grierjones/DDCASPT2/iron_oxo_DDCASPT2/cluster/3.12

*** symbolic link created: INPORB -> 3.12.GssOrb
--- Start Module: scf at Tue Dec 24 09:50:37 2024 ---
 
()()()()()()()()()()()()()()()()()()()()()()()()()()()()()()()()()()()()()()()()()()()()()()()()()()

                                                &SCF

                                   only a single process is used
                       available to each process: 2.0 GB of memory, 1 thread?
()()()()()()()()()()()()()()()()()()()()()()()()()()()()()()()()()()()()()()()()()()()()()()()()()()
 
 *** Possible bug in opening file
 *** isFreeUnit resets the unit number
++    Input section:
      --------------
 
      Header of the integral files:
      
       Integrals generated by seward 4.2.0  , Tue Dec 24 09:50:37 2024
 
 
      Cartesian coordinates in Angstrom:
      -----------------------------------------------------
      No.  Label        X            Y            Z        
      -----------------------------------------------------
       1   O1         0.00000000   0.00000000   2.35972000
       2   FE2        0.00000000   0.00000000  -0.75972000
      -----------------------------------------------------
      Nuclear repulsion energy =   35.28481388
--
 
++    Orbital specifications:
      -----------------------
 
      Symmetry species               1
                                     a
      Frozen orbitals                0
      Occupied orbitals alpha       18
      Occupied orbitals beta        14
      Secondary orbitals alpha      30
      Secondary orbitals beta       34
      Deleted orbitals               0
      Total number of orbitals      48
      Number of basis functions     48
--
 
      Molecular charge                           2.000
 
++    Optimization specifications:
      ----------------------------
 
      SCF Algorithm: Conventional USCF
      D(i)-D(i-1) density differences are used
      Number of density matrices in core                5
      Maximum number of NDDO SCF iterations           400
      Maximum number of HF SCF iterations             400
      Threshold for SCF energy change            0.10E-08
      Threshold for density matrix               0.10E-03
      Threshold for Fock matrix                  0.15E-03
      Threshold for linear dependence            0.10E-08
      Threshold at which DIIS is turned on       0.15E+00
      Threshold at which QNR/C2DIIS is turned on 0.75E-01
      Threshold for Norm(delta) (QNR/C2DIIS)     0.20E-04
      DIIS extrapolation of the SCF procedure
      All orbitals punched on: UHFORB
--
 
      Input vectors read from INPORB
      Orbital file label: * UHF orbitals
 
 
++ Convergence information
                               UHF SCF        iterations: Energy and convergence statistics
 
Iter     Tot. SCF        One-elec.       Two-elec.     Energy      Max Dij or  Max Fij      DNorm      TNorm      AccCon     Time
         Energy          Energy          Energy        Change      Delta Norm                                                in Sec.
 
 The total and one-electron energies are shifted by a value of      1000. a.u.
 
   1  -345.196992654  -915.998055796   535.516249259   0.00E+00    0.20E-02*   0.28E-03*    0.80E+01   0.18E+03   None         0.
   2  -345.196993895  -916.007489425   535.525681647  -0.12E-05*   0.10E-02*   0.16E-03*    0.47E-02   0.18E+03   EDIIS        0.
   3  -345.196994309  -916.002692888   535.520884696  -0.41E-06*   0.10E-02*   0.46E-04     0.23E-02   0.18E+03   c2DIIS       0.
   4  -345.196994421  -916.006978543   535.525170238  -0.11E-06*   0.12E-02*   0.83E-04     0.22E-02   0.18E+03   QNRc2DIIS    0.
   5  -345.196994582  -916.009358304   535.527549839  -0.16E-06*   0.41E-02*   0.65E-04     0.16E-02   0.18E+03   QNRc2DIIS    0.
   6  -345.196994837  -916.011922435   535.530113715  -0.25E-06*   0.84E-03*   0.73E-04     0.55E-02   0.18E+03   QNRc2DIIS    0.
   7  -345.196994868  -916.017440846   535.535632095  -0.31E-07*   0.14E-02*   0.61E-04     0.11E-02   0.18E+03   QNRc2DIIS    0.
   8  -345.196994915  -916.016183346   535.534374548  -0.47E-07*   0.29E-03*   0.26E-04     0.18E-02   0.18E+03   QNRc2DIIS    0.
   9  -345.196994920  -916.016069621   535.534260818  -0.48E-08*   0.34E-03*   0.19E-04     0.39E-03   0.18E+03   QNRc2DIIS    0.
  10  -345.196994924  -916.016321717   535.534512910  -0.36E-08*   0.32E-04*   0.32E-05     0.47E-03   0.18E+03   QNRc2DIIS    0.
  11  -345.196994924  -916.016353233   535.534544426  -0.14E-09    0.11E-04    0.19E-05     0.46E-04   0.18E+03   QNRc2DIIS    0.
 
       Convergence after 11 Macro Iterations
--
 
 *****************************************************************************************************************************
 *                                                                                                                           *
 *                                             SCF/KS-DFT Program, Final results                                             *
 *                                                                                                                           *
 *                                                                                                                           *
 *                                                                                                                           *
 *                                                       Final Results                                                       *
 *                                                                                                                           *
 *****************************************************************************************************************************
 
::    Total SCF energy                              -1345.1969949238
      One-electron energy                           -1916.0163532330
      Two-electron energy                             535.5345444261
      Nuclear repulsion energy                         35.2848138831
      Kinetic energy (interpolated)                  1399.3870619978
      Virial theorem                                    0.9612758553
      Total spin, S(S+1)                                7.0172784982
      Total spin, S                                     2.1957890307
      Max non-diagonal density matrix element           0.0000067706
      Max non-diagonal Fock matrix element              0.0000010463
 
 
      All orbitals with orbital energies smaller than  E(LUMO)+0.5 are printed
 
++    Molecular orbitals:
      -------------------
 
      Title: UHF orbitals (alpha)

      Molecular orbitals for symmetry species 1: a  
 
          Orbital            1         2         3         4         5         6         7         8         9        10    
          Energy         -263.9719  -32.7519  -27.8346  -27.8346  -27.8057  -21.5337   -4.6670   -3.2437   -3.2437   -3.1733
          Occ. No.          1.0000    1.0000    1.0000    1.0000    1.0000    1.0000    1.0000    1.0000    1.0000    1.0000
 
        1 O1     1s         0.0000   -0.0000    0.0000    0.0000   -0.0000    1.0000   -0.0000   -0.0000   -0.0000   -0.0000
        2 O1     2s         0.0000   -0.0001    0.0000    0.0000   -0.0000    0.0002   -0.0003   -0.0000   -0.0000   -0.0000
        3 O1     3s        -0.0000   -0.0001    0.0000    0.0000   -0.0000   -0.0011   -0.0004   -0.0000   -0.0000   -0.0002
        4 O1     2px        0.0000    0.0000    0.0000   -0.0000   -0.0000   -0.0000    0.0000   -0.0000    0.0001   -0.0000
        5 O1     3px        0.0000    0.0000    0.0000   -0.0000    0.0000    0.0000    0.0000   -0.0001    0.0002    0.0000
        6 O1     2py       -0.0000   -0.0000   -0.0000   -0.0000    0.0000    0.0000   -0.0000    0.0001    0.0000    0.0000
        7 O1     3py       -0.0000   -0.0000   -0.0000   -0.0000   -0.0000   -0.0000   -0.0000    0.0002    0.0001   -0.0000
        8 O1     2pz       -0.0000    0.0000   -0.0000   -0.0000    0.0000    0.0000    0.0004    0.0000    0.0000   -0.0002
        9 O1     3pz       -0.0000    0.0000   -0.0000   -0.0000    0.0000    0.0001    0.0008    0.0000    0.0000    0.0005
       10 O1     3d2-      -0.0000   -0.0000    0.0000    0.0000    0.0000    0.0000   -0.0000    0.0000   -0.0000    0.0000
       11 O1     3d1-       0.0000    0.0000    0.0000    0.0000   -0.0000    0.0000    0.0000   -0.0000   -0.0000    0.0000
       12 O1     3d0        0.0000   -0.0000   -0.0000   -0.0000    0.0000   -0.0015   -0.0002   -0.0000   -0.0000    0.0000
       13 O1     3d1+      -0.0000   -0.0000   -0.0000    0.0000    0.0000   -0.0000   -0.0000    0.0000   -0.0000   -0.0000
       14 O1     3d2+      -0.0000   -0.0000   -0.0000   -0.0000    0.0000    0.0000   -0.0000    0.0000    0.0000    0.0000
       15 FE2    1s         1.0000    0.0000    0.0000    0.0000   -0.0000    0.0000   -0.0000    0.0000    0.0000    0.0000
       16 FE2    2s        -0.0000    1.0000    0.0000    0.0000   -0.0009    0.0000   -0.0023    0.0000    0.0000   -0.0000
       17 FE2    3s         0.0000    0.0023   -0.0000   -0.0000   -0.0000    0.0000    0.9999    0.0000    0.0000   -0.0041
       18 FE2    4s        -0.0000   -0.0001   -0.0000   -0.0000    0.0000    0.0001    0.0062    0.0000    0.0000    0.0024
       19 FE2    5s         0.0000    0.0002   -0.0000   -0.0000    0.0000   -0.0000   -0.0037    0.0000    0.0000   -0.0012
       20 FE2    2px       -0.0000    0.0000   -0.4015    0.9158   -0.0000   -0.0000   -0.0000    0.0008   -0.0019    0.0000
       21 FE2    3px       -0.0000    0.0000   -0.0008    0.0019   -0.0000   -0.0000    0.0000   -0.4015    0.9158   -0.0000
       22 FE2    4px       -0.0000   -0.0000    0.0001   -0.0002    0.0000   -0.0000   -0.0000   -0.0006    0.0014   -0.0000
       23 FE2    5px       -0.0000    0.0000   -0.0003    0.0006   -0.0000   -0.0000    0.0000    0.0013   -0.0029    0.0000
       24 FE2    2py        0.0000   -0.0000    0.9158    0.4015    0.0000    0.0000    0.0000   -0.0019   -0.0008   -0.0000
       25 FE2    3py        0.0000   -0.0000    0.0019    0.0008    0.0000    0.0000   -0.0000    0.9158    0.4015    0.0000
       26 FE2    4py        0.0000    0.0000   -0.0002   -0.0001   -0.0000    0.0000    0.0000    0.0014    0.0006    0.0000
       27 FE2    5py        0.0000   -0.0000    0.0006    0.0003    0.0000    0.0000   -0.0000   -0.0029   -0.0013   -0.0000
       28 FE2    2pz        0.0000    0.0009   -0.0000   -0.0000    1.0000    0.0000    0.0000    0.0000    0.0000   -0.0016
       29 FE2    3pz       -0.0000    0.0000   -0.0000   -0.0000    0.0016    0.0000    0.0041   -0.0000   -0.0000    1.0000
       30 FE2    4pz       -0.0000    0.0000    0.0000    0.0000   -0.0001    0.0002    0.0009    0.0000    0.0000    0.0059
       31 FE2    5pz       -0.0000    0.0001   -0.0000   -0.0000    0.0004    0.0001   -0.0001   -0.0000   -0.0000   -0.0053
       32 FE2    3d2-      -0.0000   -0.0000    0.0000   -0.0000   -0.0000   -0.0000   -0.0000    0.0000    0.0000   -0.0000
       33 FE2    4d2-       0.0000    0.0000   -0.0000    0.0000    0.0000   -0.0000    0.0000   -0.0000    0.0000    0.0000
       34 FE2    3d1-      -0.0000   -0.0000    0.0001    0.0000    0.0000    0.0000   -0.0000    0.0021    0.0009    0.0000
       35 FE2    4d1-       0.0000    0.0000   -0.0001   -0.0000    0.0000    0.0000    0.0000   -0.0000   -0.0000    0.0000
       36 FE2    3d0       -0.0000   -0.0004   -0.0000   -0.0000    0.0001    0.0000   -0.0124   -0.0000   -0.0000    0.0019
       37 FE2    4d0        0.0000    0.0004    0.0000    0.0000   -0.0000    0.0001    0.0048    0.0000    0.0000    0.0013
       38 FE2    3d1+       0.0000    0.0000   -0.0000    0.0001   -0.0000   -0.0000    0.0000   -0.0009    0.0021   -0.0000
       39 FE2    4d1+      -0.0000   -0.0000    0.0000   -0.0001   -0.0000   -0.0000   -0.0000    0.0000   -0.0000   -0.0000
       40 FE2    3d2+      -0.0000   -0.0000   -0.0000   -0.0000   -0.0000   -0.0000   -0.0000   -0.0000   -0.0000   -0.0000
       41 FE2    4d2+       0.0000    0.0000    0.0000    0.0000    0.0000   -0.0000    0.0000   -0.0000   -0.0000    0.0000
       42 FE2    4f3-       0.0000   -0.0000   -0.0000   -0.0000    0.0000   -0.0000   -0.0000   -0.0000   -0.0000    0.0000
       43 FE2    4f2-       0.0000   -0.0000    0.0000   -0.0000   -0.0000   -0.0000   -0.0000    0.0000   -0.0000   -0.0000
       44 FE2    4f1-       0.0000   -0.0000   -0.0002   -0.0001   -0.0000    0.0000   -0.0000   -0.0069   -0.0030   -0.0000
       45 FE2    4f0        0.0000   -0.0000    0.0000    0.0000   -0.0001    0.0000   -0.0001    0.0000    0.0000   -0.0017
       46 FE2    4f1+      -0.0000    0.0000    0.0001   -0.0002    0.0000   -0.0000    0.0000    0.0030   -0.0069    0.0000
       47 FE2    4f2+       0.0000   -0.0000    0.0000    0.0000   -0.0000   -0.0000   -0.0000    0.0000    0.0000   -0.0000
       48 FE2    4f3+       0.0000   -0.0000    0.0000   -0.0000    0.0000   -0.0000   -0.0000    0.0000   -0.0000    0.0000
 
          Orbital           11        12        13        14        15        16        17        18        19        20    
          Energy           -2.0486   -1.4321   -1.4321   -0.9746   -0.9746   -0.9324   -0.9047   -0.9047   -0.6056   -0.3965
          Occ. No.          1.0000    1.0000    1.0000    1.0000    1.0000    1.0000    1.0000    1.0000    0.0000    0.0000
 
        1 O1     1s        -0.0003    0.0000    0.0000   -0.0000   -0.0000   -0.0024    0.0000    0.0000    0.0008   -0.0098
        2 O1     2s         0.9976    0.0000    0.0000   -0.0000   -0.0000   -0.0304    0.0000    0.0000    0.0245   -0.0980
        3 O1     3s        -0.0670   -0.0000   -0.0000   -0.0000   -0.0000   -0.0039    0.0000    0.0000   -0.0133    0.0102
        4 O1     2px       -0.0000    0.9066   -0.3975    0.0000   -0.0000   -0.0000    0.0045   -0.0103    0.0000    0.0000
        5 O1     3px        0.0000   -0.1287    0.0564    0.0000   -0.0000    0.0000    0.0013   -0.0029    0.0000    0.0000
        6 O1     2py        0.0000    0.3975    0.9066   -0.0000   -0.0000    0.0000   -0.0103   -0.0045   -0.0001   -0.0000
        7 O1     3py       -0.0000   -0.0564   -0.1287   -0.0000   -0.0000   -0.0000   -0.0029   -0.0013   -0.0000   -0.0000
        8 O1     2pz       -0.0196    0.0000    0.0001   -0.0000   -0.0000   -0.0615    0.0000    0.0000    0.9731    0.2269
        9 O1     3pz       -0.0030   -0.0000   -0.0000    0.0000    0.0000   -0.0008    0.0000    0.0000    0.1084    0.0165
       10 O1     3d2-       0.0000    0.0000   -0.0000    0.0000   -0.0000   -0.0000    0.0000   -0.0000    0.0000   -0.0000
       11 O1     3d1-       0.0000   -0.0022   -0.0049   -0.0000   -0.0000   -0.0000   -0.0006   -0.0002    0.0000   -0.0000
       12 O1     3d0       -0.0491   -0.0000   -0.0000    0.0000    0.0000    0.0034   -0.0000   -0.0000   -0.0093    0.0061
       13 O1     3d1+      -0.0000   -0.0049    0.0022    0.0000   -0.0000    0.0000    0.0002   -0.0006   -0.0000    0.0000
       14 O1     3d2+       0.0000   -0.0000   -0.0000    0.0000    0.0000   -0.0000    0.0000    0.0000    0.0000   -0.0000
       15 FE2    1s        -0.0000   -0.0000   -0.0000   -0.0000   -0.0000   -0.0000    0.0000    0.0000    0.0004    0.0001
       16 FE2    2s        -0.0001   -0.0000   -0.0000    0.0000    0.0000    0.0003    0.0000    0.0000    0.0028    0.0007
       17 FE2    3s        -0.0006    0.0000    0.0000    0.0000    0.0000    0.0116   -0.0000   -0.0000    0.0173   -0.0030
       18 FE2    4s        -0.0028   -0.0000   -0.0000    0.0000    0.0000    0.0309    0.0000    0.0000   -0.0563    0.9971
       19 FE2    5s        -0.0029   -0.0000   -0.0000   -0.0000   -0.0000   -0.0038   -0.0000   -0.0000    0.0103    0.0053
       20 FE2    2px       -0.0000    0.0000   -0.0000    0.0000   -0.0000    0.0000    0.0000   -0.0001   -0.0000   -0.0000
       21 FE2    3px       -0.0000   -0.0001    0.0000    0.0000   -0.0000    0.0000    0.0009   -0.0021   -0.0000    0.0000
       22 FE2    4px       -0.0000    0.0030   -0.0013    0.0000    0.0000   -0.0000   -0.0089    0.0204    0.0000   -0.0000
       23 FE2    5px       -0.0000    0.0008   -0.0003   -0.0000    0.0000   -0.0000   -0.0003    0.0007   -0.0000   -0.0000
       24 FE2    2py        0.0000    0.0000    0.0000   -0.0000   -0.0000   -0.0000   -0.0001   -0.0000    0.0000    0.0000
       25 FE2    3py        0.0000   -0.0000   -0.0001   -0.0000   -0.0000   -0.0000   -0.0021   -0.0009    0.0000   -0.0000
       26 FE2    4py        0.0000    0.0013    0.0030    0.0000    0.0000    0.0000    0.0204    0.0089   -0.0000    0.0000
       27 FE2    5py        0.0000    0.0003    0.0008    0.0000    0.0000    0.0000    0.0007    0.0003    0.0000    0.0000
       28 FE2    2pz       -0.0000    0.0000    0.0000   -0.0000   -0.0000   -0.0001    0.0000    0.0000    0.0005    0.0001
       29 FE2    3pz       -0.0015    0.0000    0.0000   -0.0000   -0.0000   -0.0026    0.0000    0.0000    0.0132   -0.0003
       30 FE2    4pz       -0.0033   -0.0000   -0.0000    0.0000    0.0000    0.0436   -0.0000   -0.0000   -0.0438    0.1697
       31 FE2    5pz       -0.0015   -0.0000   -0.0000    0.0000    0.0000    0.0015   -0.0000   -0.0000   -0.0040    0.0216
       32 FE2    3d2-      -0.0000   -0.0000    0.0000    0.7738   -0.6334   -0.0000   -0.0000    0.0000   -0.0000   -0.0000
       33 FE2    4d2-      -0.0000   -0.0000    0.0000   -0.0056    0.0046   -0.0000   -0.0000    0.0000   -0.0000   -0.0000
       34 FE2    3d1-       0.0000    0.0010    0.0022    0.0000    0.0000    0.0001    0.9157    0.4014    0.0000   -0.0000
       35 FE2    4d1-       0.0000    0.0004    0.0009   -0.0000   -0.0000    0.0000    0.0176    0.0077   -0.0000   -0.0000
       36 FE2    3d0        0.0017   -0.0000   -0.0000    0.0000    0.0000    0.9947   -0.0001   -0.0000    0.1106   -0.0183
       37 FE2    4d0       -0.0014   -0.0000   -0.0000    0.0000    0.0000    0.0154   -0.0000   -0.0000   -0.0060   -0.0038
       38 FE2    3d1+      -0.0000    0.0022   -0.0010   -0.0000    0.0000   -0.0000   -0.4014    0.9157   -0.0000    0.0000
       39 FE2    4d1+      -0.0000    0.0009   -0.0004    0.0000   -0.0000   -0.0000   -0.0077    0.0176    0.0000    0.0000
       40 FE2    3d2+      -0.0000    0.0000    0.0000    0.6334    0.7738   -0.0000   -0.0000   -0.0000   -0.0000   -0.0000
       41 FE2    4d2+      -0.0000    0.0000    0.0000   -0.0046   -0.0056   -0.0000   -0.0000   -0.0000   -0.0000   -0.0000
       42 FE2    4f3-      -0.0000    0.0000    0.0000    0.0000    0.0000    0.0000    0.0000    0.0000    0.0000    0.0000
       43 FE2    4f2-       0.0000    0.0000   -0.0000    0.0014   -0.0011   -0.0000   -0.0000    0.0000   -0.0000    0.0000
       44 FE2    4f1-       0.0000    0.0000    0.0001    0.0000    0.0000    0.0000    0.0022    0.0010   -0.0000    0.0000
       45 FE2    4f0        0.0001   -0.0000   -0.0000    0.0000    0.0000    0.0029   -0.0000   -0.0000   -0.0012    0.0003
       46 FE2    4f1+      -0.0000    0.0001   -0.0000   -0.0000    0.0000   -0.0000   -0.0010    0.0022    0.0000   -0.0000
       47 FE2    4f2+       0.0000   -0.0000   -0.0000    0.0011    0.0014   -0.0000   -0.0000   -0.0000   -0.0000    0.0000
       48 FE2    4f3+      -0.0000    0.0000   -0.0000   -0.0000    0.0000    0.0000   -0.0000    0.0000    0.0000    0.0000
 
          Orbital           21        22        23        24    
          Energy           -0.2501   -0.2501   -0.2369   -0.1435
          Occ. No.          0.0000    0.0000    0.0000    0.0000
 
        1 O1     1s         0.0000    0.0000   -0.0125   -0.0154
        2 O1     2s         0.0000    0.0000   -0.1190   -0.1301
        3 O1     3s        -0.0000   -0.0000    0.0529    0.0161
        4 O1     2px        0.0068   -0.0154    0.0000   -0.0000
        5 O1     3px       -0.0403    0.0919    0.0000   -0.0000
        6 O1     2py       -0.0154   -0.0068   -0.0000    0.0000
        7 O1     3py        0.0919    0.0403   -0.0000    0.0000
        8 O1     2pz        0.0000    0.0000    0.1902   -0.0065
        9 O1     3pz        0.0000    0.0000   -0.0116    0.0767
       10 O1     3d2-       0.0000   -0.0000   -0.0000    0.0000
       11 O1     3d1-      -0.0072   -0.0032   -0.0000   -0.0000
       12 O1     3d0       -0.0000   -0.0000    0.0110   -0.0073
       13 O1     3d1+       0.0032   -0.0072    0.0000    0.0000
       14 O1     3d2+       0.0000    0.0000   -0.0000    0.0000
       15 FE2    1s         0.0000    0.0000    0.0000    0.0001
       16 FE2    2s         0.0000    0.0000    0.0000    0.0007
       17 FE2    3s         0.0000    0.0000    0.0008    0.0084
       18 FE2    4s         0.0000    0.0000   -0.1608    0.0374
       19 FE2    5s         0.0000    0.0000    0.0329    1.0037
       20 FE2    2px       -0.0001    0.0001   -0.0000    0.0000
       21 FE2    3px        0.0009   -0.0020    0.0000   -0.0000
       22 FE2    4px       -0.3894    0.8883   -0.0000    0.0000
       23 FE2    5px       -0.0428    0.0977   -0.0000    0.0000
       24 FE2    2py        0.0001    0.0001    0.0000   -0.0000
       25 FE2    3py       -0.0020   -0.0009   -0.0000    0.0000
       26 FE2    4py        0.8883    0.3894    0.0000   -0.0000
       27 FE2    5py        0.0977    0.0428    0.0000   -0.0000
       28 FE2    2pz        0.0000    0.0000    0.0001    0.0001
       29 FE2    3pz       -0.0000   -0.0000   -0.0038    0.0042
       30 FE2    4pz       -0.0000   -0.0000    0.9774    0.0017
       31 FE2    5pz       -0.0000   -0.0000    0.1112    0.0093
       32 FE2    3d2-       0.0000   -0.0000   -0.0000    0.0000
       33 FE2    4d2-      -0.0000    0.0000    0.0000    0.0000
       34 FE2    3d1-      -0.0232   -0.0102    0.0000    0.0000
       35 FE2    4d1-       0.0212    0.0093    0.0000    0.0000
       36 FE2    3d0        0.0000    0.0000   -0.0255    0.0119
       37 FE2    4d0       -0.0000   -0.0000    0.0212    0.0102
       38 FE2    3d1+       0.0102   -0.0232   -0.0000   -0.0000
       39 FE2    4d1+      -0.0093    0.0212   -0.0000   -0.0000
       40 FE2    3d2+       0.0000    0.0000   -0.0000    0.0000
       41 FE2    4d2+      -0.0000   -0.0000    0.0000    0.0000
       42 FE2    4f3-       0.0000    0.0000   -0.0000   -0.0000
       43 FE2    4f2-      -0.0000    0.0000    0.0000   -0.0000
       44 FE2    4f1-       0.0008    0.0004    0.0000   -0.0000
       45 FE2    4f0       -0.0000   -0.0000    0.0003   -0.0006
       46 FE2    4f1+      -0.0004    0.0008   -0.0000    0.0000
       47 FE2    4f2+      -0.0000   -0.0000    0.0000   -0.0000
       48 FE2    4f3+      -0.0000    0.0000   -0.0000   -0.0000
--
 
 
  Input file to MOLDEN was generated!
 
 
++    Static properties:
      ------------------
 
 
      LoProp Charges per center
 

                   O1       FE2   
      Nuclear      8.0000  26.0000
      Electronic  -7.0539 -24.9461
 
      Total        0.9461   1.0539
--
 
 
      All orbitals with orbital energies smaller than  E(LUMO)+0.5 are printed
 
++    Molecular orbitals:
      -------------------
 
      Title: UHF orbitals (beta)

      Molecular orbitals for symmetry species 1: a  
 
          Orbital            1         2         3         4         5         6         7         8         9        10    
          Energy         -263.9704  -32.6636  -27.7379  -27.7368  -27.7368  -21.4877   -4.4080   -2.9411   -2.8897   -2.8897
          Occ. No.          1.0000    1.0000    1.0000    1.0000    1.0000    1.0000    1.0000    1.0000    1.0000    1.0000
 
        1 O1     1s         0.0000   -0.0000    0.0000    0.0000    0.0000    1.0000    0.0000   -0.0000    0.0000    0.0000
        2 O1     2s         0.0000   -0.0000    0.0001    0.0000    0.0000   -0.0017    0.0001    0.0005    0.0000    0.0000
        3 O1     3s         0.0000   -0.0000    0.0001    0.0000    0.0000    0.0003   -0.0001   -0.0002    0.0000    0.0000
        4 O1     2px       -0.0000    0.0000    0.0000    0.0000   -0.0000    0.0000   -0.0000    0.0000    0.0007   -0.0003
        5 O1     3px       -0.0000    0.0000    0.0000    0.0000   -0.0000   -0.0000   -0.0000   -0.0000    0.0000   -0.0000
        6 O1     2py        0.0000   -0.0000   -0.0000    0.0000    0.0000   -0.0000    0.0000   -0.0000    0.0003    0.0007
        7 O1     3py        0.0000   -0.0000   -0.0000    0.0000    0.0000    0.0000    0.0000    0.0000    0.0000    0.0000
        8 O1     2pz       -0.0000    0.0000   -0.0001   -0.0000   -0.0000   -0.0001    0.0004    0.0000    0.0000    0.0000
        9 O1     3pz       -0.0000    0.0000   -0.0001   -0.0000   -0.0000   -0.0002    0.0009    0.0008   -0.0000   -0.0000
       10 O1     3d2-      -0.0000   -0.0000   -0.0000   -0.0000   -0.0000   -0.0000   -0.0000   -0.0000    0.0000    0.0000
       11 O1     3d1-      -0.0000    0.0000   -0.0000   -0.0000   -0.0000   -0.0000   -0.0000    0.0000   -0.0000   -0.0001
       12 O1     3d0        0.0000   -0.0000    0.0000    0.0000    0.0000    0.0015   -0.0003   -0.0000   -0.0000   -0.0000
       13 O1     3d1+       0.0000   -0.0000    0.0000   -0.0000    0.0000    0.0000    0.0000   -0.0000   -0.0001    0.0000
       14 O1     3d2+      -0.0000   -0.0000   -0.0000    0.0000    0.0000   -0.0000   -0.0000   -0.0000   -0.0000   -0.0000
       15 FE2    1s         1.0000    0.0000   -0.0000   -0.0000   -0.0000   -0.0000   -0.0000    0.0000   -0.0000   -0.0000
       16 FE2    2s        -0.0000    1.0000   -0.0009   -0.0000   -0.0000   -0.0000    0.0002   -0.0000   -0.0000   -0.0000
       17 FE2    3s         0.0000   -0.0002    0.0000    0.0000    0.0000   -0.0000    1.0000   -0.0047    0.0000    0.0000
       18 FE2    4s        -0.0000    0.0002   -0.0001   -0.0000   -0.0000   -0.0002    0.0077    0.0026   -0.0000   -0.0000
       19 FE2    5s         0.0000   -0.0002   -0.0000   -0.0000   -0.0000   -0.0001   -0.0054   -0.0011    0.0000    0.0000
       20 FE2    2px        0.0000    0.0000    0.0000    0.9159   -0.4015    0.0000    0.0000   -0.0000    0.0018   -0.0008
       21 FE2    3px        0.0000   -0.0000   -0.0000   -0.0018    0.0008    0.0000   -0.0000   -0.0000    0.9157   -0.4015
       22 FE2    4px        0.0000    0.0000    0.0000    0.0003   -0.0001    0.0000    0.0000    0.0000    0.0068   -0.0030
       23 FE2    5px        0.0000   -0.0000   -0.0000   -0.0007    0.0003    0.0000    0.0000    0.0000   -0.0079    0.0035
       24 FE2    2py       -0.0000   -0.0000   -0.0001    0.4015    0.9159   -0.0000   -0.0000    0.0000    0.0008    0.0018
       25 FE2    3py       -0.0000    0.0000    0.0000   -0.0008   -0.0018   -0.0000    0.0000    0.0000    0.4015    0.9157
       26 FE2    4py       -0.0000   -0.0000   -0.0000    0.0001    0.0003   -0.0000   -0.0000   -0.0000    0.0030    0.0068
       27 FE2    5py       -0.0000    0.0000    0.0000   -0.0003   -0.0007   -0.0000   -0.0000   -0.0000   -0.0035   -0.0079
       28 FE2    2pz        0.0000    0.0009    1.0000    0.0000    0.0001   -0.0000   -0.0000    0.0010   -0.0000   -0.0000
       29 FE2    3pz       -0.0000    0.0000   -0.0011   -0.0000   -0.0000   -0.0000    0.0047    0.9997   -0.0000   -0.0000
       30 FE2    4pz       -0.0000    0.0000    0.0002    0.0000    0.0000   -0.0003    0.0008    0.0106   -0.0000   -0.0000
       31 FE2    5pz       -0.0000    0.0000   -0.0007   -0.0000   -0.0000   -0.0001   -0.0002   -0.0093    0.0000    0.0000
       32 FE2    3d2-       0.0000    0.0000    0.0000    0.0000   -0.0000   -0.0000    0.0000    0.0000   -0.0000   -0.0000
       33 FE2    4d2-       0.0000    0.0000   -0.0000    0.0000    0.0000   -0.0000   -0.0000   -0.0000    0.0000    0.0000
       34 FE2    3d1-      -0.0000   -0.0000   -0.0000    0.0000    0.0001   -0.0000    0.0000    0.0000    0.0005    0.0012
       35 FE2    4d1-       0.0000    0.0000    0.0000   -0.0000   -0.0001   -0.0000   -0.0000   -0.0000    0.0004    0.0009
       36 FE2    3d0        0.0000    0.0001    0.0001    0.0000    0.0000   -0.0001    0.0018    0.0042   -0.0000   -0.0000
       37 FE2    4d0       -0.0000    0.0000   -0.0001   -0.0000   -0.0000   -0.0002    0.0004   -0.0004   -0.0000   -0.0000
       38 FE2    3d1+       0.0000    0.0000    0.0000    0.0001   -0.0000    0.0000   -0.0000   -0.0000    0.0012   -0.0005
       39 FE2    4d1+      -0.0000   -0.0000   -0.0000   -0.0001    0.0000    0.0000    0.0000    0.0000    0.0009   -0.0004
       40 FE2    3d2+       0.0000    0.0000    0.0000    0.0000   -0.0000   -0.0000    0.0000    0.0000    0.0000    0.0000
       41 FE2    4d2+       0.0000    0.0000   -0.0000   -0.0000   -0.0000   -0.0000   -0.0000   -0.0000   -0.0000   -0.0000
       42 FE2    4f3-      -0.0000    0.0000   -0.0000   -0.0000   -0.0000   -0.0000    0.0000   -0.0000   -0.0000   -0.0000
       43 FE2    4f2-      -0.0000    0.0000    0.0000    0.0000    0.0000   -0.0000    0.0000    0.0000    0.0000    0.0000
       44 FE2    4f1-      -0.0000    0.0000   -0.0000    0.0003    0.0007   -0.0000    0.0000   -0.0000    0.0051    0.0117
       45 FE2    4f0       -0.0000    0.0000   -0.0010   -0.0000   -0.0000   -0.0000    0.0002   -0.0199   -0.0000   -0.0000
       46 FE2    4f1+       0.0000   -0.0000    0.0000    0.0007   -0.0003    0.0000   -0.0000    0.0000    0.0117   -0.0051
       47 FE2    4f2+      -0.0000    0.0000    0.0000   -0.0000   -0.0000   -0.0000    0.0000    0.0000   -0.0000   -0.0000
       48 FE2    4f3+      -0.0000    0.0000   -0.0000   -0.0000    0.0000   -0.0000    0.0000   -0.0000   -0.0000    0.0000
 
          Orbital           11        12        13        14        15        16        17        18        19        20    
          Energy           -1.8747   -1.3922   -0.7774   -0.7774   -0.5725   -0.5725   -0.3845   -0.2310   -0.2273   -0.2273
          Occ. No.          1.0000    1.0000    1.0000    1.0000    0.0000    0.0000    0.0000    0.0000    0.0000    0.0000
 
        1 O1     1s         0.0020    0.0002    0.0000    0.0000    0.0000   -0.0000   -0.0115   -0.0111   -0.0000   -0.0000
        2 O1     2s         0.9995    0.0149    0.0000    0.0000    0.0000   -0.0000   -0.1259   -0.1188   -0.0000   -0.0000
        3 O1     3s        -0.0412   -0.0095    0.0000    0.0000   -0.0000    0.0000    0.0080    0.0452    0.0000    0.0000
        4 O1     2px        0.0000    0.0000    0.1323   -0.0580   -0.3935   -0.8975   -0.0000   -0.0000    0.0396   -0.0903
        5 O1     3px       -0.0000   -0.0000    0.0144   -0.0063   -0.0523   -0.1193   -0.0000   -0.0000   -0.0199    0.0453
        6 O1     2py       -0.0000   -0.0001    0.0580    0.1324    0.8974   -0.3935    0.0000    0.0000   -0.0903   -0.0396
        7 O1     3py        0.0000    0.0000    0.0063    0.0144    0.1192   -0.0523    0.0000    0.0000    0.0453    0.0199
        8 O1     2pz       -0.0161    0.9913    0.0000    0.0000    0.0001   -0.0000    0.0838    0.0782   -0.0000   -0.0000
        9 O1     3pz       -0.0089   -0.1226    0.0000    0.0000    0.0000   -0.0000   -0.0405   -0.0965   -0.0000   -0.0000
       10 O1     3d2-      -0.0000    0.0000    0.0000   -0.0000    0.0000    0.0000   -0.0000   -0.0000   -0.0000    0.0000
       11 O1     3d1-      -0.0000    0.0000   -0.0014   -0.0033   -0.0042    0.0018    0.0000    0.0000   -0.0075   -0.0033
       12 O1     3d0        0.0560   -0.0041   -0.0000   -0.0000   -0.0000    0.0000    0.0031    0.0060    0.0000    0.0000
       13 O1     3d1+       0.0000   -0.0000   -0.0033    0.0014    0.0018    0.0042   -0.0000   -0.0000    0.0033   -0.0075
       14 O1     3d2+      -0.0000    0.0000   -0.0000   -0.0000    0.0000   -0.0000   -0.0000   -0.0000   -0.0000   -0.0000
       15 FE2    1s        -0.0000    0.0000    0.0000    0.0000    0.0000   -0.0000   -0.0000   -0.0001   -0.0000   -0.0000
       16 FE2    2s        -0.0002    0.0001    0.0000    0.0000    0.0000   -0.0000   -0.0005   -0.0011   -0.0000   -0.0000
       17 FE2    3s        -0.0017    0.0016   -0.0000   -0.0000    0.0000   -0.0000   -0.0086   -0.0046   -0.0000   -0.0000
       18 FE2    4s        -0.0053   -0.0065   -0.0000   -0.0000   -0.0000    0.0000    0.9726   -0.2392   -0.0000   -0.0000
       19 FE2    5s        -0.0029    0.0006    0.0000    0.0000   -0.0000    0.0000    0.0660   -0.0353   -0.0000   -0.0000
       20 FE2    2px        0.0000    0.0000   -0.0001    0.0000    0.0000    0.0001    0.0000   -0.0000    0.0001   -0.0002
       21 FE2    3px       -0.0000    0.0000   -0.0021    0.0009    0.0015    0.0033   -0.0000   -0.0000    0.0026   -0.0060
       22 FE2    4px        0.0000    0.0000    0.0402   -0.0176   -0.0018   -0.0041   -0.0000    0.0000   -0.3938    0.8982
       23 FE2    5px        0.0000    0.0000    0.0018   -0.0008   -0.0001   -0.0002   -0.0000    0.0000   -0.0494    0.1127
       24 FE2    2py       -0.0000   -0.0000   -0.0000   -0.0001   -0.0001    0.0000   -0.0000    0.0000   -0.0002   -0.0001
       25 FE2    3py        0.0000   -0.0000   -0.0009   -0.0021   -0.0033    0.0015    0.0000    0.0000   -0.0060   -0.0026
       26 FE2    4py       -0.0000   -0.0000    0.0176    0.0402    0.0041   -0.0018    0.0000   -0.0000    0.8982    0.3938
       27 FE2    5py       -0.0000   -0.0000    0.0008    0.0018    0.0002   -0.0001    0.0000   -0.0000    0.1127    0.0494
       28 FE2    2pz       -0.0001    0.0001    0.0000    0.0000    0.0000   -0.0000   -0.0001   -0.0003   -0.0000   -0.0000
       29 FE2    3pz       -0.0029    0.0041    0.0000    0.0000    0.0000   -0.0000   -0.0049   -0.0117   -0.0000   -0.0000
       30 FE2    4pz       -0.0055   -0.0043   -0.0000   -0.0000   -0.0000    0.0000    0.2105    0.9358    0.0000    0.0000
       31 FE2    5pz       -0.0019   -0.0003   -0.0000   -0.0000   -0.0000    0.0000    0.0282    0.1150    0.0000    0.0000
       32 FE2    3d2-      -0.0000    0.0000    0.0000   -0.0000    0.0000    0.0000   -0.0000   -0.0000   -0.0000   -0.0000
       33 FE2    4d2-      -0.0000    0.0000    0.0000    0.0000   -0.0000    0.0000   -0.0000   -0.0000   -0.0000   -0.0000
       34 FE2    3d1-      -0.0000    0.0000    0.3942    0.8990   -0.1581    0.0693    0.0000    0.0000   -0.0405   -0.0177
       35 FE2    4d1-      -0.0000   -0.0000    0.0302    0.0690   -0.0094    0.0041    0.0000    0.0000    0.0154    0.0068
       36 FE2    3d0       -0.0006   -0.0025   -0.0000   -0.0001    0.0000   -0.0000    0.0179    0.0727    0.0000    0.0000
       37 FE2    4d0       -0.0020   -0.0015   -0.0000   -0.0000    0.0000   -0.0000    0.0103    0.0390    0.0000    0.0000
       38 FE2    3d1+       0.0000   -0.0000    0.8991   -0.3942    0.0693    0.1580   -0.0000   -0.0000    0.0177   -0.0405
       39 FE2    4d1+       0.0000    0.0000    0.0690   -0.0303    0.0041    0.0094   -0.0000   -0.0000   -0.0068    0.0154
       40 FE2    3d2+      -0.0000    0.0000   -0.0000   -0.0000    0.0000   -0.0000   -0.0000   -0.0000    0.0000    0.0000
       41 FE2    4d2+      -0.0000    0.0000   -0.0000   -0.0000    0.0000   -0.0000   -0.0000   -0.0000    0.0000    0.0000
       42 FE2    4f3-      -0.0000    0.0000    0.0000    0.0000   -0.0000    0.0000   -0.0000   -0.0000   -0.0000   -0.0000
       43 FE2    4f2-      -0.0000    0.0000    0.0000   -0.0000    0.0000    0.0000   -0.0000   -0.0000    0.0000   -0.0000
       44 FE2    4f1-      -0.0000    0.0000    0.0012    0.0026    0.0005   -0.0002   -0.0000   -0.0000    0.0015    0.0006
       45 FE2    4f0       -0.0001   -0.0003   -0.0000   -0.0000   -0.0000    0.0000   -0.0006   -0.0010   -0.0000   -0.0000
       46 FE2    4f1+       0.0000   -0.0000    0.0026   -0.0012   -0.0002   -0.0005    0.0000    0.0000   -0.0006    0.0015
       47 FE2    4f2+      -0.0000    0.0000   -0.0000   -0.0000    0.0000   -0.0000   -0.0000   -0.0000    0.0000    0.0000
       48 FE2    4f3+      -0.0000    0.0000    0.0000   -0.0000    0.0000    0.0000   -0.0000   -0.0000    0.0000   -0.0000
 
          Orbital           21        22        23    
          Energy           -0.1272   -0.1072   -0.1072
          Occ. No.          0.0000    0.0000    0.0000
 
        1 O1     1s        -0.0156   -0.0000   -0.0000
        2 O1     2s        -0.1321   -0.0000   -0.0000
        3 O1     3s         0.0126    0.0000    0.0000
        4 O1     2px        0.0000   -0.0000    0.0000
        5 O1     3px        0.0000    0.0000   -0.0000
        6 O1     2py       -0.0000   -0.0000    0.0000
        7 O1     3py       -0.0000    0.0000   -0.0000
        8 O1     2pz        0.0297    0.0000    0.0000
        9 O1     3pz        0.1348   -0.0000   -0.0000
       10 O1     3d2-      -0.0000    0.0012    0.0014
       11 O1     3d1-       0.0000   -0.0000    0.0000
       12 O1     3d0       -0.0147    0.0000    0.0000
       13 O1     3d1+      -0.0000   -0.0000    0.0000
       14 O1     3d2+      -0.0000    0.0014   -0.0012
       15 FE2    1s         0.0002   -0.0000   -0.0000
       16 FE2    2s         0.0018   -0.0000   -0.0000
       17 FE2    3s         0.0142   -0.0000   -0.0000
       18 FE2    4s        -0.0100   -0.0000   -0.0000
       19 FE2    5s         0.9924    0.0000    0.0000
       20 FE2    2px       -0.0000   -0.0000    0.0000
       21 FE2    3px       -0.0000   -0.0000    0.0000
       22 FE2    4px       -0.0000   -0.0000    0.0000
       23 FE2    5px       -0.0000   -0.0000    0.0000
       24 FE2    2py        0.0000   -0.0000    0.0000
       25 FE2    3py        0.0000   -0.0000    0.0000
       26 FE2    4py        0.0000   -0.0000    0.0000
       27 FE2    5py        0.0000   -0.0000    0.0000
       28 FE2    2pz        0.0003   -0.0000   -0.0000
       29 FE2    3pz        0.0065   -0.0000   -0.0000
       30 FE2    4pz        0.0943   -0.0000   -0.0000
       31 FE2    5pz        0.0204   -0.0000   -0.0000
       32 FE2    3d2-       0.0000    0.6276    0.7217
       33 FE2    4d2-       0.0000    0.1915    0.2202
       34 FE2    3d1-      -0.0000    0.0000   -0.0000
       35 FE2    4d1-      -0.0000    0.0000   -0.0000
       36 FE2    3d0       -0.0758    0.0000    0.0000
       37 FE2    4d0       -0.0234    0.0000    0.0000
       38 FE2    3d1+       0.0000    0.0000   -0.0000
       39 FE2    4d1+       0.0000    0.0000   -0.0000
       40 FE2    3d2+       0.0000    0.7217   -0.6276
       41 FE2    4d2+       0.0000    0.2202   -0.1915
       42 FE2    4f3-       0.0000    0.0000   -0.0000
       43 FE2    4f2-       0.0000    0.0013    0.0015
       44 FE2    4f1-       0.0000    0.0000   -0.0000
       45 FE2    4f0       -0.0005    0.0000    0.0000
       46 FE2    4f1+      -0.0000    0.0000   -0.0000
       47 FE2    4f2+       0.0000    0.0015   -0.0013
       48 FE2    4f3+       0.0000   -0.0000   -0.0000
--
 
 
++    Molecular charges:
      ------------------
 
      Mulliken charges per centre and basis function type
      ---------------------------------------------------
 
                            O1                      FE2   
                     alpha        beta       alpha        beta
      1s           1.0000      1.0000      1.0000      1.0000
      2s           0.9938      0.9970      1.0000      1.0000
      2px          0.9801      0.0237      1.0000      1.0000
      2pz          0.0065      0.9842      1.0000      1.0000
      2py          0.9801      0.0237      1.0000      1.0000
      3s           0.0044      0.0020      1.0000      1.0000
      3px          0.0195      0.0012      0.9999      0.9997
      3pz         -0.0000      0.0146      1.0000      0.9994
      3py          0.0195      0.0012      0.9999      0.9997
      4s           0.0000      0.0000      0.0009      0.0000
      3d2+         0.0000      0.0000      0.9999      0.0000
      3d1+         0.0000      0.0001      0.9994      0.9661
      3d0          0.0025      0.0031      0.9906      0.0001
      3d1-         0.0000      0.0001      0.9994      0.9661
      3d2-         0.0000      0.0000      0.9999      0.0000
      4px          0.0000      0.0000      0.0006      0.0024
      4pz          0.0000      0.0000      0.0017     -0.0002
      4py          0.0000      0.0000      0.0006      0.0024
      5s           0.0000      0.0000     -0.0003     -0.0003
      4d2+         0.0000      0.0000      0.0001      0.0000
      4d1+         0.0000      0.0000      0.0004      0.0066
      4d0          0.0000      0.0000      0.0001     -0.0001
      4d1-         0.0000      0.0000      0.0004      0.0066
      4d2-         0.0000      0.0000      0.0001      0.0000
      5px          0.0000      0.0000      0.0000      0.0001
      5pz          0.0000      0.0000     -0.0001     -0.0001
      5py          0.0000      0.0000      0.0000      0.0001
      4f3+         0.0000      0.0000      0.0000      0.0000
      4f2+         0.0000      0.0000      0.0000      0.0000
      4f1+         0.0000      0.0000      0.0001      0.0002
      4f0          0.0000      0.0000      0.0000      0.0004
      4f1-         0.0000      0.0000      0.0001      0.0002
      4f2-         0.0000      0.0000      0.0000      0.0000
      4f3-         0.0000      0.0000      0.0000      0.0000
      Total        4.0065      3.0508     13.9935     10.9492
      Total              7.0573                 24.9427
 
      Charge            0.9427                  1.0573
 
      Total electronic charge=   32.000000
 
      Total            charge=    2.000000
--
 
 
  Input file to MOLDEN was generated!
 
 
++    Static properties:
      ------------------
 
 
      LoProp Charges per center
 

                   O1       FE2   
      Nuclear      8.0000  26.0000
      Electronic  -7.0539 -24.9461
 
      Total        0.9461   1.0539
--
 
 
++    Natural Bond Order analysis
      ---------------------------
      Based on LoProp computed density
      -------------------------------------------------------------------------------------
      Atom A       Atom B       Bond Order
      -------------------------------------------------------------------------------------
      NBO located     19.999 core electrons.
      NBO located      5.943 lone pair electrons.
      NBO located      1.004 non-bonded electrons on atom O1        
      NBO located      0.994 non-bonded electrons on atom FE2       
      NBO located      1.000 non-bonded electrons on atom FE2       
      NBO located      1.000 non-bonded electrons on atom FE2       
      The remaining    2.059 electrons are to be considered as diffuse
--
 
 
++    Molecular orbitals:
      -------------------
 
      Title: Natural orbitals

      Molecular orbitals for symmetry species 1: a  
 
          Orbital            1         2         3         4         5         6         7         8         9        10    
          Energy         -263.9712  -32.4448  -21.7859  -27.3756  -27.6727  -27.6726   -4.8019   -3.1587   -3.1755   -3.1757
          Occ. No.          2.0000    2.0000    2.0000    2.0000    2.0000    2.0000    2.0000    1.9998    1.9998    1.9998
 
        1 O1     1s        -0.0001    0.0315   -0.9747    0.2175    0.0000   -0.0000    0.0287    0.0002    0.0000    0.0000
        2 O1     2s         0.0000   -0.0012    0.0295   -0.0067   -0.0000    0.0000    0.0032    0.0025   -0.0000   -0.0000
        3 O1     3s         0.0000    0.0000   -0.0012    0.0003    0.0000    0.0000   -0.0005   -0.0003    0.0000    0.0000
        4 O1     2px        0.0000   -0.0000   -0.0000    0.0000    0.0000   -0.0000   -0.0000   -0.0000    0.0018   -0.0042
        5 O1     3px       -0.0000    0.0000    0.0000   -0.0000   -0.0000    0.0000    0.0000    0.0000   -0.0001    0.0002
        6 O1     2py       -0.0000    0.0000    0.0000   -0.0000   -0.0000   -0.0000    0.0000    0.0000   -0.0042   -0.0018
        7 O1     3py        0.0000   -0.0000   -0.0000    0.0000    0.0000    0.0000   -0.0000   -0.0000    0.0002    0.0001
        8 O1     2pz       -0.0000    0.0001   -0.0006    0.0001    0.0000   -0.0000   -0.0007   -0.0004   -0.0000   -0.0000
        9 O1     3pz       -0.0000   -0.0000   -0.0001   -0.0000   -0.0000    0.0000    0.0009    0.0007   -0.0000   -0.0000
       10 O1     3d2-       0.0000    0.0000    0.0000   -0.0000   -0.0000    0.0000   -0.0000   -0.0000    0.0000   -0.0000
       11 O1     3d1-       0.0000   -0.0000   -0.0000    0.0000    0.0000    0.0000   -0.0000   -0.0000    0.0000    0.0000
       12 O1     3d0        0.0000    0.0000    0.0000   -0.0000    0.0000    0.0000   -0.0002    0.0000    0.0000    0.0000
       13 O1     3d1+      -0.0000    0.0000    0.0000   -0.0000   -0.0000    0.0000    0.0000    0.0000   -0.0000    0.0000
       14 O1     3d2+       0.0000    0.0000    0.0000   -0.0000    0.0000    0.0000   -0.0000   -0.0000   -0.0000   -0.0000
       15 FE2    1s         1.0000   -0.0001   -0.0001   -0.0000    0.0000    0.0000    0.0001    0.0000   -0.0000   -0.0000
       16 FE2    2s         0.0001    0.9951    0.0363    0.0065    0.0000    0.0000    0.0922    0.0001    0.0000    0.0000
       17 FE2    3s        -0.0002   -0.0933    0.0281    0.0089    0.0000    0.0000    0.9952   -0.0049    0.0000    0.0000
       18 FE2    4s        -0.0000   -0.0006    0.0001   -0.0001    0.0000    0.0000    0.0071    0.0025    0.0000    0.0000
       19 FE2    5s         0.0000    0.0004   -0.0002    0.0000   -0.0000   -0.0000   -0.0046   -0.0012    0.0000    0.0000
       20 FE2    2px        0.0000    0.0000    0.0000    0.0000   -0.4006    0.9138    0.0000   -0.0000   -0.0271    0.0618
       21 FE2    3px       -0.0000    0.0000   -0.0000   -0.0000    0.0271   -0.0619    0.0000   -0.0000   -0.4003    0.9131
       22 FE2    4px        0.0000   -0.0000   -0.0000   -0.0000    0.0001   -0.0002   -0.0000   -0.0000   -0.0013    0.0030
       23 FE2    5px        0.0000   -0.0000    0.0000    0.0000   -0.0001    0.0003   -0.0000    0.0000    0.0024   -0.0054
       24 FE2    2py       -0.0000   -0.0000   -0.0000   -0.0000    0.9138    0.4006   -0.0000    0.0000    0.0618    0.0271
       25 FE2    3py        0.0000   -0.0000    0.0000    0.0000   -0.0618   -0.0271   -0.0000    0.0001    0.9131    0.4003
       26 FE2    4py       -0.0000    0.0000    0.0000    0.0000   -0.0002   -0.0001    0.0000    0.0000    0.0030    0.0013
       27 FE2    5py       -0.0000    0.0000   -0.0000   -0.0000    0.0003    0.0001    0.0000   -0.0000   -0.0054   -0.0024
       28 FE2    2pz        0.0000   -0.0128    0.2165    0.9740    0.0000    0.0000   -0.0158    0.0640   -0.0000   -0.0000
       29 FE2    3pz       -0.0000    0.0003   -0.0136   -0.0624   -0.0000    0.0000    0.0059    0.9978   -0.0001   -0.0000
       30 FE2    4pz       -0.0000   -0.0001   -0.0001   -0.0004   -0.0000    0.0000    0.0012    0.0083   -0.0000   -0.0000
       31 FE2    5pz       -0.0000    0.0001    0.0000    0.0003    0.0000   -0.0000   -0.0001   -0.0073    0.0000    0.0000
       32 FE2    3d2-      -0.0000   -0.0000    0.0000    0.0000    0.0000    0.0000    0.0000    0.0000    0.0000   -0.0000
       33 FE2    4d2-       0.0000    0.0000    0.0000    0.0000    0.0000   -0.0000    0.0000   -0.0000    0.0000   -0.0000
       34 FE2    3d1-      -0.0000    0.0000    0.0000   -0.0000    0.0002    0.0001    0.0000    0.0000   -0.0327   -0.0143
       35 FE2    4d1-      -0.0000    0.0000    0.0000   -0.0000   -0.0001   -0.0000    0.0000    0.0000   -0.0012   -0.0005
       36 FE2    3d0       -0.0000   -0.0001    0.0000   -0.0002   -0.0000   -0.0000    0.0018    0.0043    0.0000    0.0000
       37 FE2    4d0       -0.0000   -0.0000    0.0000   -0.0001    0.0000    0.0000    0.0027    0.0004    0.0000    0.0000
       38 FE2    3d1+       0.0000   -0.0000   -0.0000    0.0000   -0.0001    0.0002   -0.0000   -0.0000    0.0143   -0.0327
       39 FE2    4d1+       0.0000   -0.0000   -0.0000    0.0000    0.0000   -0.0001   -0.0000   -0.0000    0.0005   -0.0012
       40 FE2    3d2+      -0.0000   -0.0000    0.0000    0.0000   -0.0000   -0.0000    0.0000    0.0000    0.0000    0.0000
       41 FE2    4d2+       0.0000    0.0000    0.0000    0.0000    0.0000    0.0000    0.0000   -0.0000    0.0000    0.0000
       42 FE2    4f3-       0.0000    0.0000    0.0000    0.0000    0.0000    0.0000    0.0000   -0.0000   -0.0000   -0.0000
       43 FE2    4f2-      -0.0000   -0.0000    0.0000    0.0000   -0.0000    0.0000    0.0000    0.0000    0.0000    0.0000
       44 FE2    4f1-      -0.0000    0.0000    0.0000    0.0000    0.0001    0.0000    0.0000   -0.0000    0.0023    0.0010
       45 FE2    4f0        0.0000   -0.0000    0.0000    0.0001   -0.0000   -0.0000    0.0001   -0.0108    0.0000    0.0000
       46 FE2    4f1+       0.0000   -0.0000   -0.0000   -0.0000   -0.0000    0.0001   -0.0000    0.0000   -0.0010    0.0023
       47 FE2    4f2+      -0.0000   -0.0000    0.0000    0.0000   -0.0000   -0.0000    0.0000    0.0000   -0.0000   -0.0000
       48 FE2    4f3+       0.0000    0.0000    0.0000    0.0000   -0.0000    0.0000    0.0000   -0.0000    0.0000   -0.0000
 
          Orbital           11        12        13        14        15        16        17        18        19        20    
          Energy           -0.8490   -0.8490   -1.9689   -0.7599   -0.9709   -0.9709   -0.5002   -0.5002   -0.6780    1.3870
          Occ. No.          1.9968    1.9968    1.9942    1.0923    1.0000    1.0000    1.0000    1.0000    0.9077    0.0058
 
        1 O1     1s         0.0000    0.0000   -0.0303   -0.0017    0.0000   -0.0000    0.0000    0.0000    0.0017    0.0007
        2 O1     2s         0.0000    0.0000   -0.9995   -0.0350   -0.0000    0.0000    0.0000    0.0000    0.0100    0.0172
        3 O1     3s        -0.0000   -0.0000    0.0541    0.0040    0.0000   -0.0000    0.0000    0.0000    0.0100    0.2399
        4 O1     2px        0.1312   -0.0576   -0.0000   -0.0000   -0.8973   -0.3934    0.0000    0.0000   -0.0000    0.0000
        5 O1     3px       -0.0042    0.0018    0.0000    0.0000    0.1267    0.0556   -0.0000    0.0000    0.0000    0.0000
        6 O1     2py        0.0575    0.1314    0.0000    0.0000   -0.3934    0.8972   -0.0000    0.0000    0.0000   -0.0000
        7 O1     3py       -0.0018   -0.0042   -0.0000   -0.0000    0.0556   -0.1267    0.0000    0.0000   -0.0000   -0.0000
        8 O1     2pz        0.0000    0.0000    0.0200   -0.7122   -0.0000    0.0001   -0.0000   -0.0000   -0.6901   -0.0043
        9 O1     3pz       -0.0000   -0.0000    0.0057    0.0825    0.0000   -0.0000   -0.0000   -0.0000    0.0916   -0.0501
       10 O1     3d2-       0.0000   -0.0000    0.0000   -0.0000   -0.0000   -0.0000   -0.0000    0.0000   -0.0000   -0.0000
       11 O1     3d1-      -0.0010   -0.0023    0.0000   -0.0000    0.0021   -0.0048    0.0000    0.0000    0.0000   -0.0001
       12 O1     3d0       -0.0000   -0.0000   -0.0035    0.0049    0.0000   -0.0000    0.0000    0.0000    0.0003    0.9754
       13 O1     3d1+      -0.0023    0.0010   -0.0000    0.0000    0.0048    0.0021   -0.0000    0.0000   -0.0000    0.0000
       14 O1     3d2+      -0.0000   -0.0000    0.0000   -0.0000    0.0000   -0.0000   -0.0000   -0.0000   -0.0000   -0.0000
       15 FE2    1s         0.0000    0.0000    0.0000   -0.0000    0.0000   -0.0000   -0.0000   -0.0000    0.0000   -0.0002
       16 FE2    2s        -0.0000   -0.0000    0.0003   -0.0002    0.0000   -0.0000    0.0000    0.0000    0.0000   -0.0016
       17 FE2    3s        -0.0000   -0.0000    0.0056   -0.0037   -0.0000    0.0000    0.0000    0.0000   -0.0001   -0.0098
       18 FE2    4s        -0.0000   -0.0000    0.0041    0.0252    0.0000   -0.0000   -0.0000   -0.0000   -0.0181   -0.0232
       19 FE2    5s         0.0000    0.0000    0.0028   -0.0029   -0.0000    0.0000    0.0000    0.0000    0.0024    0.0001
       20 FE2    2px        0.0020   -0.0009   -0.0000    0.0000   -0.0000   -0.0000    0.0000    0.0000   -0.0000   -0.0000
       21 FE2    3px        0.0327   -0.0143   -0.0000    0.0000    0.0006    0.0003    0.0000    0.0000   -0.0000   -0.0000
       22 FE2    4px        0.0306   -0.0134   -0.0000   -0.0000    0.0002    0.0001   -0.0000   -0.0000    0.0000    0.0000
       23 FE2    5px        0.0011   -0.0005   -0.0000   -0.0000   -0.0007   -0.0003    0.0000   -0.0000   -0.0000    0.0000
       24 FE2    2py        0.0009    0.0020    0.0000   -0.0000   -0.0000    0.0000    0.0000    0.0000    0.0000    0.0000
       25 FE2    3py        0.0143    0.0327    0.0000   -0.0000    0.0003   -0.0006    0.0000    0.0000    0.0000    0.0000
       26 FE2    4py        0.0134    0.0306    0.0000    0.0000    0.0001   -0.0002   -0.0000   -0.0000   -0.0000   -0.0000
       27 FE2    5py        0.0005    0.0011    0.0000    0.0000   -0.0003    0.0007   -0.0000   -0.0000    0.0000   -0.0000
       28 FE2    2pz       -0.0000   -0.0000    0.0000   -0.0002   -0.0000    0.0000    0.0000    0.0000    0.0000   -0.0004
       29 FE2    3pz       -0.0000   -0.0000    0.0045   -0.0065   -0.0000    0.0000    0.0000    0.0000    0.0005   -0.0101
       30 FE2    4pz       -0.0000   -0.0000    0.0043    0.0324   -0.0000    0.0000   -0.0000   -0.0000   -0.0291   -0.0218
       31 FE2    5pz       -0.0000   -0.0000    0.0017    0.0013   -0.0000    0.0000    0.0000    0.0000   -0.0009   -0.0034
       32 FE2    3d2-       0.0000   -0.0000    0.0000   -0.0000    0.0000   -0.0000   -0.7738    0.6333    0.0000    0.0000
       33 FE2    4d2-       0.0000   -0.0000    0.0000   -0.0000    0.0000    0.0000    0.0056   -0.0046    0.0000   -0.0000
       34 FE2    3d1-       0.3955    0.9021    0.0000    0.0000    0.0612   -0.1397   -0.0000   -0.0000   -0.0000    0.0000
       35 FE2    4d1-       0.0190    0.0433    0.0000    0.0000    0.0008   -0.0019    0.0000    0.0000   -0.0000   -0.0000
       36 FE2    3d0       -0.0000   -0.0001   -0.0017    0.6747   -0.0000    0.0000   -0.0000   -0.0000   -0.7365   -0.0420
       37 FE2    4d0       -0.0000   -0.0000    0.0017    0.0114   -0.0000    0.0000    0.0000    0.0000   -0.0102   -0.0057
       38 FE2    3d1+       0.9022   -0.3955   -0.0000   -0.0000    0.1396    0.0613   -0.0000   -0.0000    0.0000   -0.0000
       39 FE2    4d1+       0.0433   -0.0190   -0.0000   -0.0000    0.0019    0.0008   -0.0000    0.0000    0.0000    0.0000
       40 FE2    3d2+      -0.0000   -0.0000    0.0000   -0.0000   -0.0000    0.0000   -0.6333   -0.7738    0.0000    0.0000
       41 FE2    4d2+      -0.0000   -0.0000    0.0000   -0.0000   -0.0000    0.0000    0.0046    0.0056    0.0000   -0.0000
       42 FE2    4f3-      -0.0000   -0.0000    0.0000    0.0000    0.0000   -0.0000   -0.0000   -0.0000   -0.0000    0.0000
       43 FE2    4f2-       0.0000   -0.0000    0.0000   -0.0000    0.0000    0.0000   -0.0014    0.0011   -0.0000   -0.0000
       44 FE2    4f1-       0.0011    0.0025    0.0000    0.0000    0.0001   -0.0002   -0.0000   -0.0000   -0.0000   -0.0000
       45 FE2    4f0       -0.0000   -0.0000   -0.0000    0.0021   -0.0000    0.0000   -0.0000   -0.0000   -0.0019   -0.0010
       46 FE2    4f1+       0.0025   -0.0011   -0.0000   -0.0000    0.0002    0.0001    0.0000   -0.0000    0.0000    0.0000
       47 FE2    4f2+      -0.0000   -0.0000    0.0000   -0.0000   -0.0000    0.0000   -0.0011   -0.0014   -0.0000   -0.0000
       48 FE2    4f3+      -0.0000    0.0000    0.0000    0.0000    0.0000    0.0000    0.0000   -0.0000   -0.0000    0.0000
 
          Orbital           21        22        23        24        25        26        27        28        29        30    
          Energy            0.2387    0.2388    3.3319    3.3319    3.3770    0.5811    1.9984    1.9984    2.0475    0.4415
          Occ. No.          0.0032    0.0032    0.0002    0.0002    0.0002    0.0000    0.0000    0.0000    0.0000    0.0000
 
        1 O1     1s         0.0000    0.0000   -0.0000   -0.0000   -0.0015    0.0158    0.0000    0.0000   -0.0177   -0.0169
        2 O1     2s         0.0000    0.0000   -0.0000   -0.0000   -0.0144    0.1534    0.0000    0.0000   -0.1821   -0.2254
        3 O1     3s         0.0000    0.0000    0.0000    0.0000   -0.0080    0.1066    0.0000    0.0000   -0.3226   -0.8941
        4 O1     2px       -0.0114    0.0260   -0.0129    0.0056    0.0000   -0.0000    0.0145   -0.0330   -0.0000   -0.0000
        5 O1     3px       -0.2029    0.4626   -0.0689    0.0302    0.0000   -0.0000    0.0378   -0.0862   -0.0000   -0.0000
        6 O1     2py        0.0261    0.0114   -0.0056   -0.0129   -0.0000    0.0000   -0.0330   -0.0145    0.0000    0.0000
        7 O1     3py        0.4628    0.2028   -0.0302   -0.0689   -0.0000    0.0001   -0.0862   -0.0378    0.0000    0.0001
        8 O1     2pz       -0.0000   -0.0000   -0.0000   -0.0000    0.0040   -0.0737   -0.0000   -0.0000    0.0930    0.1739
        9 O1     3pz        0.0000    0.0000   -0.0000   -0.0000   -0.0162    0.0484   -0.0000   -0.0000    0.1752    0.3340
       10 O1     3d2-      -0.0000    0.0000    0.0000    0.0000    0.0000   -0.0000    0.0000    0.0000   -0.0000   -0.0000
       11 O1     3d1-      -0.0243   -0.0107    0.0012    0.0027    0.0000   -0.0000    0.0049    0.0022   -0.0000   -0.0000
       12 O1     3d0        0.0001    0.0000   -0.0000   -0.0000   -0.0075    0.0685    0.0000    0.0000    0.0040    0.0595
       13 O1     3d1+       0.0107   -0.0243    0.0027   -0.0012   -0.0000    0.0000   -0.0022    0.0049    0.0000    0.0000
       14 O1     3d2+      -0.0000   -0.0000   -0.0000   -0.0000    0.0000   -0.0000   -0.0000   -0.0000   -0.0000   -0.0000
       15 FE2    1s         0.0000    0.0000   -0.0000   -0.0000   -0.0000    0.0000   -0.0000   -0.0000    0.0004    0.0008
       16 FE2    2s         0.0000    0.0000   -0.0000   -0.0000   -0.0002    0.0004   -0.0000   -0.0000    0.0027    0.0056
       17 FE2    3s         0.0000    0.0000   -0.0000   -0.0000   -0.0009    0.0002   -0.0000   -0.0000    0.0147    0.0258
       18 FE2    4s        -0.0003   -0.0000    0.0000    0.0000   -0.0090    0.2137   -0.0000   -0.0000    0.1585    0.6535
       19 FE2    5s         0.0001    0.0000   -0.0000   -0.0000   -0.0014   -0.3267    0.0000    0.0000    0.0972   -0.0670
       20 FE2    2px        0.0001   -0.0002   -0.0002    0.0001   -0.0000    0.0000   -0.0000    0.0000    0.0000    0.0000
       21 FE2    3px        0.0027   -0.0063   -0.0038    0.0017   -0.0000    0.0000   -0.0026    0.0059    0.0000    0.0000
       22 FE2    4px       -0.1084    0.2473    0.2157   -0.0946    0.0000   -0.0000    0.0589   -0.1344    0.0000   -0.0000
       23 FE2    5px       -0.0044    0.0100   -0.2372    0.1040   -0.0000   -0.0000   -0.3800    0.8667    0.0000   -0.0000
       24 FE2    2py       -0.0002   -0.0001   -0.0001   -0.0002    0.0000   -0.0000    0.0000    0.0000   -0.0000   -0.0000
       25 FE2    3py       -0.0063   -0.0027   -0.0017   -0.0038    0.0000   -0.0000    0.0059    0.0026   -0.0000   -0.0000
       26 FE2    4py        0.2473    0.1084    0.0946    0.2158   -0.0000    0.0000   -0.1344   -0.0589   -0.0000    0.0000
       27 FE2    5py        0.0100    0.0044   -0.1040   -0.2373    0.0000    0.0000    0.8667    0.3800   -0.0000    0.0000
       28 FE2    2pz        0.0000    0.0000    0.0000    0.0000    0.0006   -0.0000    0.0000    0.0000    0.0005    0.0010
       29 FE2    3pz        0.0000    0.0000    0.0000    0.0000    0.0132    0.0004    0.0000    0.0000    0.0157    0.0188
       30 FE2    4pz       -0.0001   -0.0000   -0.0000   -0.0000   -0.2340   -0.1408   -0.0000   -0.0000    0.0794    0.7215
       31 FE2    5pz       -0.0000   -0.0000    0.0000    0.0000    0.2115   -0.0110    0.0000    0.0000    1.0146    0.0232
       32 FE2    3d2-       0.0000   -0.0000   -0.0000    0.0000    0.0000   -0.0000   -0.0000    0.0000   -0.0000   -0.0000
       33 FE2    4d2-       0.0000    0.0000   -0.0000    0.0000    0.0000   -0.0000    0.0000    0.0000   -0.0000   -0.0000
       34 FE2    3d1-      -0.0736   -0.0323   -0.0010   -0.0023    0.0000   -0.0000    0.0054    0.0023    0.0000   -0.0000
       35 FE2    4d1-       0.6409    0.2810   -0.0191   -0.0436   -0.0000   -0.0000    0.0464    0.0203    0.0000    0.0001
       36 FE2    3d0        0.0000    0.0000   -0.0000   -0.0000    0.0062    0.0015    0.0000    0.0000    0.0304    0.0271
       37 FE2    4d0       -0.0000   -0.0000    0.0000    0.0000    0.0861   -0.9380    0.0000    0.0000    0.0899    0.2934
       38 FE2    3d1+       0.0323   -0.0736   -0.0023    0.0010   -0.0000    0.0000   -0.0023    0.0054   -0.0000    0.0000
       39 FE2    4d1+      -0.2810    0.6410   -0.0437    0.0191    0.0000    0.0000   -0.0203    0.0464   -0.0000   -0.0000
       40 FE2    3d2+       0.0000    0.0000    0.0000    0.0000    0.0000   -0.0000   -0.0000   -0.0000   -0.0000   -0.0000
       41 FE2    4d2+      -0.0000   -0.0000    0.0000    0.0000    0.0000   -0.0000   -0.0000   -0.0000   -0.0000   -0.0000
       42 FE2    4f3-       0.0000    0.0000    0.0000    0.0000    0.0000    0.0000    0.0000    0.0000   -0.0000    0.0000
       43 FE2    4f2-       0.0000    0.0000    0.0000    0.0000   -0.0000    0.0000    0.0000    0.0000    0.0000   -0.0000
       44 FE2    4f1-       0.0139    0.0061    0.3750    0.8554   -0.0000   -0.0000    0.2799    0.1227   -0.0000    0.0000
       45 FE2    4f0        0.0000    0.0000   -0.0000   -0.0000    0.9453    0.0510   -0.0000   -0.0000   -0.2129    0.1498
       46 FE2    4f1+      -0.0061    0.0139    0.8554   -0.3750    0.0000    0.0000   -0.1227    0.2798    0.0000   -0.0000
       47 FE2    4f2+      -0.0000   -0.0000   -0.0001   -0.0000   -0.0000    0.0000   -0.0000   -0.0000    0.0000   -0.0000
       48 FE2    4f3+      -0.0000    0.0000    0.0000   -0.0000    0.0000    0.0000   -0.0000    0.0000   -0.0000    0.0000
 
          Orbital           31        32        33        34        35        36        37        38        39        40    
          Energy            0.0315   -0.2470    0.0264    0.0217    0.0409    0.1646    0.3928    0.3882    0.6443    0.6462
          Occ. No.          0.0000    0.0000    0.0000    0.0000    0.0000    0.0000    0.0000    0.0000    0.0000    0.0000
 
        1 O1     1s         0.0078    0.0141   -0.0000    0.0000    0.0002    0.0118    0.0000   -0.0000    0.0000   -0.0000
        2 O1     2s         0.0851    0.1233   -0.0000    0.0000    0.0072    0.1032    0.0000   -0.0000    0.0000   -0.0000
        3 O1     3s         0.4467   -0.1456   -0.0000   -0.0000    0.1968   -0.3117   -0.0000   -0.0000   -0.0000    0.0000
        4 O1     2px        0.0000    0.0000   -0.0150   -0.0383   -0.0000    0.0000   -0.1450    0.0638   -0.0000    0.0001
        5 O1     3px       -0.0000    0.0000   -0.0564   -0.1508   -0.0000    0.0000   -0.8039    0.3530   -0.0001    0.0007
        6 O1     2py       -0.0000   -0.0000    0.0343   -0.0168    0.0000    0.0000   -0.0634   -0.1460    0.0001   -0.0001
        7 O1     3py        0.0000   -0.0001    0.1285   -0.0660    0.0000    0.0000   -0.3514   -0.8076    0.0005   -0.0009
        8 O1     2pz       -0.0032   -0.0354    0.0000   -0.0000   -0.0777   -0.2033   -0.0000   -0.0000   -0.0000    0.0000
        9 O1     3pz       -0.2029    0.0955    0.0000   -0.0000   -0.6897   -0.8519   -0.0000   -0.0000    0.0000    0.0000
       10 O1     3d2-       0.0000   -0.0000    0.0000   -0.0001    0.0000   -0.0000    0.0002    0.0000    0.0200    0.0236
       11 O1     3d1-       0.0000    0.0000   -0.0038    0.0014    0.0000   -0.0001   -0.0094   -0.0226    0.0034    0.0287
       12 O1     3d0       -0.1322    0.0895   -0.0000    0.0000   -0.0741    0.1543    0.0000    0.0000    0.0000    0.0000
       13 O1     3d1+      -0.0000   -0.0000    0.0017    0.0032   -0.0000    0.0000   -0.0215    0.0098   -0.0060   -0.0248
       14 O1     3d2+       0.0000   -0.0000   -0.0000    0.0001    0.0000   -0.0000   -0.0003   -0.0000    0.0080   -0.0004
       15 FE2    1s        -0.0004    0.0002    0.0000   -0.0000   -0.0012   -0.0014   -0.0000   -0.0000    0.0000   -0.0000
       16 FE2    2s        -0.0031    0.0012    0.0000   -0.0000   -0.0085   -0.0100   -0.0000   -0.0000    0.0000   -0.0000
       17 FE2    3s        -0.0231    0.0080    0.0000   -0.0000   -0.0425   -0.0503   -0.0000   -0.0000    0.0000   -0.0000
       18 FE2    4s         0.3622   -0.6778    0.0001   -0.0000   -0.4098   -0.1769    0.0000   -0.0000   -0.0000    0.0000
       19 FE2    5s        -0.7299   -0.6443    0.0001   -0.0000   -0.0641    0.0388    0.0000    0.0001   -0.0000    0.0000
       20 FE2    2px        0.0000   -0.0000    0.0000    0.0001    0.0000   -0.0000    0.0004   -0.0002   -0.0000   -0.0000
       21 FE2    3px        0.0000   -0.0000   -0.0002   -0.0003    0.0000   -0.0000    0.0078   -0.0034   -0.0000   -0.0000
       22 FE2    4px       -0.0000    0.0000    0.3671    0.8423    0.0001   -0.0001    0.1810   -0.0892   -0.0002   -0.0012
       23 FE2    5px       -0.0000    0.0000    0.0936    0.2146    0.0000   -0.0000    0.0368   -0.0186   -0.0001   -0.0005
       24 FE2    2py       -0.0000    0.0000   -0.0001    0.0000   -0.0000   -0.0000    0.0002    0.0004   -0.0000    0.0000
       25 FE2    3py       -0.0000    0.0000    0.0005   -0.0001   -0.0000   -0.0000    0.0034    0.0078   -0.0000    0.0000
       26 FE2    4py        0.0000   -0.0002   -0.8370    0.3694    0.0000   -0.0000    0.0791    0.2042    0.0000    0.0014
       27 FE2    5py        0.0000   -0.0000   -0.2135    0.0941    0.0000   -0.0000    0.0161    0.0427    0.0000    0.0005
       28 FE2    2pz       -0.0005    0.0002    0.0000   -0.0000   -0.0013   -0.0015   -0.0000   -0.0000    0.0000   -0.0000
       29 FE2    3pz       -0.0130    0.0049    0.0000    0.0000   -0.0299   -0.0288   -0.0000   -0.0000    0.0000   -0.0000
       30 FE2    4pz       -0.2172   -0.0177   -0.0000   -0.0001    0.4753   -0.6952   -0.0000    0.0000    0.0000   -0.0000
       31 FE2    5pz        0.0106    0.0045   -0.0000   -0.0000    0.1061   -0.1144   -0.0000    0.0000    0.0000   -0.0000
       32 FE2    3d2-       0.0000   -0.0000   -0.0000    0.0000   -0.0000    0.0000   -0.0000    0.0000    0.0069    0.0018
       33 FE2    4d2-       0.0000   -0.0000    0.0000    0.0000   -0.0000    0.0000    0.0000    0.0007    0.9645    0.2609
       34 FE2    3d1-      -0.0000    0.0000    0.0064   -0.0026   -0.0000   -0.0000    0.0089    0.0201    0.0000    0.0004
       35 FE2    4d1-       0.0002   -0.0000    0.2854   -0.1178    0.0000   -0.0000    0.2684    0.6064   -0.0002    0.0026
       36 FE2    3d0       -0.0487    0.0263   -0.0000    0.0000   -0.0751   -0.0338    0.0000    0.0000    0.0000   -0.0000
       37 FE2    4d0        0.2609    0.0592   -0.0000    0.0000   -0.2686   -0.1033   -0.0000   -0.0001   -0.0000    0.0000
[...]

>>> COPY /tmp/3.12/GMJ_one_int.csv /home/grierjones/DDCASPT2/iron_oxo_DDCASPT2/cluster/3.12/3.12.GMJ_one_int.csv

>>> COPY /tmp/3.12/GMJ_two_int_indx.csv /home/grierjones/DDCASPT2/iron_oxo_DDCASPT2/cluster/3.12/3.12.GMJ_two_int_indx.csv

>>> COPY /tmp/3.12/GMJ_two_int.csv /home/grierjones/DDCASPT2/iron_oxo_DDCASPT2/cluster/3.12/3.12.GMJ_two_int.csv

*** symbolic link created: INPORB -> 3.12.RasOrb
--- Start Module: caspt2 at Tue Dec 24 09:54:49 2024 ---
 
()()()()()()()()()()()()()()()()()()()()()()()()()()()()()()()()()()()()()()()()()()()()()()()()()()

                                              &CASPT2

                                   only a single process is used
                       available to each process: 2.0 GB of memory, 1 thread?
()()()()()()()()()()()()()()()()()()()()()()()()()()()()()()()()()()()()()()()()()()()()()()()()()()
 
 Cholesky algorithm in CASPT2 =    1
 
 ###############################################################################
 ###############################################################################
 ###                                                                         ###
 ###                                                                         ###
 ###    User changed nr of frozen orbitals.                                  ###
 ###                                                                         ###
 ###                                                                         ###
 ###############################################################################
 ###############################################################################
 
++    Wave function specifications:
      -----------------------------
 
      Number of closed shell electrons          22
      Number of electrons in active shells      10
      Max number of holes in RAS1 space          0
      Max number of electrons in RAS3 space      0
      Number of inactive orbitals               11
      Number of active orbitals                 14
      Number of secondary orbitals              23
      Spin quantum number                      2.0
      State symmetry                             1
      Number of CSFs                        975975
      Number of root(s) available                1
      Root passed to geometry opt.               1
      A file JOBMIX will be created.
      This is a CASSCF or RASSCF reference function
--
 
++    Orbital specifications:
      -----------------------
 
      Symmetry species                           1
                                                 a
      Frozen orbitals                            0
      Inactive orbitals                         11
      Active orbitals                           14
      Secondary orbitals                        23
      Deleted orbitals                           0
      Number of basis functions                 48
--
 
      Type of Fock operator: STANDARD
      Type of 0-order Hamiltonian: STANDARD WITH DEFAULT IPEA
        "IP-EA" denominator shift =      0.25
      The input orbitals and the CI vector will be transformed.
 
--------------------------------------------------------------------------------
 Estimated memory requirements:
  POLY3 :                227658189
  RHS:                     4146972
  SIGMA :                   646704
  PRPCTL:                        0
 Available workspace:    229020647
 
++ CASPT2 computation for group   1
 
********************************************************************************
 Multi-State initialization phase begins for group   1
--------------------------------------------------------------------------------
********************************************************************************
 Compute H0 matrices for state    1
--------------------------------------------------------------------------------
--------------------------------------------------------------------------------
 H0 matrices have been computed.
 
********************************************************************************
  CASPT2 EQUATION SOLUTION
--------------------------------------------------------------------------------
 
  Total nr of CASPT2 parameters:
   Before reduction:      408969
   After  reduction:      408969
 
 The contributions to the second order correlation energy in atomic units.
-----------------------------------------------------------------------------------------------------------------------------
  IT.      VJTU        VJTI        ATVX        AIVX        VJAI        BVAT        BJAT        BJAI        TOTAL       RNORM  
-----------------------------------------------------------------------------------------------------------------------------
   1    -0.002658   -0.029444   -0.014814   -0.180000   -0.017042   -0.077978   -0.018075   -0.044057   -0.384067    0.015994
   2    -0.002678   -0.029466   -0.015276   -0.180368   -0.017091   -0.078090   -0.018203   -0.044128   -0.385299    0.004403
   3    -0.002677   -0.029469   -0.015400   -0.180484   -0.017086   -0.078083   -0.018220   -0.044133   -0.385552    0.001272
   4    -0.002674   -0.029469   -0.015394   -0.180469   -0.017082   -0.078063   -0.018208   -0.044128   -0.385486    0.000386
   5    -0.002675   -0.029469   -0.015388   -0.180457   -0.017081   -0.078063   -0.018206   -0.044127   -0.385467    0.000103
   6    -0.002675   -0.029469   -0.015387   -0.180460   -0.017081   -0.078066   -0.018207   -0.044128   -0.385473    0.000027
   7    -0.002675   -0.029469   -0.015387   -0.180461   -0.017081   -0.078066   -0.018207   -0.044128   -0.385475    0.000008
   8    -0.002675   -0.029469   -0.015387   -0.180461   -0.017081   -0.078066   -0.018207   -0.044128   -0.385474    0.000002
-------------------------------------------------------------------------------------------------------------------
 
  FINAL CASPT2 RESULT:
 
  Correlation energy /Case, /Symm, and sums:
 VJTU     -0.00267477 -0.00267477
 VJTIP    -0.00993336 -0.00993336
 VJTIM    -0.01953594 -0.01953594
 ATVX     -0.01538662 -0.01538662
 AIVX     -0.18046116 -0.18046116
 VJAIP    -0.01366023 -0.01366023
 VJAIM    -0.00342116 -0.00342116
 BVATP    -0.02213106 -0.02213106
 BVATM    -0.05593506 -0.05593506
 BJATP    -0.01131502 -0.01131502
 BJATM    -0.00689172 -0.00689172
 BJAIP    -0.02966648 -0.02966648
 BJAIM    -0.01446156 -0.01446156
 Summed:  -0.38547414 -0.38547414
 
      Reference energy:       -1345.4689415180
      E2 (Non-variational):      -0.3854741396
      E2 (Variational):          -0.3854741613
      Total energy:           -1345.8544156794
      Residual norm:              0.0000003635
      Reference weight:           0.93710
 
      Contributions to the CASPT2 correlation energy
      Active & Virtual Only:         -0.0934527463
      One Inactive Excited:          -0.2013426614
      Two Inactive Excited:          -0.0906787318
 
 
++ Denominators, etc.
----------------------------------------------------------------------------------------------------
 Report on small energy denominators, large coefficients, and large energy contributions.
CASE  SYMM ACTIVE-MIX  NON-ACTIVE INDICES          DENOMINATOR     RHS VALUE       COEFFICIENT     CONTRIBUTION
ATVX     1  Mu1.0001  Se1.026                       0.12951807     -0.00000000      0.00000000     -0.00000000
ATVX     1  Mu1.0002  Se1.026                       0.12952232     -0.00000000      0.00000000     -0.00000000
ATVX     1  Mu1.0003  Se1.026                       0.16911776      0.00000000     -0.00000000     -0.00000000
ATVX     1  Mu1.0004  Se1.026                       0.16933627      0.00000000     -0.00000000     -0.00000000
ATVX     1  Mu1.0005  Se1.026                       0.18005402     -0.00000001      0.00000006     -0.00000000
ATVX     1  Mu1.0006  Se1.026                       0.24607788     -0.00000000      0.00000001     -0.00000000
ATVX     1  Mu1.0007  Se1.026                       0.27052248     -0.00000004      0.00000015     -0.00000000
ATVX     1  Mu1.0008  Se1.026                       0.28187545      0.00000000     -0.00000001     -0.00000000
ATVX     1  Mu1.0009  Se1.026                       0.28253646     -0.00000000      0.00000001     -0.00000000
ATVX     1  Mu1.0010  Se1.026                       0.29633086      0.00002011     -0.00006895     -0.00000000
ATVX     1  Mu1.0011  Se1.026                       0.29699974     -0.00000670      0.00002291     -0.00000000
ATVX     1  Mu1.0001  Se1.027                       0.21327572      0.00000237     -0.00000335     -0.00000000
ATVX     1  Mu1.0002  Se1.027                       0.21327998     -0.00051601      0.00074136     -0.00000038
ATVX     1  Mu1.0003  Se1.027                       0.25287541     -0.00000340      0.00001173     -0.00000000
ATVX     1  Mu1.0004  Se1.027                       0.25309392      0.00018408     -0.00062303     -0.00000011
ATVX     1  Mu1.0005  Se1.027                       0.26381167      0.00000000     -0.00000000     -0.00000000
ATVX     1  Mu1.0001  Se1.028                       0.21333608     -0.00051605      0.00074128     -0.00000038
ATVX     1  Mu1.0002  Se1.028                       0.21334033     -0.00000249      0.00000395     -0.00000000
ATVX     1  Mu1.0003  Se1.028                       0.25293577      0.00018462     -0.00062460     -0.00000012
ATVX     1  Mu1.0004  Se1.028                       0.25315428      0.00000339     -0.00001161     -0.00000000
ATVX     1  Mu1.0005  Se1.028                       0.26387203     -0.00000000      0.00000000     -0.00000000
ATVX     1  Mu1.0209  Se1.031                       1.88117267      0.08608105     -0.04472585     -0.00385005
ATVX     1  Mu1.0227  Se1.031                       1.98435857     -0.05622017      0.02752682     -0.00154756
ATVX     1  Mu1.0208  Se1.032                       1.88119247      0.08608068     -0.04472516     -0.00384997
ATVX     1  Mu1.0226  Se1.032                       1.98437546     -0.05622134      0.02752711     -0.00154761
AIVX     1  Mu1.0086  In1.011 Se1.033               3.12102687     -0.10166309      0.03177411     -0.00323025
AIVX     1  Mu1.0088  In1.011 Se1.033               3.13472786      0.09972187     -0.03222788     -0.00321382
AIVX     1  Mu1.0027  In1.011 Se1.037               3.56927476      0.13772060     -0.03798561     -0.00523140
AIVX     1  Mu1.0057  In1.011 Se1.038               3.81918196     -0.15818972      0.04080377     -0.00645474
AIVX     1  Mu1.0060  In1.011 Se1.039               3.88983306     -0.09872258      0.02540483     -0.00250803
AIVX     1  Mu1.0061  In1.011 Se1.040               3.88984368     -0.09871782      0.02540355     -0.00250778
BVATM    1  Mu1.0001  Se1.032 Se1.031               2.09219653      0.06811888     -0.03280913     -0.00223492
BVATM    1  Mu1.0001  Se1.038 Se1.037               5.02192678     -0.12995633      0.02587878     -0.00336311
--
 
   (Skipping property calculation,
    use PROP keyword to activate)
--
 
  Total CASPT2 energies:
::    CASPT2 Root  1     Total energy:  -1345.85441568
 
  A NEW JOBIPH FILE NAMED 'JOBMIX' IS PREPARED.
********************************************************************************
--- Stop Module: caspt2 at Tue Dec 24 10:00:20 2024 /rc=_RC_ALL_IS_WELL_ ---
*** files: xmldump
    saved to directory /home/grierjones/DDCASPT2/iron_oxo_DDCASPT2/cluster/3.12
--- Module caspt2 spent 5 minutes 30 seconds ---

>>> EXPORT i = B

>>> EXPORT j = P

>>> IF (-FILE GMJ_e2_${i}_${j}.csv)

>>> COPY /tmp/3.12/GMJ_RHS_B_P.csv /home/grierjones/DDCASPT2/iron_oxo_DDCASPT2/cluster/3.12/GMJ_RHS_B_P.csv

>>> COPY /tmp/3.12/GMJ_IVECW_B_P.csv /home/grierjones/DDCASPT2/iron_oxo_DDCASPT2/cluster/3.12/GMJ_IVECW_B_P.csv

>>> COPY /tmp/3.12/GMJ_IVECX_B_P.csv /home/grierjones/DDCASPT2/iron_oxo_DDCASPT2/cluster/3.12/GMJ_IVECX_B_P.csv

>>> COPY /tmp/3.12/GMJ_IVECC2_B_P.csv /home/grierjones/DDCASPT2/iron_oxo_DDCASPT2/cluster/3.12/GMJ_IVECC2_B_P.csv

>>> COPY /tmp/3.12/GMJ_e2_B_P.csv /home/grierjones/DDCASPT2/iron_oxo_DDCASPT2/cluster/3.12/GMJ_e2_B_P.csv

>>> END FOREACH

>>> EXPORT j = M

>>> IF (-FILE GMJ_e2_${i}_${j}.csv)

>>> COPY /tmp/3.12/GMJ_RHS_B_M.csv /home/grierjones/DDCASPT2/iron_oxo_DDCASPT2/cluster/3.12/GMJ_RHS_B_M.csv

>>> COPY /tmp/3.12/GMJ_IVECW_B_M.csv /home/grierjones/DDCASPT2/iron_oxo_DDCASPT2/cluster/3.12/GMJ_IVECW_B_M.csv

>>> COPY /tmp/3.12/GMJ_IVECX_B_M.csv /home/grierjones/DDCASPT2/iron_oxo_DDCASPT2/cluster/3.12/GMJ_IVECX_B_M.csv

>>> COPY /tmp/3.12/GMJ_IVECC2_B_M.csv /home/grierjones/DDCASPT2/iron_oxo_DDCASPT2/cluster/3.12/GMJ_IVECC2_B_M.csv

>>> COPY /tmp/3.12/GMJ_e2_B_M.csv /home/grierjones/DDCASPT2/iron_oxo_DDCASPT2/cluster/3.12/GMJ_e2_B_M.csv

>>> END FOREACH

>>> END FOREACH

>>> EXPORT i = E

>>> EXPORT j = P

>>> IF (-FILE GMJ_e2_${i}_${j}.csv)

>>> COPY /tmp/3.12/GMJ_RHS_E_P.csv /home/grierjones/DDCASPT2/iron_oxo_DDCASPT2/cluster/3.12/GMJ_RHS_E_P.csv

>>> COPY /tmp/3.12/GMJ_IVECW_E_P.csv /home/grierjones/DDCASPT2/iron_oxo_DDCASPT2/cluster/3.12/GMJ_IVECW_E_P.csv

>>> COPY /tmp/3.12/GMJ_IVECX_E_P.csv /home/grierjones/DDCASPT2/iron_oxo_DDCASPT2/cluster/3.12/GMJ_IVECX_E_P.csv

>>> COPY /tmp/3.12/GMJ_IVECC2_E_P.csv /home/grierjones/DDCASPT2/iron_oxo_DDCASPT2/cluster/3.12/GMJ_IVECC2_E_P.csv

>>> COPY /tmp/3.12/GMJ_e2_E_P.csv /home/grierjones/DDCASPT2/iron_oxo_DDCASPT2/cluster/3.12/GMJ_e2_E_P.csv

>>> END FOREACH

>>> EXPORT j = M

>>> IF (-FILE GMJ_e2_${i}_${j}.csv)

>>> COPY /tmp/3.12/GMJ_RHS_E_M.csv /home/grierjones/DDCASPT2/iron_oxo_DDCASPT2/cluster/3.12/GMJ_RHS_E_M.csv

>>> COPY /tmp/3.12/GMJ_IVECW_E_M.csv /home/grierjones/DDCASPT2/iron_oxo_DDCASPT2/cluster/3.12/GMJ_IVECW_E_M.csv

>>> COPY /tmp/3.12/GMJ_IVECX_E_M.csv /home/grierjones/DDCASPT2/iron_oxo_DDCASPT2/cluster/3.12/GMJ_IVECX_E_M.csv

>>> COPY /tmp/3.12/GMJ_IVECC2_E_M.csv /home/grierjones/DDCASPT2/iron_oxo_DDCASPT2/cluster/3.12/GMJ_IVECC2_E_M.csv

>>> COPY /tmp/3.12/GMJ_e2_E_M.csv /home/grierjones/DDCASPT2/iron_oxo_DDCASPT2/cluster/3.12/GMJ_e2_E_M.csv

>>> END FOREACH

>>> END FOREACH

>>> EXPORT i = F

>>> EXPORT j = P

>>> IF (-FILE GMJ_e2_${i}_${j}.csv)

>>> COPY /tmp/3.12/GMJ_RHS_F_P.csv /home/grierjones/DDCASPT2/iron_oxo_DDCASPT2/cluster/3.12/GMJ_RHS_F_P.csv

>>> COPY /tmp/3.12/GMJ_IVECW_F_P.csv /home/grierjones/DDCASPT2/iron_oxo_DDCASPT2/cluster/3.12/GMJ_IVECW_F_P.csv

>>> COPY /tmp/3.12/GMJ_IVECX_F_P.csv /home/grierjones/DDCASPT2/iron_oxo_DDCASPT2/cluster/3.12/GMJ_IVECX_F_P.csv

>>> COPY /tmp/3.12/GMJ_IVECC2_F_P.csv /home/grierjones/DDCASPT2/iron_oxo_DDCASPT2/cluster/3.12/GMJ_IVECC2_F_P.csv

>>> COPY /tmp/3.12/GMJ_e2_F_P.csv /home/grierjones/DDCASPT2/iron_oxo_DDCASPT2/cluster/3.12/GMJ_e2_F_P.csv

>>> END FOREACH

>>> EXPORT j = M

>>> IF (-FILE GMJ_e2_${i}_${j}.csv)

>>> COPY /tmp/3.12/GMJ_RHS_F_M.csv /home/grierjones/DDCASPT2/iron_oxo_DDCASPT2/cluster/3.12/GMJ_RHS_F_M.csv

>>> COPY /tmp/3.12/GMJ_IVECW_F_M.csv /home/grierjones/DDCASPT2/iron_oxo_DDCASPT2/cluster/3.12/GMJ_IVECW_F_M.csv

>>> COPY /tmp/3.12/GMJ_IVECX_F_M.csv /home/grierjones/DDCASPT2/iron_oxo_DDCASPT2/cluster/3.12/GMJ_IVECX_F_M.csv

>>> COPY /tmp/3.12/GMJ_IVECC2_F_M.csv /home/grierjones/DDCASPT2/iron_oxo_DDCASPT2/cluster/3.12/GMJ_IVECC2_F_M.csv

>>> COPY /tmp/3.12/GMJ_e2_F_M.csv /home/grierjones/DDCASPT2/iron_oxo_DDCASPT2/cluster/3.12/GMJ_e2_F_M.csv

>>> END FOREACH

>>> END FOREACH

>>> EXPORT i = G

>>> EXPORT j = P

>>> IF (-FILE GMJ_e2_${i}_${j}.csv)

>>> COPY /tmp/3.12/GMJ_RHS_G_P.csv /home/grierjones/DDCASPT2/iron_oxo_DDCASPT2/cluster/3.12/GMJ_RHS_G_P.csv

>>> COPY /tmp/3.12/GMJ_IVECW_G_P.csv /home/grierjones/DDCASPT2/iron_oxo_DDCASPT2/cluster/3.12/GMJ_IVECW_G_P.csv

>>> COPY /tmp/3.12/GMJ_IVECX_G_P.csv /home/grierjones/DDCASPT2/iron_oxo_DDCASPT2/cluster/3.12/GMJ_IVECX_G_P.csv

>>> COPY /tmp/3.12/GMJ_IVECC2_G_P.csv /home/grierjones/DDCASPT2/iron_oxo_DDCASPT2/cluster/3.12/GMJ_IVECC2_G_P.csv

>>> COPY /tmp/3.12/GMJ_e2_G_P.csv /home/grierjones/DDCASPT2/iron_oxo_DDCASPT2/cluster/3.12/GMJ_e2_G_P.csv

>>> END FOREACH

>>> EXPORT j = M

>>> IF (-FILE GMJ_e2_${i}_${j}.csv)

>>> COPY /tmp/3.12/GMJ_RHS_G_M.csv /home/grierjones/DDCASPT2/iron_oxo_DDCASPT2/cluster/3.12/GMJ_RHS_G_M.csv

>>> COPY /tmp/3.12/GMJ_IVECW_G_M.csv /home/grierjones/DDCASPT2/iron_oxo_DDCASPT2/cluster/3.12/GMJ_IVECW_G_M.csv

>>> COPY /tmp/3.12/GMJ_IVECX_G_M.csv /home/grierjones/DDCASPT2/iron_oxo_DDCASPT2/cluster/3.12/GMJ_IVECX_G_M.csv

>>> COPY /tmp/3.12/GMJ_IVECC2_G_M.csv /home/grierjones/DDCASPT2/iron_oxo_DDCASPT2/cluster/3.12/GMJ_IVECC2_G_M.csv

>>> COPY /tmp/3.12/GMJ_e2_G_M.csv /home/grierjones/DDCASPT2/iron_oxo_DDCASPT2/cluster/3.12/GMJ_e2_G_M.csv

>>> END FOREACH

>>> END FOREACH

>>> EXPORT i = H

>>> EXPORT j = P

>>> IF (-FILE GMJ_e2_${i}_${j}.csv)

>>> COPY /tmp/3.12/GMJ_RHS_H_P.csv /home/grierjones/DDCASPT2/iron_oxo_DDCASPT2/cluster/3.12/GMJ_RHS_H_P.csv

>>> COPY /tmp/3.12/GMJ_IVECW_H_P.csv /home/grierjones/DDCASPT2/iron_oxo_DDCASPT2/cluster/3.12/GMJ_IVECW_H_P.csv

>>> COPY /tmp/3.12/GMJ_IVECX_H_P.csv /home/grierjones/DDCASPT2/iron_oxo_DDCASPT2/cluster/3.12/GMJ_IVECX_H_P.csv

>>> COPY /tmp/3.12/GMJ_IVECC2_H_P.csv /home/grierjones/DDCASPT2/iron_oxo_DDCASPT2/cluster/3.12/GMJ_IVECC2_H_P.csv

>>> COPY /tmp/3.12/GMJ_e2_H_P.csv /home/grierjones/DDCASPT2/iron_oxo_DDCASPT2/cluster/3.12/GMJ_e2_H_P.csv

>>> END FOREACH

>>> EXPORT j = M

>>> IF (-FILE GMJ_e2_${i}_${j}.csv)

>>> COPY /tmp/3.12/GMJ_RHS_H_M.csv /home/grierjones/DDCASPT2/iron_oxo_DDCASPT2/cluster/3.12/GMJ_RHS_H_M.csv

>>> COPY /tmp/3.12/GMJ_IVECW_H_M.csv /home/grierjones/DDCASPT2/iron_oxo_DDCASPT2/cluster/3.12/GMJ_IVECW_H_M.csv

>>> COPY /tmp/3.12/GMJ_IVECX_H_M.csv /home/grierjones/DDCASPT2/iron_oxo_DDCASPT2/cluster/3.12/GMJ_IVECX_H_M.csv

>>> COPY /tmp/3.12/GMJ_IVECC2_H_M.csv /home/grierjones/DDCASPT2/iron_oxo_DDCASPT2/cluster/3.12/GMJ_IVECC2_H_M.csv

>>> COPY /tmp/3.12/GMJ_e2_H_M.csv /home/grierjones/DDCASPT2/iron_oxo_DDCASPT2/cluster/3.12/GMJ_e2_H_M.csv

>>> END FOREACH

>>> END FOREACH

>>> EXPORT i = A

>>> IF (-FILE GMJ_e2_$i.csv)

>>> COPY /tmp/3.12/GMJ_RHS_A.csv /home/grierjones/DDCASPT2/iron_oxo_DDCASPT2/cluster/3.12/GMJ_RHS_A.csv

>>> COPY /tmp/3.12/GMJ_IVECW_A.csv /home/grierjones/DDCASPT2/iron_oxo_DDCASPT2/cluster/3.12/GMJ_IVECW_A.csv

>>> COPY /tmp/3.12/GMJ_IVECX_A.csv /home/grierjones/DDCASPT2/iron_oxo_DDCASPT2/cluster/3.12/GMJ_IVECX_A.csv

>>> COPY /tmp/3.12/GMJ_IVECC2_A.csv /home/grierjones/DDCASPT2/iron_oxo_DDCASPT2/cluster/3.12/GMJ_IVECC2_A.csv

>>> COPY /tmp/3.12/GMJ_e2_A.csv /home/grierjones/DDCASPT2/iron_oxo_DDCASPT2/cluster/3.12/GMJ_e2_A.csv

>>> END FOREACH

>>> EXPORT i = C

>>> IF (-FILE GMJ_e2_$i.csv)

>>> COPY /tmp/3.12/GMJ_RHS_C.csv /home/grierjones/DDCASPT2/iron_oxo_DDCASPT2/cluster/3.12/GMJ_RHS_C.csv

>>> COPY /tmp/3.12/GMJ_IVECW_C.csv /home/grierjones/DDCASPT2/iron_oxo_DDCASPT2/cluster/3.12/GMJ_IVECW_C.csv

>>> COPY /tmp/3.12/GMJ_IVECX_C.csv /home/grierjones/DDCASPT2/iron_oxo_DDCASPT2/cluster/3.12/GMJ_IVECX_C.csv

>>> COPY /tmp/3.12/GMJ_IVECC2_C.csv /home/grierjones/DDCASPT2/iron_oxo_DDCASPT2/cluster/3.12/GMJ_IVECC2_C.csv

>>> COPY /tmp/3.12/GMJ_e2_C.csv /home/grierjones/DDCASPT2/iron_oxo_DDCASPT2/cluster/3.12/GMJ_e2_C.csv

>>> END FOREACH

>>> EXPORT i = D

>>> IF (-FILE GMJ_e2_$i.csv)

>>> COPY /tmp/3.12/GMJ_RHS_D.csv /home/grierjones/DDCASPT2/iron_oxo_DDCASPT2/cluster/3.12/GMJ_RHS_D.csv

>>> COPY /tmp/3.12/GMJ_IVECW_D.csv /home/grierjones/DDCASPT2/iron_oxo_DDCASPT2/cluster/3.12/GMJ_IVECW_D.csv

>>> COPY /tmp/3.12/GMJ_IVECX_D.csv /home/grierjones/DDCASPT2/iron_oxo_DDCASPT2/cluster/3.12/GMJ_IVECX_D.csv

>>> COPY /tmp/3.12/GMJ_IVECC2_D.csv /home/grierjones/DDCASPT2/iron_oxo_DDCASPT2/cluster/3.12/GMJ_IVECC2_D.csv

>>> COPY /tmp/3.12/GMJ_e2_D.csv /home/grierjones/DDCASPT2/iron_oxo_DDCASPT2/cluster/3.12/GMJ_e2_D.csv

>>> END FOREACH

.########################.
.# Non-zero return code #.
.########################.

    Timing: Wall=583.24 User=578.80 System=4.27
************************************
*** WorkDir at /tmp/3.12 cleaned ***
************************************
