[Molden Format]
[N_Atoms]
                     2
[Atoms] (AU)
LI1         1      3           0.00000000      0.00000000      0.00000000
O2          2      8           0.00000000      0.00000000      3.96842486
[Charge] (Mulliken)
  0.266624890009262     
 -0.266624890009275     
[GTO] (AU)
   1
   s  14
  9.497934400E+03  9.668999974E-05
  1.416811200E+03  6.087099984E-04
  3.214599400E+02  3.101519992E-03
  9.112416300E+01  1.266904997E-02
  2.999989100E+01  4.248012989E-02
  1.101763100E+01  1.150183297E-01
  4.372801000E+00  2.398650094E-01
  1.831256000E+00  3.584300090E-01
  8.022610000E-01  3.048527792E-01
  3.626480000E-01  8.824261976E-02
  1.139950000E-01 -8.445899977E-04
  5.123700000E-02 -7.943959979E-03
  2.246800000E-02 -3.764419990E-03
  7.860000000E-03 -8.868999976E-05
   s  14
  9.497934400E+03 -1.244999993E-05
  1.416811200E+03 -7.838999954E-05
  3.214599400E+02 -4.007099976E-04
  9.112416300E+01 -1.645249990E-03
  2.999989100E+01 -5.634599967E-03
  1.101763100E+01 -1.590780991E-02
  4.372801000E+00 -3.612581979E-02
  1.831256000E+00 -6.459927962E-02
  8.022610000E-01 -1.008321794E-01
  3.626480000E-01 -9.757613942E-02
  1.139950000E-01  2.301215886E-01
  5.123700000E-02  6.102389764E-01
  2.246800000E-02  2.849406083E-01
  7.860000000E-03  4.026899976E-03
   p   9
  1.311950400E+01  1.524940000E-03
  3.077424200E+00  8.314830000E-03
  1.098800500E+00  1.933203000E-02
  4.357784000E-01  4.934293000E-02
  1.802432000E-01  1.623554000E-01
  7.613330000E-02  3.847505400E-01
  3.254650000E-02  4.336100400E-01
  1.401820000E-02  1.287005900E-01
  4.906400000E-03 -1.018520000E-03
 
   2
   s  14
  1.053749500E+05  1.238600013E-04
  1.567924000E+04  5.120100053E-04
  3.534544700E+03  2.152910022E-03
  9.873651600E+02  8.528440089E-03
  3.159787500E+02  3.018049031E-02
  1.116542800E+02  9.099702095E-02
  4.269945100E+01  2.177936423E-01
  1.739559600E+01  3.686245738E-01
  7.438309000E+00  3.366707335E-01
  3.222862000E+00  9.657630101E-02
  1.253877000E+00  2.144520022E-03
  4.951550000E-01  1.194350012E-03
  1.916650000E-01  5.390200056E-04
  6.708300000E-02  2.103400022E-04
   s  14
  1.053749500E+05 -2.815000008E-05
  1.567924000E+04 -1.163000003E-04
  3.534544700E+03 -4.909200013E-04
  9.873651600E+02 -1.946160005E-03
  3.159787500E+02 -7.005300019E-03
  1.116542800E+02 -2.167814006E-02
  4.269945100E+01 -5.641213015E-02
  1.739559600E+01 -1.127053003E-01
  7.438309000E+00 -1.589119704E-01
  3.222862000E+00 -3.355083009E-02
  1.253877000E+00  3.531902810E-01
  4.951550000E-01  5.534199315E-01
  1.916650000E-01  2.301839106E-01
  6.708300000E-02  1.127267003E-02
   p   9
  2.000000000E+02  9.173000030E-04
  4.653336700E+01  7.377140024E-03
  1.462180900E+01  3.483515011E-02
  5.313064000E+00  1.144397004E-01
  2.102525000E+00  2.554966408E-01
  8.502230000E-01  3.722557412E-01
  3.375970000E-01  3.323314911E-01
  1.288920000E-01  1.400847905E-01
  4.511200000E-02  2.395784008E-02
 
[MO]
Sym=     1a  
Ene=   -20.5860
Spin= Alpha
Occup=    1.00000
   1        -0.00009216
   2        -0.00059769
   3         0.00000000
   4        -0.00000000
   5        -0.00071355
   6         1.00004092
   7         0.00214293
   8        -0.00000000
   9        -0.00000000
  10        -0.00046098
Sym=     1a  
Ene=   -20.5240
Spin= Beta
Occup=    1.00000
   1        -0.00004234
   2        -0.00011825
   3         0.00000000
   4        -0.00000000
   5        -0.00012275
   6         1.00000650
   7        -0.00147415
   8        -0.00000000
   9        -0.00000000
  10        -0.00029777
Sym=     2a  
Ene=    -2.4842
Spin= Alpha
Occup=    1.00000
   1         0.99972733
   2         0.01279906
   3        -0.00000000
   4        -0.00000000
   5        -0.00057564
   6        -0.00010882
   7         0.00362246
   8        -0.00000000
   9        -0.00000000
  10        -0.00262730
Sym=     2a  
Ene=    -2.4952
Spin= Beta
Occup=    1.00000
   1         0.99985527
   2         0.01187223
   3         0.00000000
   4        -0.00000000
   5        -0.00051818
   6        -0.00007058
   7         0.00229368
   8         0.00000000
   9        -0.00000000
  10        -0.00076901
Sym=     3a  
Ene=    -1.3235
Spin= Alpha
Occup=    1.00000
   1        -0.02127640
   2        -0.00550047
   3         0.00000000
   4        -0.00000000
   5        -0.00191820
   6        -0.00154784
   7         1.00102887
   8        -0.00000000
   9        -0.00000000
  10        -0.04751048
Sym=     3a  
Ene=    -1.0540
Spin= Beta
Occup=    1.00000
   1        -0.01803735
   2         0.02981835
   3        -0.00000000
   4        -0.00000000
   5         0.02559664
   6        -0.00019879
   7         0.98275638
   8         0.00000000
   9         0.00000000
  10        -0.01119865
Sym=     4a  
Ene=    -0.6164
Spin= Alpha
Occup=    1.00000
   1         0.00000000
   2        -0.00000000
   3         0.00062956
   4        -0.00290427
   5        -0.00000000
   6         0.00000000
   7         0.00000000
   8        -0.21195081
   9         0.97777234
  10         0.00000000
Sym=     4a  
Ene=    -0.4637
Spin= Beta
Occup=    1.00000
   1        -0.00000000
   2         0.00000000
   3         0.05490649
   4         0.01190203
   5         0.00000000
   6        -0.00000000
   7        -0.00000000
   8         0.96683658
   9         0.20958028
  10        -0.00000000
Sym=     5a  
Ene=    -0.6048
Spin= Alpha
Occup=    1.00000
   1         0.04902182
   2        -0.00509282
   3        -0.00000000
   4         0.00000000
   5        -0.03134737
   6         0.00157946
   7         0.05839705
   8         0.00000000
   9        -0.00000000
  10         0.99600720
Sym=     5a  
Ene=    -0.2036
Spin= Beta
Occup=    1.00000
   1        -0.03006655
   2         0.82807181
   3        -0.00000000
   4         0.00000000
   5        -0.03176681
   6        -0.01925228
   7        -0.22348268
   8        -0.00000000
   9        -0.00000000
  10        -0.48876125
Sym=     6a  
Ene=    -0.5365
Spin= Alpha
Occup=    1.00000
   1        -0.00000000
   2         0.00000000
   3         0.01486438
   4         0.00322214
   5         0.00000000
   6        -0.00000000
   7        -0.00000000
   8         0.97476579
   9         0.21129909
  10        -0.00000000
Sym=     6a  
Ene=     0.0211
Spin= Beta
Occup=    0.00000
   1         0.02133599
   2         0.37630275
   3         0.00000000
   4         0.00000000
   5        -0.71686047
   6         0.01916830
   7         0.17884537
   8         0.00000000
   9         0.00000000
  10         0.59914010
Sym=     7a  
Ene=     0.0351
Spin= Alpha
Occup=    0.00000
   1        -0.00702785
   2         0.91345008
   3         0.00000000
   4         0.00000000
   5        -0.42325986
   6        -0.00558871
   7        -0.07043629
   8        -0.00000000
   9        -0.00000000
  10         0.08121625
Sym=     7a  
Ene=     0.0330
Spin= Beta
Occup=    0.00000
   1         0.00000000
   2        -0.00000000
   3        -0.20050042
   4         0.92494934
   5         0.00000000
   6        -0.00000000
   7         0.00000000
   8        -0.04310327
   9         0.19884416
  10        -0.00000000
Sym=     8a  
Ene=     0.0841
Spin= Alpha
Occup=    0.00000
   1        -0.00000000
   2        -0.00000000
   3        -0.21472864
   4         0.99058704
   5        -0.00000000
   6         0.00000000
   7         0.00000000
   8         0.03443311
   9        -0.15884697
  10        -0.00000000
Sym=     8a  
Ene=     0.0567
Spin= Beta
Occup=    0.00000
   1         0.00000000
   2        -0.00000000
   3        -0.98906844
   4        -0.21439946
   5        -0.00000000
   6         0.00000000
   7         0.00000000
   8         0.21563429
   9         0.04674285
  10         0.00000000
Sym=     9a  
Ene=     0.0881
Spin= Alpha
Occup=    0.00000
   1         0.00000000
   2        -0.00000000
   3         0.99047976
   4         0.21470539
   5         0.00000000
   6        -0.00000000
   7        -0.00000000
   8        -0.17635975
   9        -0.03822934
  10         0.00000000
Sym=     9a  
Ene=     0.1989
Spin= Beta
Occup=    0.00000
   1         0.03276299
   2         0.52442387
   3        -0.00000000
   4         0.00000000
   5         0.81255013
   6        -0.04469480
   7        -0.44058162
   8         0.00000000
   9        -0.00000000
  10         0.66259026
Sym=    10a  
Ene=     0.1535
Spin= Alpha
Occup=    0.00000
   1         0.01042133
   2         0.51840695
   3        -0.00000000
   4         0.00000000
   5         0.99782522
   6        -0.05129094
   7        -0.48105290
   8        -0.00000000
   9        -0.00000000
  10         0.19004624
Sym=    10a  
Ene=     0.2357
Spin= Beta
Occup=    0.00000
   1         0.00000000
   2         0.00000000
   3         0.07686591
   4        -0.35459813
   5         0.00000000
   6        -0.00000000
   7        -0.00000000
   8        -0.21035897
   9         0.97042883
  10         0.00000000
