   This run of MOLCAS is using the pymolcas driver

                             OPE
                             OPE          NMOL  CASOP  ENMOLC A   SO
                 OPE        NMOLC        AS  OP EN  MO LC     AS  OP
                OPENM       OL CA        SO  PE NM  OL CA     SOP EN
                OP EN      MO   LC       AS  OP ENMOL  CASO   PENMOL
                OP  EN     MO   LC       AS  OP EN     MO     LC ASO
               OP   E  NMOL  C  AS       OP  EN MO     LC     AS  OP
               OP  E   NMO   LC AS        OPEN  MO     LCASOP EN   M
               O  PEN   MO  LCA  SO
            OPE   NMO   L   CAS    OP
        OPENMOL  CASOP     ENMOL   CASOPE
     OPENMOLCA   SOPENMOLCASOPEN   MOLCASOPE
    OPENMOLCAS   OP           EN   MOL    CAS
    OPENMOLCAS       OP  ENM        O     LCA
    OPENMOLCAS    OPEN  MOLCASO     P  E  NMO
    OPENMOLCAS     OP               E  N  MOL
    OPENMOLCA   SO           PENM   O  L  CAS    OPEN    MO    LCAS
    OPENMOLCA   SOP           ENM   O  L  CAS   OP  EN  MOLC  AS   O
    OPENMOLCA   SOPE           NM      O  LCA   S      OP  EN MO
    OPENMOLC                AS         O  PEN   M      OL  CA  SOPE
    OPENMO        LCASOPE  NMOL        C  ASO   P      ENMOLC     AS
    OPE     NMO      LCA  SO     P     E   NM   OL  CA SO  PE N   MO
          OPENMOLCA            SOPE   NMO        LCAS  O    P  ENMO
     OPENMOLCASOPENMOLCASOPENMOLCASOPENMOLCA
        OPENMOLCASOPENMOLCASOPENMOLCASOPE
            OPENMOLCASOPENMOLCASOPENM
               OPENMOLCASOPENMOLCA        version: 24.02
                   OPENMOLCASO
                       OPE                tag: 126-g611b04c8f

 OpenMolcas is free software; you can redistribute it and/or modify it
 under the terms of the GNU Lesser General Public License version 2.1.
 OpenMolcas is distributed in the hope that it will be useful, but it
 is provided "as is" and without any express or implied warranties.
 For more details see the full text of the license in the file
 LICENSE or in <http://www.gnu.org/licenses/>.

                 Copyright (C) The OpenMolcas Authors
           For the author list and the recommended citation,
                   consult the file CONTRIBUTORS.md

           *************************************************
           * pymolcas version py2.28                       *
           *   build c4a6d18ded8cb6cad61d2372a9abd97c      *
           *   (after the EMIL interpreter by V. Veryazov) *
           *************************************************

configuration info
------------------
Host name: debian (Linux)
C Compiler ID: GNU
C flags: -std=gnu99
Fortran Compiler ID: Intel
Fortran flags: -fpp -i8 -heap-arrays
Definitions: _MOLCAS_;_I8_;_LINUX_
Parallel: OFF (GA=OFF)


   ------------------------------------------------------------------
  |
  |              Project: 2.10
  |       Submitted from: /home/grierjones/DDCASPT2/delta_ML/LiO/2.10
  |         Scratch area: /tmp/2.10
  |      Save outputs to: /home/grierjones/DDCASPT2/delta_ML/LiO/2.10
  |               Molcas: /usr/local
  |
  | Scratch area is empty
  |
  |       MOLCAS_DRIVER = /usr/local/pymolcas
  | MOLCAS_KEEP_WORKDIR = NO
  |  MOLCAS_NEW_WORKDIR = YES
  |       MOLCAS_NPROCS = 1
  |       MOLCAS_SOURCE = /usr/local
  |    MOLCAS_STRUCTURE = 0
  |
   ------------------------------------------------------------------

++ ---------   Input file   ---------

&GATEWAY
coord=2.10.xyz
Basis = ANO-RCC-MB
Group = nosymm
End of Input

&SEWARD
End of Input

&SCF
UHF

&MBPT2
Frozen
0

&RASSCF
Title= RASSCF
FileOrb
/home/grierjones/DDCASPT2/delta_ML/LiO/2.00/2.00.RasOrb

NACTEL
1 0 0
Inactive
5
RAS2
2
Symmetry
1
Spin
2
orblisting
all
ITERation
200 100
CIMX
200
SDAV
500

&CASPT2
Imaginary Shift
0.0
Frozen
0

-- ----------------------------------

--- Start Module: gateway at Thu Apr 25 14:04:22 2024 ---
 
()()()()()()()()()()()()()()()()()()()()()()()()()()()()()()()()()()()()()()()()()()()()()()()()()()

                                              &GATEWAY

                                   only a single process is used
                       available to each process: 2.0 GB of memory, 1 thread?
                                            pid: 115330
()()()()()()()()()()()()()()()()()()()()()()()()()()()()()()()()()()()()()()()()()()()()()()()()()()
 
 
++    Symmetry information:
      ---------------------
 
                    Character Table for C1 
 
                             E  
                    a        1  x, y, xy, Rz, z, xz, Ry, yz, Rx, I
--
 
 
++    Basis set information:
      ----------------------
 
 
      Basis set label: LI.ANO-RCC...2S1P.
 
      Electronic valence basis set:
      ------------------
      Associated Effective Charge   3.000000 au
      Associated Actual Charge      3.000000 au
      Nuclear Model: Point charge
 
      Shell  nPrim  nBasis  Cartesian Spherical Contaminant
         s      14       2        X                  
         p       9       1        X                  
 
 
      Basis set label: O.ANO-RCC...2S1P.
 
      Electronic valence basis set:
      ------------------
      Associated Effective Charge   8.000000 au
      Associated Actual Charge      8.000000 au
      Nuclear Model: Point charge
 
      Shell  nPrim  nBasis  Cartesian Spherical Contaminant
         s      14       2        X                  
         p       9       1        X                  
--
 
 
++    Molecular structure info:
      -------------------------
 
                    ************************************************ 
                    **** Cartesian Coordinates / Bohr, Angstrom **** 
                    ************************************************ 
 
     Center  Label                x              y              z                     x              y              z
        1      LI1              0.000000       0.000000       0.000000              0.000000       0.000000       0.000000
        2      O2               0.000000       0.000000       3.968425              0.000000       0.000000       2.100000
--
 
 
            Nuclear Potential Energy              6.04773955 au
 
--- Stop Module: gateway at Thu Apr 25 14:04:23 2024 /rc=_RC_ALL_IS_WELL_ ---
*** files: xmldump
    saved to directory /home/grierjones/DDCASPT2/delta_ML/LiO/2.10

--- Start Module: seward at Thu Apr 25 14:04:23 2024 ---
 
()()()()()()()()()()()()()()()()()()()()()()()()()()()()()()()()()()()()()()()()()()()()()()()()()()

                                              &SEWARD

                                   only a single process is used
                       available to each process: 2.0 GB of memory, 1 thread?
                                            pid: 115333
()()()()()()()()()()()()()()()()()()()()()()()()()()()()()()()()()()()()()()()()()()()()()()()()()()
 
               SEWARD will generate:
                  Multipole Moment integrals up to order  2
                  Kinetic Energy integrals
                  Nuclear Attraction integrals (point charge)
                  One-Electron Hamiltonian integrals
                  Velocity integrals
                  Relativistic Douglas-Kroll-Hess integrals:
                    - Parametrization         : EXP
                    - DKH order of Hamiltonian: 2
                    - DKH order of Properties : 0
                         - multipole moment operators
                         - electric potential operators
                         - contact operators
                  Orbital angular momentum around ( 0.0000  0.0000  2.7585 )
                  Velocity quadrupole around ( 0.0000  0.0000  2.7585 )
                  Atomic mean-field integrals
                  Two-Electron Repulsion integrals
 
                   Integrals are discarded if absolute value <: 1.00E-14
                   Integral cutoff threshold is set to       <: 1.00E-16
 
            Nuclear Potential Energy              6.04773955 au
 
 
      Basis set specifications :
      Symmetry species         a  
      Basis functions           10
 
 
      Input file to MOLDEN was generated!
 
--- Stop Module: seward at Thu Apr 25 14:04:23 2024 /rc=_RC_ALL_IS_WELL_ ---
*** files: 2.10.GssOrb 2.10.guessorb.h5 2.10.guessorb.molden xmldump
    saved to directory /home/grierjones/DDCASPT2/delta_ML/LiO/2.10

*** symbolic link created: INPORB -> 2.10.GssOrb
--- Start Module: scf at Thu Apr 25 14:04:23 2024 ---
 
()()()()()()()()()()()()()()()()()()()()()()()()()()()()()()()()()()()()()()()()()()()()()()()()()()

                                                &SCF

                                   only a single process is used
                       available to each process: 2.0 GB of memory, 1 thread?
                                            pid: 115338
()()()()()()()()()()()()()()()()()()()()()()()()()()()()()()()()()()()()()()()()()()()()()()()()()()
 
++    Input section:
      --------------
 
      Header of the integral files:
      
       Integrals generated by Gateway/Seward, Thu Apr 25 14:04:23 2024
 
 
      Cartesian coordinates in Angstrom:
      -----------------------------------------------------
      No.  Label        X            Y            Z        
      -----------------------------------------------------
       1   LI1        0.00000000   0.00000000   0.00000000
       2   O2         0.00000000   0.00000000   2.10000000
      -----------------------------------------------------
      Nuclear repulsion energy =    6.04773955
--
 
++    Orbital specifications:
      -----------------------
 
      Symmetry species               1
                                     a
      Frozen orbitals                0
      Occupied orbitals alpha        6
      Occupied orbitals beta         5
      Secondary orbitals alpha       4
      Secondary orbitals beta        5
      Deleted orbitals               0
      Total number of orbitals      10
      Number of basis functions     10
--
 
      Molecular charge                           0.000
 
++    Optimization specifications:
      ----------------------------
 
      SCF Algorithm: Conventional USCF
      D(i)-D(i-1) density differences are used
      Number of density matrices in core                 5
      Maximum number of NDDO SCF iterations            400
      Maximum number of HF SCF iterations              400
      Threshold for SCF energy change             1.00E-09
      Threshold for density matrix                1.00E-04
      Threshold for Fock matrix                   1.50E-04
      Threshold for linear dependence             1.00E-09
      Threshold at which DIIS is turned on        1.50E-01
      Maximum depth in the DIIS procedure                5
      Maximum depth in the BFGS Hessian update          30
      Threshold at which QNR/C2DIIS is turned on  7.50E-02
      Threshold for Norm(delta) (QNR/C2DIIS)      1.00E-03
      All orbitals punched on: UHFORB
--
 
      Input vectors read from INPORB
      Orbital file label: *Guess orbitals
 
 
++ Convergence information
                               UHF SCF        iterations: Energy and convergence statistics
 
Iter     Tot. SCF        One-elec.       Two-elec.     Energy      Max Dij or  Max Fij      DNorm      TNorm      AccCon     Time
         Energy          Energy          Energy        Change      Delta Norm                                                in Sec.
   1   -82.228480647  -128.999374221    40.723154021   0.00E+00    4.39E-01*   5.90E-02*    4.69E+00   2.01E+01   None         0.
   2   -82.281014184  -127.212207673    38.883453936  -5.25E-02*   8.79E-02*   2.48E-02*    1.22E+00   1.96E+01   EDIIS        0.
   3   -82.284378681  -127.617071022    39.284952788  -3.36E-03*   5.14E-02*   1.23E-02*    2.48E-01   1.97E+01   c2DIIS       0.
   4   -82.285110726  -127.472157122    39.139306843  -7.32E-04*   3.84E-02*   5.50E-03*    1.10E-01   1.97E+01   QNRc2DIIS    0.
   5   -82.285384785  -127.492094612    39.158970274  -2.74E-04*   1.20E-01*   4.65E-03*    5.77E-02   1.97E+01   QNRc2DIIS    0.
   6   -82.285818708  -127.437019256    39.103460995  -4.34E-04*   4.33E-02*   3.55E-03*    1.79E-01   1.97E+01   QNRc2DIIS    0.
   7   -82.285919357  -127.414630491    39.080971581  -1.01E-04*   8.25E-02*   2.72E-03*    6.32E-02   1.97E+01   QNRc2DIIS    0.
   8   -82.286067415  -127.369504042    39.035697074  -1.48E-04*   2.64E-02*   1.32E-03*    1.17E-01   1.97E+01   QNRc2DIIS    0.
   9   -82.286091975  -127.355663190    39.021831661  -2.46E-05*   5.82E-02*   1.46E-03*    3.58E-02   1.97E+01   QNRc2DIIS    0.
  10   -82.286117769  -127.319825200    38.985967878  -2.58E-05*   4.39E-02*   1.90E-03*    7.83E-02   1.97E+01   QNRc2DIIS    0.
  11   -82.286152673  -127.351654433    39.017762206  -3.49E-05*   2.64E-02*   5.98E-04*    6.41E-02   1.97E+01   QNRc2DIIS    0.
  12   -82.286174096  -127.337543053    39.003629404  -2.14E-05*   2.40E-02*   6.11E-04*    3.61E-02   1.97E+01   QNRc2DIIS    0.
  13   -82.286191762  -127.325670251    38.991738936  -1.77E-05*   1.56E-01*   6.08E-04*    3.21E-02   1.97E+01   QNRc2DIIS    0.
  14   -82.286280790  -127.224881069    38.890860726  -8.90E-05*   1.17E-01*   9.77E-04*    2.04E-01   1.97E+01   QNRc2DIIS    0.
 DIIS_X: Resetting BFGS depth!
         Too large B matrix values.
  15   -82.286215491  -127.308233185    38.974278141   6.53E-05*   1.97E-02*   6.95E-04*    1.54E-01   1.97E+01   QNRc2DIIS    0.
  16   -82.286201573  -127.319628622    38.985687496   1.39E-05*   2.40E-03*   7.80E-04*    2.56E-02   1.97E+01   QNRc2DIIS    0.
  17   -82.286200469  -127.320312907    38.986372885   1.10E-06*   3.19E-01*   7.60E-04*    3.24E-03   1.97E+01   QNRc2DIIS    0.
 DIIS_X: Resetting kOptim!
         Caused by energies and gradients which are inconsistent with a convex e
 nergy functional.
 kOptim=                     5 -> kOptim=                     1
  18   -82.286469317  -127.060300133    38.726091262  -2.69E-04*   1.24E-02*   1.27E-03*    4.04E-01   1.96E+01   QNRc2DIIS    0.
  19   -82.286491411  -127.049124678    38.714893714  -2.21E-05*   8.48E-02*   1.20E-03*    1.57E-02   1.96E+01   QNRc2DIIS    0.
  20   -82.286584812  -126.955673551    38.621349186  -9.34E-05*   1.09E-01*   1.94E-03*    1.04E-01   1.96E+01   QNRc2DIIS    0.
 DIIS_X: Resetting BFGS depth!
         Too large B matrix values.
 DIIS_X: Resetting kOptim!
         Caused by energies and gradients which are inconsistent with a convex e
 nergy functional.
 kOptim=                     4 -> kOptim=                     1
  21   -82.286697789  -126.823660371    38.489223030  -1.13E-04*   2.76E-02*   3.41E-03*    1.31E-01   1.96E+01   QNRc2DIIS    0.
  22   -82.286845582  -126.808445683    38.473860548  -1.48E-04*   5.81E-02*   2.31E-03*    3.97E-02   1.96E+01   QNRc2DIIS    0.
  23   -82.286990027  -126.759870878    38.425141298  -1.44E-04*   3.92E-02*   1.98E-03*    7.92E-02   1.95E+01   QNRc2DIIS    0.
  24   -82.287057566  -126.711708343    38.376911223  -6.75E-05*   1.01E-01*   2.77E-03*    4.91E-02   1.95E+01   QNRc2DIIS    0.
  25   -82.286991708  -126.590096966    38.255365705   6.59E-05*   2.43E-01*   6.41E-03*    1.30E-01   1.95E+01   QNRc2DIIS    0.
  26   -82.286727838  -126.874679335    38.540211943   2.64E-04*   1.65E-01*   2.18E-03*    3.07E-01   1.96E+01   QNRc2DIIS    0.
  27   -82.286456798  -127.061435470    38.727239120   2.71E-04*   4.24E-02*   1.23E-03*    1.98E-01   1.96E+01   QNRc2DIIS    0.
  28   -82.286404887  -127.103652750    38.769508310   5.19E-05*   2.67E-01*   1.04E-03*    5.19E-02   1.96E+01   QNRc2DIIS    0.
  29   -82.286204564  -127.319278016    38.985333899   2.00E-04*   4.39E-02*   5.05E-04*    3.40E-01   1.97E+01   QNRc2DIIS    0.
  30   -82.286192828  -127.293935301    38.960002920   1.17E-05*   1.70E-02*   1.68E-03*    6.59E-02   1.97E+01   QNRc2DIIS    0.
  31   -82.286223341  -127.289381172    38.955418278  -3.05E-05*   4.45E-02*   1.03E-03*    2.37E-02   1.97E+01   QNRc2DIIS    0.
  32   -82.286254514  -127.260891274    38.926897207  -3.12E-05*   2.17E-01*   8.62E-04*    5.72E-02   1.97E+01   QNRc2DIIS    0.
  33   -82.286075698  -127.392137979    39.058322728   1.79E-04*   5.62E-01*   1.49E-03*    2.92E-01   1.97E+01   QNRc2DIIS    0.
 DIIS_X: Resetting BFGS depth!
         Too large B matrix values.
 DIIS_X: Resetting kOptim!
         Caused by energies and gradients which are inconsistent with a convex e
 nergy functional.
 kOptim=                     5 -> kOptim=                     1
  34   -82.286639283  -126.932471308    38.598092472  -5.64E-04*   2.21E-02*   2.36E-03*    7.15E-01   1.96E+01   QNRc2DIIS    0.
  35   -82.286701697  -126.910496698    38.576055448  -6.24E-05*   9.16E-02*   2.01E-03*    2.85E-02   1.96E+01   QNRc2DIIS    0.
  36   -82.286849955  -126.808294864    38.473705356  -1.48E-04*   9.05E-02*   2.11E-03*    1.14E-01   1.96E+01   QNRc2DIIS    0.
  37   -82.286975353  -126.693634290    38.358919383  -1.25E-04*   5.25E-01*   3.64E-03*    1.09E-01   1.95E+01   QNRc2DIIS    0.
 DIIS_X: Resetting BFGS depth!
         Too large B matrix values.
  38   -82.286102949  -127.249850365    38.916007863   8.72E-04*   2.79E-02*   3.64E-03*    6.30E-01   1.97E+01   QNRc2DIIS    0.
  39   -82.286095212  -127.267240642    38.933405877   7.74E-06*   1.97E-02*   3.35E-03*    3.66E-02   1.97E+01   QNRc2DIIS    0.
  40   -82.286147984  -127.276644239    38.942756703  -5.28E-05*   3.23E-02*   2.73E-03*    2.93E-02   1.97E+01   QNRc2DIIS    0.
  41   -82.286202858  -127.289796801    38.955854390  -5.49E-05*   9.43E-02*   1.37E-03*    4.93E-02   1.97E+01   QNRc2DIIS    0.
  42   -82.286131814  -127.349281211    39.015409843   7.10E-05*   3.33E-01*   1.80E-03*    1.24E-01   1.97E+01   QNRc2DIIS    0.
 DIIS_X: Resetting BFGS depth!
         Too large B matrix values.
  43   -82.286419563  -127.088392282    38.754233166  -2.88E-04*   1.83E-01*   1.44E-03*    4.23E-01   1.96E+01   QNRc2DIIS    0.
  44   -82.286252838  -127.253257943    38.919265551   1.67E-04*   1.46E-01*   1.30E-03*    2.36E-01   1.97E+01   QNRc2DIIS    0.
 DIIS_X: Resetting kOptim!
         Caused by energies and gradients which are inconsistent with a convex e
 nergy functional.
 kOptim=                     5 -> kOptim=                     1
  45   -82.286380180  -127.126265960    38.792146227  -1.27E-04*   1.17E-02*   1.31E-03*    1.90E-01   1.96E+01   QNRc2DIIS    0.
  46   -82.286397204  -127.118540055    38.784403298  -1.70E-05*   5.27E-02*   1.10E-03*    1.53E-02   1.96E+01   QNRc2DIIS    0.
  47   -82.286441603  -127.073737249    38.739556093  -4.44E-05*   4.92E-02*   1.55E-03*    6.65E-02   1.96E+01   QNRc2DIIS    0.
  48   -82.286478510  -127.026414848    38.692196784  -3.69E-05*   2.49E-01*   2.60E-03*    6.03E-02   1.96E+01   QNRc2DIIS    0.
 DIIS_X: Resetting BFGS depth!
         Too large B matrix values.
  49   -82.286255761  -127.241805711    38.907810398   2.23E-04*   4.00E-01*   1.09E-03*    3.07E-01   1.97E+01   QNRc2DIIS    0.
 DIIS_X: Resetting kOptim!
         Caused by energies and gradients which are inconsistent with a convex e
 nergy functional.
 kOptim=                     5 -> kOptim=                     1
  50   -82.286740534  -126.844685896    38.510205809  -4.85E-04*   2.98E-02*   3.10E-03*    4.95E-01   1.96E+01   QNRc2DIIS    0.
  51   -82.286853006  -126.818481903    38.483889344  -1.12E-04*   9.81E-02*   2.57E-03*    4.02E-02   1.96E+01   QNRc2DIIS    0.
  52   -82.287047397  -126.712057944    38.377270994  -1.94E-04*   7.17E-02*   2.36E-03*    1.27E-01   1.95E+01   QNRc2DIIS    0.
  53   -82.287162171  -126.620760393    38.285858669  -1.15E-04*   1.88E-01*   3.87E-03*    8.78E-02   1.95E+01   QNRc2DIIS    0.
  54   -82.287243679  -126.362730826    38.027747594  -8.15E-05*   1.15E-01*   7.91E-03*    2.33E-01   1.94E+01   QNRc2DIIS    0.
 DIIS_X: Resetting BFGS depth!
         Too large B matrix values.
 DIIS_X: Resetting kOptim!
         Caused by energies and gradients which are inconsistent with a convex e
 nergy functional.
 kOptim=                     5 -> kOptim=                     1
  55   -82.287683253  -126.187679632    37.852256826  -4.40E-04*   4.13E-02*   7.27E-03*    1.35E-01   1.94E+01   QNRc2DIIS    0.
  56   -82.287996468  -126.159681142    37.823945121  -3.13E-04*   7.37E-02*   4.67E-03*    6.27E-02   1.94E+01   QNRc2DIIS    0.
  57   -82.288229345  -126.090434443    37.754465545  -2.33E-04*   1.95E-02*   1.70E-03*    1.09E-01   1.94E+01   QNRc2DIIS    0.
  58   -82.288262890  -126.058561927    37.722559484  -3.35E-05*   9.47E-02*   1.70E-03*    2.38E-02   1.94E+01   QNRc2DIIS    0.
  59   -82.288381178  -125.902733210    37.566612479  -1.18E-04*   6.53E-02*   1.62E-03*    1.14E-01   1.93E+01   QNRc2DIIS    0.
  60   -82.288428892  -125.818370843    37.482202397  -4.77E-05*   2.35E-02*   1.23E-03*    8.96E-02   1.93E+01   QNRc2DIIS    0.
  61   -82.288442254  -125.783124787    37.446942980  -1.34E-05*   2.82E-03*   3.13E-04*    2.92E-02   1.93E+01   QNRc2DIIS    0.
  62   -82.288443023  -125.782779793    37.446597217  -7.69E-07*   1.25E-03*   3.69E-05     4.14E-03   1.93E+01   QNRc2DIIS    0.
  63   -82.288443042  -125.780899556    37.444716961  -1.90E-08*   2.05E-04    7.05E-06     1.55E-03   1.93E+01   QNRc2DIIS    0.
  64   -82.288443043  -125.780613024    37.444430428  -8.39E-10    2.34E-05    1.58E-06     2.65E-04   1.93E+01   QNRc2DIIS    0.
 
       Convergence after  64 Macro Iterations
--
 
 *****************************************************************************************************************************
 *                                                                                                                           *
 *                                             SCF/KS-DFT Program, Final results                                             *
 *                                                                                                                           *
 *                                                                                                                           *
 *                                                                                                                           *
 *                                                       Final Results                                                       *
 *                                                                                                                           *
 *****************************************************************************************************************************
 
::    Total SCF energy                                -82.2884430427
      One-electron energy                            -125.7806130237
      Two-electron energy                              37.4444304279
      Nuclear repulsion energy                          6.0477395532
      Kinetic energy (interpolated)                    83.0562094496
      Virial theorem                                    0.9907560625
      Total spin, S(S+1)                                1.3891743788
      Total spin, S                                     0.7803024560
      Max non-diagonal density matrix element           0.0000191443
      Max non-diagonal Fock matrix element              0.0000022874
 
 
      All orbitals with orbital energies smaller than  E(LUMO)+0.5 are printed
 
++    Molecular orbitals:
      -------------------
 
      Title: UHF orbitals (alpha)

      Molecular orbitals for symmetry species 1: a  
 
          Orbital            1         2         3         4         5         6         7         8         9        10    
          Energy          -20.5857   -2.4842   -1.3235   -0.6164   -0.6048   -0.5365    0.0351    0.0841    0.0881    0.1535
          Occ. No.          1.0000    1.0000    1.0000    1.0000    1.0000    1.0000    0.0000    0.0000    0.0000    0.0000
 
        1 LI1    1s        -0.0001    0.9997   -0.0213    0.0000    0.0490   -0.0000   -0.0070   -0.0000    0.0000    0.0104
        2 LI1    2s        -0.0006    0.0128   -0.0055   -0.0000   -0.0051    0.0000    0.9135   -0.0000   -0.0000    0.5184
        3 LI1    2px        0.0000   -0.0000    0.0000    0.0006   -0.0000    0.0149    0.0000   -0.2147    0.9905   -0.0000
        4 LI1    2py       -0.0000   -0.0000   -0.0000   -0.0029    0.0000    0.0032    0.0000    0.9906    0.2147   -0.0000
        5 LI1    2pz       -0.0007   -0.0006   -0.0019   -0.0000   -0.0313    0.0000   -0.4233   -0.0000    0.0000    0.9978
        6 O2     1s         1.0000   -0.0001   -0.0015    0.0000    0.0016   -0.0000   -0.0056    0.0000   -0.0000   -0.0513
        7 O2     2s         0.0021    0.0036    1.0010    0.0000    0.0584   -0.0000   -0.0704    0.0000   -0.0000   -0.4811
        8 O2     2px       -0.0000   -0.0000   -0.0000   -0.2120    0.0000    0.9748   -0.0000    0.0344   -0.1764    0.0000
        9 O2     2py       -0.0000   -0.0000   -0.0000    0.9778   -0.0000    0.2113   -0.0000   -0.1588   -0.0382   -0.0000
       10 O2     2pz       -0.0005   -0.0026   -0.0475    0.0000    0.9960   -0.0000    0.0812   -0.0000    0.0000    0.1900
--
 
 
      Input file to MOLDEN was generated!
 
 
++    Static properties:
      ------------------
 
 
      LoProp Charges per center
 

                   LI1      O2    
      Nuclear      3.0000   8.0000
      Electronic  -2.7338  -8.2662
 
      Total        0.2662  -0.2662
--
 
 
      All orbitals with orbital energies smaller than  E(LUMO)+0.5 are printed
 
++    Molecular orbitals:
      -------------------
 
      Title: UHF orbitals (beta)

      Molecular orbitals for symmetry species 1: a  
 
          Orbital            1         2         3         4         5         6         7         8         9        10    
          Energy          -20.5242   -2.4952   -1.0540   -0.4637   -0.2036    0.0211    0.0330    0.0567    0.1989    0.2357
          Occ. No.          1.0000    1.0000    1.0000    1.0000    1.0000    0.0000    0.0000    0.0000    0.0000    0.0000
 
        1 LI1    1s        -0.0000    0.9999   -0.0180   -0.0000   -0.0301    0.0213    0.0000    0.0000    0.0328    0.0000
        2 LI1    2s        -0.0001    0.0119    0.0298    0.0000    0.8281    0.3763   -0.0000    0.0000    0.5244    0.0000
        3 LI1    2px        0.0000    0.0000   -0.0000    0.0549   -0.0000    0.0000   -0.2005   -0.9891   -0.0000    0.0769
        4 LI1    2py       -0.0000   -0.0000   -0.0000    0.0119    0.0000    0.0000    0.9249   -0.2144    0.0000   -0.3546
        5 LI1    2pz       -0.0001   -0.0005    0.0256    0.0000   -0.0318   -0.7169    0.0000   -0.0000    0.8126    0.0000
        6 O2     1s         1.0000   -0.0001   -0.0002   -0.0000   -0.0193    0.0192   -0.0000    0.0000   -0.0447   -0.0000
        7 O2     2s        -0.0015    0.0023    0.9828   -0.0000   -0.2235    0.1788    0.0000    0.0000   -0.4406   -0.0000
        8 O2     2px       -0.0000    0.0000    0.0000    0.9668   -0.0000    0.0000   -0.0431    0.2156    0.0000   -0.2104
        9 O2     2py       -0.0000   -0.0000    0.0000    0.2096   -0.0000    0.0000    0.1988    0.0467   -0.0000    0.9704
       10 O2     2pz       -0.0003   -0.0008   -0.0112   -0.0000   -0.4888    0.5991   -0.0000    0.0000    0.6626    0.0000
--
 
 
++    Molecular charges:
      ------------------
 
      Mulliken charges per centre and basis function type
      ---------------------------------------------------
 
                            LI1                     O2    
                     alpha        beta       alpha        beta
      1s           1.0000      1.0002      1.0000      1.0000
      2s          -0.0005      0.7050      1.0025      0.9888
      2px          0.0026      0.0117      0.9974      0.9434
      2pz          0.0024      0.0119      0.9956      0.2941
      2py         -0.0003      0.0005      1.0003      0.0443
      Total        1.0041      1.7293      4.9959      3.2707
      Total              2.7334                  8.2666
 
      Charge            0.2666                 -0.2666
 
      Total electronic charge=   11.000000
 
      Total            charge=   -0.000000
--
 
 
      Input file to MOLDEN was generated!
 
 
++    Static properties:
      ------------------
 
 
      LoProp Charges per center
 

                   LI1      O2    
      Nuclear      3.0000   8.0000
      Electronic  -2.7338  -8.2662
 
      Total        0.2662  -0.2662
--
 
 
++    Natural Bond Order analysis
      ---------------------------
      Based on LoProp computed density
      -------------------------------------------------------------------------------------
      Atom A       Atom B       Bond Order
      -------------------------------------------------------------------------------------
      NBO located      0.998 non-bonded electrons on atom LI1       
      The remaining    4.539 electrons are to be considered as diffuse
--
 
 
++    Molecular orbitals:
      -------------------
 
      Title: Natural orbitals

      Molecular orbitals for symmetry species 1: a  
 
          Orbital            1         2         3         4         5         6         7         8         9        10    
          Energy          -20.5459   -2.4897   -1.1960   -0.4999   -0.3115   -0.2032   -0.0255    0.0721    0.1354    0.0714
          Occ. No.          2.0000    2.0000    1.9996    1.9992    1.6031    1.0000    0.3969    0.0008    0.0004    0.0000
 
        1 LI1    1s         0.0002    0.9998   -0.0152    0.0000   -0.0450    0.0000   -0.0189    0.0000    0.0124   -0.0000
        2 LI1    2s        -0.0005    0.0128   -0.0031   -0.0000    0.4650    0.0000   -0.9243    0.0000    0.1806   -0.0000
        3 LI1    2px        0.0000   -0.0000   -0.0000    0.0350   -0.0000    0.0005    0.0000    0.9900   -0.0000   -0.2147
        4 LI1    2py        0.0000   -0.0000   -0.0000    0.0076    0.0000   -0.0023   -0.0000    0.2146   -0.0000    0.9906
        5 LI1    2pz       -0.0006   -0.0006    0.0118    0.0000    0.0004    0.0000    0.0700    0.0000    1.0820    0.0000
        6 O2     1s         0.9998   -0.0001    0.0210    0.0000   -0.0113   -0.0000    0.0196   -0.0000   -0.0467    0.0000
        7 O2     2s        -0.0211    0.0003    0.9963    0.0000   -0.1090   -0.0000    0.2009   -0.0000   -0.4434    0.0000
        8 O2     2px        0.0000   -0.0000   -0.0000    0.9710   -0.0000   -0.2119   -0.0000   -0.1961    0.0000    0.0346
        9 O2     2py        0.0000   -0.0000   -0.0000    0.2105   -0.0000    0.9777   -0.0000   -0.0425    0.0000   -0.1595
       10 O2     2pz       -0.0002   -0.0013    0.0047   -0.0000   -0.8303    0.0000   -0.5696    0.0000    0.1518   -0.0000
--
 
 
++    Molecular properties:
      ---------------------
 
      Charge (e):
                      =   -0.0000
      Dipole Moment (Debye):
      Origin of the operator (Ang)=    0.0000    0.0000    0.0000
                   X=  3.9721E-12               Y= -2.1552E-13               Z= -2.1831E+00           Total=  2.1831E+00
      Quadrupole Moment (Debye*Ang):
      Origin of the operator (Ang)=    0.0000    0.0000    1.4597
                  XX= -1.2359E+01              XY= -2.6371E-01              XZ= -5.3211E-12              YY= -1.1200E+01
                  YZ=  4.6079E-13              ZZ= -9.6852E+00
      In traceless form (Debye*Ang)
                  XX= -1.9167E+00              XY= -3.9557E-01              XZ= -7.9817E-12              YY= -1.7758E-01
                  YZ=  6.9118E-13              ZZ=  2.0942E+00
--
 
 
      Input file to MOLDEN was generated!
 
 ###############################################################################
 ###############################################################################
 ###                                                                         ###
 ###                                                                         ###
 ###    WARNING: RunFile label BirthCertificate                              ###
 ###    was used       69 times                                              ###
 ###                                                                         ###
 ###                                                                         ###
 ###############################################################################
 ###############################################################################
 ###############################################################################
 ###############################################################################
 ###                                                                         ###
 ###                                                                         ###
 ###    WARNING: RunFile label nBas                                          ###
 ###    was used       87 times                                              ###
 ###                                                                         ###
 ###                                                                         ###
 ###############################################################################
 ###############################################################################
--- Stop Module: scf at Thu Apr 25 14:04:24 2024 /rc=_RC_ALL_IS_WELL_ ---
*** files: 2.10.LprOrb 2.10.LoProp.molden 2.10.scf.molden 2.10.scf.h5 2.10.UhfOrb 2.10.UnaOrb xmldump
    saved to directory /home/grierjones/DDCASPT2/delta_ML/LiO/2.10
--- Module scf spent 1 second ---

*** symbolic link created: INPORB -> 2.10.UnaOrb
--- Start Module: mbpt2 at Thu Apr 25 14:04:24 2024 ---
 
()()()()()()()()()()()()()()()()()()()()()()()()()()()()()()()()()()()()()()()()()()()()()()()()()()

                                               &MBPT2

                                   only a single process is used
                       available to each process: 2.0 GB of memory, 1 thread?
                                            pid: 115341
()()()()()()()()()()()()()()()()()()()()()()()()()()()()()()()()()()()()()()()()()()()()()()()()()()
 
 
 ###############################################################################
 ###############################################################################
 ###                                                                         ###
 ###                                                                         ###
 ###    WARNING: MP2 implementation intended for RHF references only         ###
 ###                                                                         ###
 ###                                                                         ###
 ###############################################################################
 ###############################################################################
MBPT2 WARNING: Reference function according to RunFile:UHF-SCF 
I'll assume you know what you're doing and continue
 
 
WARNING!
Default frozen orbitals as non valence orbitals is overwritten by user input.
Default values:   2
 
 
      Cartesian coordinates in Angstrom:
      -----------------------------------------------------
      No.  Label        X            Y            Z        
      -----------------------------------------------------
       1   LI1        0.00000000   0.00000000   0.00000000
       2   O2         0.00000000   0.00000000   2.10000000
      -----------------------------------------------------
      Nuclear repulsion energy =    6.04773955
 
      Contents of RUNFILE file:
      -------------------------
 
      Symmetry species                           1
                                                 a
      Number of basis functions                 10
      Frozen occupied orbitals                   0
      Active occupied orbitals                   6
      Active external orbitals                   4
      Deleted external orbitals                  0
 
 
      Energies of the active occupied orbitals
 
      symmetry species 1                   -20.585659     -2.484181     -1.323537     -0.616393     -0.604808
                                            -0.536547
 
 
      Energies of the active external orbitals
 
      symmetry species 1                     0.035149      0.084098      0.088067      0.153494
 
 
      ********************************************************************************************************
      *                                               Results                                                *
      ********************************************************************************************************
 
 Conventional algorithm used...

       SCF energy                           =      -82.2884430427 a.u.
       Second-order correlation energy      =       -0.0016461737 a.u.

       Total energy                         =      -82.2900892164 a.u.
       Reference weight ( Cref**2 )         =        0.99905
 
::    Total MBPT2 energy                              -82.2900892164
 
 
       Zeroth-order energy (E0)             =      -46.2545108481 a.u.
 
       Shanks-type energy S1(E)             =      -82.2900892916 a.u.
 
 


       Data processing and timing information:

       Section                                              time(sec)
                                                          CPU  Elapsed

      Input data processing                              0.01      0.06
      Transformation of integrals                        0.00      0.00
      MBPT2 calculations (BJAI)                          0.00      0.00
      Total MBPT2 calculations                           0.01      0.06
 
 
--- Stop Module: mbpt2 at Thu Apr 25 14:04:25 2024 /rc=_RC_ALL_IS_WELL_ ---
*** files: xmldump
    saved to directory /home/grierjones/DDCASPT2/delta_ML/LiO/2.10

*** symbolic link created: INPORB -> 2.10.UnaOrb
--- Start Module: rasscf at Thu Apr 25 14:04:25 2024 ---
 
()()()()()()()()()()()()()()()()()()()()()()()()()()()()()()()()()()()()()()()()()()()()()()()()()()

                                              &RASSCF

                                   only a single process is used
                       available to each process: 2.0 GB of memory, 1 thread?
                                            pid: 115345
()()()()()()()()()()()()()()()()()()()()()()()()()()()()()()()()()()()()()()()()()()()()()()()()()()
 
 
      Header of the ONEINT file:
      --------------------------
      
      Integrals generated by Gateway/Seward, Thu Apr 25 14:04:23 2024
 
 
      OrdInt status: non-squared
 
 
      Cartesian coordinates in Angstrom:
      -----------------------------------------------------
      No.  Label        X            Y            Z        
      -----------------------------------------------------
       1   LI1        0.00000000   0.00000000   0.00000000
       2   O2         0.00000000   0.00000000   2.10000000
      -----------------------------------------------------
      Nuclear repulsion energy =    6.04773955
 
++    Wave function specifications:
      -----------------------------
 
      Number of closed shell electrons          10
      Number of electrons in active shells       1
      Max number of holes in RAS1 space          0
      Max nr of electrons in RAS3 space          0
      Number of inactive orbitals                5
      Number of active orbitals                  2
      Number of secondary orbitals               3
      Spin quantum number                      0.5
      State symmetry                             1
--
 
++    Orbital specifications:
      -----------------------
 
      Symmetry species                           1
                                                 a
      Frozen orbitals                            0
      Inactive orbitals                          5
      Active orbitals                            2
      RAS1 orbitals                              0
      RAS2 orbitals                              2
      RAS3 orbitals                              0
      Secondary orbitals                         3
      Deleted orbitals                           0
      Number of basis functions                 10
--
 
++    CI expansion specifications:
      ----------------------------
 
      Number of CSFs                             2
      Number of determinants                     2
      Number of root(s) required                 1
      Root chosen for geometry opt.              1
      CI root used                               1
         
      highest root included in the CI            1
      max. size of the explicit Hamiltonian      2
--
 
++    Optimization specifications:
      ----------------------------
 
      RASSCF algorithm: Conventional
      Maximum number of macro iterations       200
      Maximum number of SX iterations          100
      Threshold for RASSCF energy            1.000E-08
      Threshold for max MO rotation          1.000E-01
      Threshold for max BLB element          1.000E-04
      Level shift parameter                  5.000E-01
      Make Quasi-Newton update
--
 
      The MO-coefficients are taken from the file:
      /home/grierjones/DDCASPT2/delta_ML/LiO/2.00/2.00.RasOrb                                                                                                                                                                                                         
      Title: RASSCF average (pseudo-natural) orbitals                                      
 
      Total molecular charge    0.00
 
      ************************************************************************************************************************
      *                                                                                                                      *
      *                                            Wave function control section                                             *
      *                                                                                                                      *
      ************************************************************************************************************************
 
 
                                         RASSCF iterations: Energy and convergence statistics
                                         ----------------------------------------------------
 
      Iter CI   SX   CI       RASSCF       Energy    max ROT     max BLB   max BLB  Level Ln srch  Step   QN   Walltime
          iter iter root      energy       change     param      element    value   shift minimum  type update hh:mm:ss
 Nr of preliminary CI iterations:   1
 ###############################################################################
 ###############################################################################
 ###                                                                         ###
 ###                                                                         ###
 ###    WARNING: Problems in orbital optimization.                           ###
 ###                                                                         ###
 ###                                                                         ###
 ###############################################################################
 ###############################################################################
  Warning: In symmetry  1, orbital p=   7 has diagonal density matrix element D(p,p) close to zero. D(p,p)=  4.136493E-29
        1   1    4    1   -82.26617392    0.00E+00  -5.37E-03    6  10 1  3.95E-03*  0.50   0.00    SX    NO    0:00:00
 ###############################################################################
 ###############################################################################
 ###                                                                         ###
 ###                                                                         ###
 ###    WARNING: Problems in orbital optimization.                           ###
 ###                                                                         ###
 ###                                                                         ###
 ###############################################################################
 ###############################################################################
  Warning: In symmetry  1, orbital p=   7 has diagonal density matrix element D(p,p) close to zero. D(p,p)=  4.435045E-29
        2   1    4    1   -82.26623278   -5.89E-05* -2.81E-03    6  10 1  2.08E-03*  0.50   0.00    SX    NO    0:00:00
 ###############################################################################
 ###############################################################################
 ###                                                                         ###
 ###                                                                         ###
 ###    WARNING: Problems in orbital optimization.                           ###
 ###                                                                         ###
 ###                                                                         ###
 ###############################################################################
 ###############################################################################
  Warning: In symmetry  1, orbital p=   7 has diagonal density matrix element D(p,p) close to zero. D(p,p)=  4.665941E-29
        3   1    3    1   -82.26624861   -1.58E-05*  1.61E-03    6  10 1  1.19E-03*  0.50   0.00    SX    NO    0:00:00
 ###############################################################################
 ###############################################################################
 ###                                                                         ###
 ###                                                                         ###
 ###    WARNING: Problems in orbital optimization.                           ###
 ###                                                                         ###
 ###                                                                         ###
 ###############################################################################
 ###############################################################################
  Warning: In symmetry  1, orbital p=   7 has diagonal density matrix element D(p,p) close to zero. D(p,p)=  4.822824E-29
        4   1    4    1   -82.26625401   -5.40E-06*  9.81E-04    6  10 1  7.27E-04*  0.50   0.00    SX    NO    0:00:00
 ###############################################################################
 ###############################################################################
 ###                                                                         ###
 ###                                                                         ###
 ###    WARNING: Problems in orbital optimization.                           ###
 ###                                                                         ###
 ###                                                                         ###
 ###############################################################################
 ###############################################################################
  Warning: In symmetry  1, orbital p=   7 has diagonal density matrix element D(p,p) close to zero. D(p,p)=  4.924780E-29
        5   1    4    1   -82.26625613   -2.11E-06*  1.47E-03    6  10 1  4.65E-04*  0.50   2.50    LS   YES    0:00:00
 ###############################################################################
 ###############################################################################
 ###                                                                         ###
 ###                                                                         ###
 ###    WARNING: Problems in orbital optimization.                           ###
 ###                                                                         ###
 ###                                                                         ###
 ###############################################################################
 ###############################################################################
  Warning: In symmetry  1, orbital p=   7 has diagonal density matrix element D(p,p) close to zero. D(p,p)=  5.079293E-29
        6   1    4    1   -82.26625757   -1.45E-06*  3.56E-04    5   7 1  2.01E-04*  0.50   1.21    QN   YES    0:00:00
 ###############################################################################
 ###############################################################################
 ###                                                                         ###
 ###                                                                         ###
 ###    WARNING: Problems in orbital optimization.                           ###
 ###                                                                         ###
 ###                                                                         ###
 ###############################################################################
 ###############################################################################
  Warning: In symmetry  1, orbital p=   7 has diagonal density matrix element D(p,p) close to zero. D(p,p)=  5.116435E-29
        7   1    3    1   -82.26625775   -1.72E-07*  2.25E-04    3   6 1 -1.50E-04*  0.50   1.63    LS   YES    0:00:00
 ###############################################################################
 ###############################################################################
 ###                                                                         ###
 ###                                                                         ###
 ###    WARNING: Problems in orbital optimization.                           ###
 ###                                                                         ###
 ###                                                                         ###
 ###############################################################################
 ###############################################################################
  Warning: In symmetry  1, orbital p=   7 has diagonal density matrix element D(p,p) close to zero. D(p,p)=  5.140007E-29
        8   1    3    1   -82.26625778   -3.05E-08*  1.32E-04    3   6 1 -1.46E-04*  0.50   1.00    QN   YES    0:00:00
 ###############################################################################
 ###############################################################################
 ###                                                                         ###
 ###                                                                         ###
 ###    WARNING: Problems in orbital optimization.                           ###
 ###                                                                         ###
 ###                                                                         ###
 ###############################################################################
 ###############################################################################
  Warning: In symmetry  1, orbital p=   7 has diagonal density matrix element D(p,p) close to zero. D(p,p)=  5.126781E-29
        9   1    3    1   -82.26625782   -4.04E-08*  9.09E-05    3   6 1 -5.95E-05   0.50   1.66    QN   YES    0:00:00
 ###############################################################################
 ###############################################################################
 ###                                                                         ###
 ###                                                                         ###
 ###    WARNING: Problems in orbital optimization.                           ###
 ###                                                                         ###
 ###                                                                         ###
 ###############################################################################
 ###############################################################################
  Warning: In symmetry  1, orbital p=   7 has diagonal density matrix element D(p,p) close to zero. D(p,p)=  5.116876E-29
       10   1    3    1   -82.26625783   -8.28E-09   6.80E-06    3  10 1  8.07E-06   0.50   1.03    QN   YES    0:00:00
      Convergence after 10 iterations
       11   1    3    1   -82.26625783   -1.06E-10   6.80E-06    6  10 1  1.93E-06   0.50   1.03    QN   YES    0:00:00
 
      ************************************************************************************************************************
                                                      Wave function printout:
                       occupation of active orbitals, and spin coupling of open shells (u,d: Spin up or down)
      ************************************************************************************************************************
 
      Note: transformation to natural orbitals
      has been made, which may change the order of the CSFs.
 
      printout of CI-coefficients larger than  0.05 for root  1
      energy=     -82.266258
      conf/sym  11     Coeff  Weight
             1  u0   1.00000 1.00000
 
      Natural orbitals and occupation numbers for root  1
      sym 1:   1.000000   0.000000
 
      ************************************************************************************************************************
      *                                                                                                                      *
      *                                                    Final results                                                     *
      *                                                                                                                      *
      ************************************************************************************************************************
 
 
++    Wave function specifications:
      -----------------------------
 
      Number of closed shell electrons          10
      Number of electrons in active shells       1
      Max number of holes in RAS1 space          0
      Max nr of electrons in RAS3 space          0
      Number of inactive orbitals                5
      Number of active orbitals                  2
      Number of secondary orbitals               3
      Spin quantum number                      0.5
      State symmetry                             1
--
 
++    Orbital specifications:
      -----------------------
 
      Symmetry species                           1
                                                 a
      Frozen orbitals                            0
      Inactive orbitals                          5
      Active orbitals                            2
      RAS1 orbitals                              0
      RAS2 orbitals                              2
      RAS3 orbitals                              0
      Secondary orbitals                         3
      Deleted orbitals                           0
      Number of basis functions                 10
--
 
++    CI expansion specifications:
      ----------------------------
 
      Number of CSFs                             2
      Number of determinants                     2
      Number of root(s) required                 1
      CI root used                               1
      highest root included in the CI            1
      Root passed to geometry opt.               1
--
 
++    Final optimization conditions:
      ------------------------------
 
      Average CI energy                             -82.26625783
      RASSCF energy for state  1                    -82.26625783
      Super-CI energy                                -0.00000000
      RASSCF energy change                           -0.00000000
      Max change in MO coefficients               8.468E-06
      Max non-diagonal density matrix element     6.796E-06
      Maximum BLB matrix element                  1.935E-06
      (orbital pair   6,  10 in symmetry   1)
      Norm of electronic gradient            3.587E-06
--
 
 
      Final state energy(ies):
      ------------------------
 
::    RASSCF root number  1 Total energy:    -82.26625783
 
++    Molecular orbitals:
      -------------------
 
      Pseudonatural active orbitals and approximate occupation numbers
 
 
 
 
      Molecular orbitals for symmetry species 1: a  
 
 
      Orbital                 1         2         3         4         5         6         7         8         9        10
      Energy           -20.2510   -2.5348   -1.0008   -0.2933   -0.2933   -0.0382   -0.0000   -0.0085    0.0757    0.2033
      Occ. No.           2.0000    2.0000    2.0000    2.0000    2.0000    1.0000    0.0000    0.0000    0.0000    0.0000
 
     1 LI1    1s        -0.0001    0.9999   -0.0203   -0.0000    0.0000   -0.0452   -0.0000   -0.0062    0.0000   -0.0165
     2 LI1    2s        -0.0004    0.0124    0.0399   -0.0000    0.0000    0.1118   -0.0000    0.8349   -0.0000   -0.6262
     3 LI1    2px       -0.0000   -0.0000    0.0000    0.1863    0.0125   -0.0000    0.9857    0.0000   -0.1444   -0.0000
     4 LI1    2py       -0.0000   -0.0000    0.0000   -0.0125    0.1863    0.0000    0.1444    0.0000    0.9857   -0.0000
     5 LI1    2pz       -0.0005   -0.0020    0.0456   -0.0000    0.0000    0.0985   -0.0000   -0.5533   -0.0000   -0.9262
     6 O2     1s         1.0000   -0.0000   -0.0034    0.0000   -0.0000   -0.0067    0.0000    0.0013    0.0000    0.0513
     7 O2     2s         0.0009    0.0030    0.9703    0.0000   -0.0000   -0.1341    0.0000   -0.0127    0.0000    0.5313
     8 O2     2px        0.0000    0.0000   -0.0000    0.9503    0.0637    0.0000   -0.3432   -0.0000    0.0503   -0.0000
     9 O2     2py        0.0000   -0.0000   -0.0000   -0.0637    0.9503    0.0000   -0.0503   -0.0000   -0.3432    0.0000
    10 O2     2pz       -0.0003   -0.0004   -0.0554   -0.0000    0.0000   -0.9649   -0.0000    0.1060    0.0000   -0.3027
--
 
      Von Neumann Entropy (Root   1) =  0.50000
 

      Mulliken population analysis for root number:  1
      -----------------------------------------------
 
 
++    Molecular charges:
      ------------------
 
      Mulliken charges per centre and basis function type
      ---------------------------------------------------
 
                LI1     O2    
      1s       1.9999  2.0001
      2s       0.0473  1.9431
      2px      0.1278  1.8722
      2pz      0.0498  0.9600
      2py      0.1278  1.8722
      Total    2.3525  8.6475
 
      N-E      0.6475 -0.6475
 
      Total electronic charge=   11.000000
 
      Total            charge=   -0.000000
--
 
 

      Expectation values of various properties for root number:  1
      -----------------------------------------------------------
 
 
++    Molecular properties:
      ---------------------
 
      Charge (e):
                      =   -0.0000
      Dipole Moment (Debye):
      Origin of the operator (Ang)=    0.0000    0.0000    0.0000
                   X=  3.9284E-13               Y= -5.9944E-13               Z= -7.5149E+00           Total=  7.5149E+00
      Quadrupole Moment (Debye*Ang):
      Origin of the operator (Ang)=    0.0000    0.0000    1.4597
                  XX= -1.0082E+01              XY= -4.6524E-14              XZ=  6.2082E-14              YY= -1.0082E+01
                  YZ= -3.9628E-13              ZZ=  4.3814E-01
      In traceless form (Debye*Ang)
                  XX= -5.2601E+00              XY= -6.9785E-14              XZ=  9.3124E-14              YY= -5.2601E+00
                  YZ= -5.9442E-13              ZZ=  1.0520E+01
--
 

      Mulliken spin population analysis for root number:  1
      ---------------------------------------------------
 
 
++    Molecular charges:
      ------------------
 
      Mulliken spin population per centre and basis function type
      ---------------------------------------------------
 
                LI1     O2    
      1s       0.0001  0.0000
      2s       0.0240  0.0096
      2px      0.0000  0.0000
      2pz      0.0134  0.9528
      2py      0.0000  0.0000
      Total    0.0376  0.9624
 
      Total electronic spin=    1.000000
--
 
 

      LoProp population analysis for root number:  1
      -----------------------------------------------
 
 
++    LoProp analysis:
      ----------------
 
 
 
      Input file to MOLDEN was generated!
 
 
++    Static properties:
      ------------------
 
 
      LoProp Charges per center
 

                   LI1      O2    
      Nuclear      3.0000   8.0000
      Electronic  -2.2247  -8.7753
 
      Total        0.7753  -0.7753
--
 
 
      Natural Bond Order analysis for root number:  1
 
++    Natural Bond Order analysis
      ---------------------------
      Based on LoProp computed density
      -------------------------------------------------------------------------------------
      Atom A       Atom B       Bond Order
      -------------------------------------------------------------------------------------
      NBO located      0.999 non-bonded electrons on atom LI1       
      The remaining    4.682 electrons are to be considered as diffuse
--
 
--
 
 
      Input file to MOLDEN was generated!
 
 
      Input file to MOLDEN was generated!
 
      Average orbitals are written to the RASORB file
      Natural orbitals for root   1 are written to the RASORB.1 file
      Spin density orbitals for root   1 are written to the SPDORB.1 file
 
--- Stop Module: rasscf at Thu Apr 25 14:04:25 2024 /rc=_RC_ALL_IS_WELL_ ---
*** files: 2.10.LprOrb 2.10.rasscf.molden 2.10.rasscf.molden.1 2.10.LoProp.molden 2.10.RasOrb.1 2.10.RasOrb 2.10.rasscf.h5 2.10.SpdOrb.1 xmldump
    saved to directory /home/grierjones/DDCASPT2/delta_ML/LiO/2.10

*** symbolic link created: INPORB -> 2.10.RasOrb
--- Start Module: caspt2 at Thu Apr 25 14:04:25 2024 ---
 
()()()()()()()()()()()()()()()()()()()()()()()()()()()()()()()()()()()()()()()()()()()()()()()()()()

                                              &CASPT2

                                   only a single process is used
                       available to each process: 2.0 GB of memory, 1 thread?
                                            pid: 115348
()()()()()()()()()()()()()()()()()()()()()()()()()()()()()()()()()()()()()()()()()()()()()()()()()()
 
 ###############################################################################
 ###############################################################################
 ###                                                                         ###
 ###                                                                         ###
 ###    WARNING: User changed nr of frozen orbitals.                         ###
 ###                                                                         ###
 ###                                                                         ###
 ###############################################################################
 ###############################################################################
 
++    Wave function specifications:
      -----------------------------
 
      Number of closed shell electrons          10
      Number of electrons in active shells       1
      Max number of holes in RAS1 space          0
      Max number of electrons in RAS3 space      0
      Number of inactive orbitals                5
      Number of active orbitals                  2
      Number of secondary orbitals               3
      Spin quantum number                      0.5
      State symmetry                             1
      Number of CSFs                             2
      Number of CASSCF root(s) available         1
      CASPT2 state passed to geometry opt.       1
      A file JOBMIX will be created
      This is a CASSCF or RASSCF reference function
--
 
++    Orbital specifications:
      -----------------------
 
      Symmetry species                           1
                                                 a
      Frozen orbitals                            0
      Inactive orbitals                          5
      Active orbitals                            2
      Secondary orbitals                         3
      Deleted orbitals                           0
      Number of basis functions                 10
--
 
++    CASPT2 specifications:
      ----------------------
 
      Type of calculation                        SS-CASPT2
      Fock operator                              state-specific
      IPEA shift                                 0.25
      Real shift                                 0.00
      Imaginary shift                            0.00
      The input orbitals will be transformed to quasi-canonical
--
 
--------------------------------------------------------------------------------
 Estimated memory requirements:
  POLY3 :                   250056
  RHS:                      250476
  SIGMA :                   250480
  PRPCTL:                        0
 Available workspace:    230392719
 
++ CASPT2 computation for group   1
 
********************************************************************************
 Multi-State initialization phase begins for group   1
--------------------------------------------------------------------------------
********************************************************************************
 Compute H0 matrices for state    1
--------------------------------------------------------------------------------
--------------------------------------------------------------------------------
 H0 matrices have been computed.
 
********************************************************************************
  CASPT2 EQUATION SOLUTION
--------------------------------------------------------------------------------
 
  Total nr of CASPT2 parameters:
   Before reduction:         620
   After  reduction:         438
 
 Variance of |WF0>:       0.0267569846
 
 The contributions to the second order correlation energy in atomic units.
-----------------------------------------------------------------------------------------------------------------------------
  IT.      VJTU        VJTI        ATVX        AIVX        VJAI        BVAT        BJAT        BJAI        TOTAL       RNORM  
-----------------------------------------------------------------------------------------------------------------------------
   1    -0.000195   -0.003515    0.000000   -0.002670   -0.011245    0.000000   -0.003050   -0.006496   -0.027171    0.000431
   2    -0.000196   -0.003514    0.000000   -0.002687   -0.011245    0.000000   -0.003067   -0.006499   -0.027208    0.000017
-----------------------------------------------------------------------------------------------------------------------------
 
  FINAL CASPT2 RESULT:
 
      Reference energy:         -82.2662578253
      E2 (Non-variational):      -0.0272071015
      E2 (Variational):          -0.0272070641
      Total energy:             -82.2934648894
      Residual norm:              0.0000008207
      Reference weight:           0.96818
 
      Contributions to the CASPT2 correlation energy
      Active & Virtual Only:          0.0000000011
      One Inactive Excited:          -0.0059494047
      Two Inactive Excited:          -0.0212576979
 
 
++ Denominators, etc.
--------------------------------------------------------------------------------------------------------------
 Report on small energy denominators, large coefficients, and large energy contributions.
CASE  SYMM ACTIVE-MIX  NON-ACTIVE INDICES          DENOMINATOR     RHS VALUE       COEFFICIENT     CONTRIBUTION
VJTIP    1  Mu1.0001  In1.004 In1.004               0.73800046      0.04692834     -0.06358851     -0.00298410
ATVX     1  Mu1.0001  Se1.008                       0.21717099      0.00000122      0.00027053      0.00000000
AIVX     1  Mu1.0002  In1.004 Se1.008               0.48200455      0.01322013     -0.02828319     -0.00037391
AIVX     1  Mu1.0002  In1.004 Se1.010               0.69377218     -0.02837466      0.04244743     -0.00120443
AIVX     1  Mu1.0003  In1.004 Se1.010               0.86043884     -0.02192948      0.02534087     -0.00055571
VJAIP    1  Mu1.0001  Se1.010 In1.004 In1.003       1.57312013     -0.03881220      0.02506240     -0.00097273
VJAIP    1  Mu1.0001  Se1.009 In1.005 In1.004       0.73800046      0.04114571     -0.05575297     -0.00229400
VJAIM    1  Mu1.0001  Se1.010 In1.004 In1.003       1.57312013      0.03995328     -0.02590923     -0.00103516
VJAIM    1  Mu1.0001  Se1.009 In1.005 In1.004       0.73800046      0.06514199     -0.08826824     -0.00574997
BJATP    1  Mu1.0001  In1.005 Se1.010 Se1.009       0.73543884     -0.02192948      0.02967082     -0.00065067
BJATM    1  Mu1.0001  In1.005 Se1.009 Se1.008       0.52367122     -0.01322013      0.02601761     -0.00034396
BJATM    1  Mu1.0001  In1.005 Se1.010 Se1.009       0.73543884     -0.02837466      0.04002188     -0.00113561
BJAIP    1  Se1.009 In1.003 Se1.010 In1.005         1.57312013     -0.03881220      0.02509911     -0.00097415
BJAIP    1  Se1.009 In1.005 Se1.009 In1.005         0.73800046      0.04692834     -0.06358851     -0.00298410
BJAIM    1  Se1.009 In1.003 Se1.009 In1.005         1.57312013      0.03995328     -0.02588869     -0.00103434
--
 
   (Skipping property calculation,
    use PROP keyword to activate)
--
 
  Total CASPT2 energies:
::    CASPT2 Root  1     Total energy:    -82.29346489
 
  A NEW JOBIPH FILE NAMED 'JOBMIX' IS PREPARED.
********************************************************************************
--- Stop Module: caspt2 at Thu Apr 25 14:04:25 2024 /rc=_RC_ALL_IS_WELL_ ---
*** files: xmldump
    saved to directory /home/grierjones/DDCASPT2/delta_ML/LiO/2.10

.##################.
.# Happy landing! #.
.##################.

    Timing: Wall=2.99 User=2.16 System=0.35
************************************
*** WorkDir at /tmp/2.10 removed ***
************************************
