[Molden Format]
[N_Atoms]
                     2
[Atoms] (AU)
C1          1      6           0.00000000      0.00000000      0.00000000
F2          2      9           0.00000000      0.00000000      1.88972612
[Charge] (Mulliken)
  0.292327283533999     
 -0.292327283534021     
[GTO] (AU)
   1
   s  14
  5.055750100E+04  1.128874000E-04
  7.524785600E+03  5.295373000E-04
  1.694327600E+03  2.450038300E-03
  4.728227900E+02  1.005398470E-02
  1.517107500E+02  3.545398060E-02
  5.391874600E+01  1.044071086E-01
  2.065931100E+01  2.412894918E-01
  8.383976000E+00  3.834225483E-01
  3.577015000E+00  3.078514393E-01
  1.547118000E+00  6.872442990E-02
  6.130130000E-01  2.224445000E-04
  2.460680000E-01  1.976748900E-03
  9.908700000E-02  2.057859400E-03
  3.468000000E-02  4.182020000E-04
   s  14
  5.055750100E+04 -2.507420000E-05
  7.524785600E+03 -1.175945000E-04
  1.694327600E+03 -5.456275000E-04
  4.728227900E+02 -2.245077100E-03
  1.517107500E+02 -8.043471800E-03
  5.391874600E+01 -2.442588710E-02
  2.065931100E+01 -6.136791180E-02
  8.383976000E+00 -1.177767835E-01
  3.577015000E+00 -1.550487783E-01
  1.547118000E+00 -1.933316860E-02
  6.130130000E-01  3.996930678E-01
  2.460680000E-01  5.589420949E-01
  9.908700000E-02  1.711195023E-01
  3.468000000E-02  7.456244600E-03
   p   9
  8.333315500E+01  1.344656000E-03
  1.955761100E+01  1.023555500E-02
  6.080365000E+00  4.520067100E-02
  2.179317000E+00  1.410756198E-01
  8.651500000E-01  3.047388085E-01
  3.619440000E-01  3.995281011E-01
  1.547400000E-01  2.719163432E-01
  6.542900000E-02  5.857669330E-02
  2.290000000E-02 -1.263813000E-04
 
   2
   s  14
  1.031094600E+05  1.713099991E-04
  1.528100700E+04  7.123999962E-04
  3.441539200E+03  2.990479984E-03
  9.670948300E+02  1.164036994E-02
  3.140353400E+02  3.968642979E-02
  1.134423000E+02  1.128546094E-01
  4.464472700E+01  2.473650687E-01
  1.894287400E+01  3.672702681E-01
  8.532743000E+00  2.896286985E-01
  3.919401000E+00  7.786681959E-02
  1.568157000E+00  4.562139976E-03
  6.232900000E-01  2.468879987E-03
  2.408610000E-01  1.106309994E-03
  8.430100000E-02  1.739699991E-04
   s  14
  1.031094600E+05 -4.044999995E-05
  1.528100700E+04 -1.682299998E-04
  3.441539200E+03 -7.084299991E-04
  9.670948300E+02 -2.767999996E-03
  3.140353400E+02 -9.611379987E-03
  1.134423000E+02 -2.833957996E-02
  4.464472700E+01 -6.839343991E-02
  1.894287400E+01 -1.237379298E-01
  8.532743000E+00 -1.512859698E-01
  3.919401000E+00 -9.099909988E-03
  1.568157000E+00  3.716257695E-01
  6.232900000E-01  5.500214393E-01
  2.408610000E-01  2.092318697E-01
  8.430100000E-02  8.074639989E-03
   p   9
  2.453302900E+02  1.024860004E-03
  5.691900500E+01  8.344290032E-03
  1.760456800E+01  4.078927016E-02
  6.274995000E+00  1.351370605E-01
  2.447030000E+00  2.798830811E-01
  9.950600000E-01  3.597966414E-01
  4.039730000E-01  3.055347412E-01
  1.548100000E-01  1.354703905E-01
  5.418400000E-02  2.804449011E-02
 
[MO]
Sym=     1a  
Ene=   -26.5690
Spin= Alpha
Occup=    1.00000
   1        -0.00049135
   2        -0.00177395
   3         0.00000000
   4         0.00000000
   5        -0.00104544
   6         1.00019492
   7        -0.00109029
   8         0.00000000
   9         0.00000000
  10        -0.00245815
Sym=     1a  
Ene=   -26.5580
Spin= Beta
Occup=    1.00000
   1        -0.00042512
   2        -0.00149743
   3         0.00000000
   4         0.00000000
   5        -0.00083571
   6         1.00015867
   7        -0.00165498
   8         0.00000000
   9         0.00000000
  10        -0.00237629
Sym=     2a  
Ene=   -11.4670
Spin= Alpha
Occup=    1.00000
   1         0.99985176
   2         0.00002685
   3         0.00000000
   4        -0.00000000
   5         0.00562897
   6        -0.00119544
   7        -0.00173088
   8        -0.00000000
   9         0.00000000
  10        -0.00199919
Sym=     2a  
Ene=   -11.4410
Spin= Beta
Occup=    1.00000
   1         0.99971636
   2        -0.00295352
   3        -0.00000000
   4        -0.00000000
   5         0.00504550
   6        -0.00099050
   7        -0.00043103
   8        -0.00000000
   9         0.00000000
  10        -0.00238381
Sym=     3a  
Ene=    -2.0255
Spin= Alpha
Occup=    1.00000
   1        -0.09061685
   2         0.09101531
   3        -0.00000000
   4         0.00000000
   5         0.13600609
   6        -0.01596224
   7         0.82924086
   8        -0.00000000
   9         0.00000000
  10        -0.27507780
Sym=     3a  
Ene=    -1.9995
Spin= Beta
Occup=    1.00000
   1        -0.09103663
   2         0.07744260
   3        -0.00000000
   4         0.00000000
   5         0.13912666
   6        -0.01521801
   7         0.83305863
   8        -0.00000000
   9         0.00000000
  10        -0.28169695
Sym=     4a  
Ene=    -1.0532
Spin= Alpha
Occup=    1.00000
   1         0.06941104
   2        -0.23276037
   3        -0.00000000
   4         0.00000000
   5        -0.14365005
   6         0.02881315
   7         0.51612085
   8        -0.00000000
   9         0.00000000
  10         0.81725707
Sym=     4a  
Ene=    -1.0240
Spin= Beta
Occup=    1.00000
   1         0.07481949
   2        -0.15324848
   3        -0.00000000
   4        -0.00000000
   5        -0.15342999
   6         0.02542200
   7         0.48774806
   8        -0.00000000
   9        -0.00000000
  10         0.85154578
Sym=     5a  
Ene=    -0.9925
Spin= Alpha
Occup=    1.00000
   1        -0.00000000
   2         0.00000000
   3        -0.16313801
   4         0.17211444
   5         0.00000000
   6        -0.00000000
   7        -0.00000000
   8        -0.61257666
   9         0.64628278
  10        -0.00000000
Sym=     5a  
Ene=    -0.9161
Spin= Beta
Occup=    1.00000
   1        -0.00000000
   2        -0.00000000
   3         0.15623381
   4         0.14808562
   5        -0.00000000
   6         0.00000000
   7         0.00000000
   8         0.65516094
   9         0.62099179
  10         0.00000000
Sym=     6a  
Ene=    -0.9223
Spin= Alpha
Occup=    1.00000
   1        -0.00000000
   2        -0.00000000
   3         0.16638326
   4         0.15770574
   5        -0.00000000
   6         0.00000000
   7         0.00000000
   8         0.64952430
   9         0.61564912
  10         0.00000000
Sym=     6a  
Ene=    -0.8921
Spin= Beta
Occup=    1.00000
   1         0.00000000
   2         0.00000000
   3        -0.13623019
   4         0.14372606
   5         0.00000000
   6        -0.00000000
   7        -0.00000000
   8        -0.62740422
   9         0.66192620
  10        -0.00000000
Sym=     7a  
Ene=    -0.5965
Spin= Alpha
Occup=    1.00000
   1         0.05594861
   2         0.93350282
   3        -0.00000000
   4         0.00000000
   5        -0.47515107
   6        -0.00847652
   7        -0.13108271
   8        -0.00000000
   9        -0.00000000
  10         0.35506992
Sym=     7a  
Ene=    -0.5162
Spin= Beta
Occup=    1.00000
   1         0.04684116
   2         0.91667063
   3        -0.00000000
   4         0.00000000
   5        -0.50085882
   6        -0.00531705
   7        -0.11898673
   8        -0.00000000
   9        -0.00000000
  10         0.27347649
Sym=     8a  
Ene=    -0.3538
Spin= Alpha
Occup=    1.00000
   1        -0.00000000
   2        -0.00000000
   3        -0.71820155
   4         0.75771952
   5         0.00000000
   6         0.00000000
   7        -0.00000000
   8         0.40887323
   9        -0.43137086
  10        -0.00000000
Sym=     8a  
Ene=     0.1956
Spin= Beta
Occup=    0.00000
   1         0.00000000
   2         0.00000000
   3        -0.76115258
   4        -0.72145557
   5         0.00000000
   6        -0.00000000
   7        -0.00000000
   8         0.41776357
   9         0.39597560
  10         0.00000000
Sym=     9a  
Ene=     0.1655
Spin= Alpha
Occup=    0.00000
   1         0.00000000
   2         0.00000000
   3        -0.75899859
   4        -0.71941392
   5         0.00000000
   6        -0.00000000
   7        -0.00000000
   8         0.42647443
   9         0.40423216
  10         0.00000000
Sym=     9a  
Ene=     0.2499
Spin= Beta
Occup=    0.00000
   1        -0.00000000
   2        -0.00000000
   3        -0.72378783
   4         0.76361317
   5         0.00000000
   6         0.00000000
   7        -0.00000000
   8         0.38573493
   9        -0.40695942
  10        -0.00000000
Sym=    10a  
Ene=     0.8708
Spin= Alpha
Occup=    0.00000
   1         0.17174741
   2         1.02102153
   3         0.00000000
   4         0.00000000
   5         1.26588768
   6        -0.17581515
   7        -1.18286038
   8         0.00000000
   9        -0.00000000
  10         0.78527438
Sym=    10a  
Ene=     0.9137
Spin= Beta
Occup=    0.00000
   1         0.17276514
   2         1.05194979
   3         0.00000000
   4         0.00000000
   5         1.25444140
   6        -0.17673322
   7        -1.19344922
   8         0.00000000
   9        -0.00000000
  10         0.77912345
