[Molden Format]
[N_Atoms]
                     2
[Atoms] (AU)
O1          1      8           0.00000000      0.00000000      0.00000000
O2          2      8           0.00000000      0.00000000      3.77945225
[Charge] (Mulliken)
  4.426947697311334E-011
 -4.428102329256944E-011
[GTO] (AU)
   1
   s  14
  1.053749500E+05  1.238600013E-04
  1.567924000E+04  5.120100053E-04
  3.534544700E+03  2.152910022E-03
  9.873651600E+02  8.528440089E-03
  3.159787500E+02  3.018049031E-02
  1.116542800E+02  9.099702095E-02
  4.269945100E+01  2.177936423E-01
  1.739559600E+01  3.686245738E-01
  7.438309000E+00  3.366707335E-01
  3.222862000E+00  9.657630101E-02
  1.253877000E+00  2.144520022E-03
  4.951550000E-01  1.194350012E-03
  1.916650000E-01  5.390200056E-04
  6.708300000E-02  2.103400022E-04
   s  14
  1.053749500E+05 -2.815000008E-05
  1.567924000E+04 -1.163000003E-04
  3.534544700E+03 -4.909200013E-04
  9.873651600E+02 -1.946160005E-03
  3.159787500E+02 -7.005300019E-03
  1.116542800E+02 -2.167814006E-02
  4.269945100E+01 -5.641213015E-02
  1.739559600E+01 -1.127053003E-01
  7.438309000E+00 -1.589119704E-01
  3.222862000E+00 -3.355083009E-02
  1.253877000E+00  3.531902810E-01
  4.951550000E-01  5.534199315E-01
  1.916650000E-01  2.301839106E-01
  6.708300000E-02  1.127267003E-02
   p   9
  2.000000000E+02  9.173000030E-04
  4.653336700E+01  7.377140024E-03
  1.462180900E+01  3.483515011E-02
  5.313064000E+00  1.144397004E-01
  2.102525000E+00  2.554966408E-01
  8.502230000E-01  3.722557412E-01
  3.375970000E-01  3.323314911E-01
  1.288920000E-01  1.400847905E-01
  4.511200000E-02  2.395784008E-02
 
   2
   s  14
  1.053749500E+05  1.238600013E-04
  1.567924000E+04  5.120100053E-04
  3.534544700E+03  2.152910022E-03
  9.873651600E+02  8.528440089E-03
  3.159787500E+02  3.018049031E-02
  1.116542800E+02  9.099702095E-02
  4.269945100E+01  2.177936423E-01
  1.739559600E+01  3.686245738E-01
  7.438309000E+00  3.366707335E-01
  3.222862000E+00  9.657630101E-02
  1.253877000E+00  2.144520022E-03
  4.951550000E-01  1.194350012E-03
  1.916650000E-01  5.390200056E-04
  6.708300000E-02  2.103400022E-04
   s  14
  1.053749500E+05 -2.815000008E-05
  1.567924000E+04 -1.163000003E-04
  3.534544700E+03 -4.909200013E-04
  9.873651600E+02 -1.946160005E-03
  3.159787500E+02 -7.005300019E-03
  1.116542800E+02 -2.167814006E-02
  4.269945100E+01 -5.641213015E-02
  1.739559600E+01 -1.127053003E-01
  7.438309000E+00 -1.589119704E-01
  3.222862000E+00 -3.355083009E-02
  1.253877000E+00  3.531902810E-01
  4.951550000E-01  5.534199315E-01
  1.916650000E-01  2.301839106E-01
  6.708300000E-02  1.127267003E-02
   p   9
  2.000000000E+02  9.173000030E-04
  4.653336700E+01  7.377140024E-03
  1.462180900E+01  3.483515011E-02
  5.313064000E+00  1.144397004E-01
  2.102525000E+00  2.554966408E-01
  8.502230000E-01  3.722557412E-01
  3.375970000E-01  3.323314911E-01
  1.288920000E-01  1.400847905E-01
  4.511200000E-02  2.395784008E-02
 
[MO]
Sym=     1a  
Ene=   -20.8020
Spin= Alpha
Occup=    1.00000
   1         0.70709730
   2        -0.00041420
   3        -0.00000000
   4        -0.00000000
   5         0.00024482
   6         0.70709738
   7        -0.00041420
   8         0.00000000
   9        -0.00000000
  10        -0.00024482
Sym=     1a  
Ene=   -20.8020
Spin= Beta
Occup=    1.00000
   1         0.70709730
   2        -0.00041420
   3        -0.00000000
   4        -0.00000000
   5         0.00024482
   6         0.70709738
   7        -0.00041420
   8         0.00000000
   9        -0.00000000
  10        -0.00024482
Sym=     2a  
Ene=   -20.8020
Spin= Alpha
Occup=    1.00000
   1        -0.70711708
   2         0.00026244
   3        -0.00000000
   4        -0.00000000
   5        -0.00030681
   6         0.70711700
   7        -0.00026244
   8         0.00000000
   9         0.00000000
  10        -0.00030681
Sym=     2a  
Ene=   -20.8020
Spin= Beta
Occup=    1.00000
   1        -0.70711708
   2         0.00026244
   3        -0.00000000
   4        -0.00000000
   5        -0.00030681
   6         0.70711700
   7        -0.00026244
   8         0.00000000
   9         0.00000000
  10        -0.00030681
Sym=     3a  
Ene=    -1.3510
Spin= Alpha
Occup=    1.00000
   1        -0.00198052
   2         0.67889136
   3         0.00000000
   4        -0.00000000
   5         0.03715874
   6        -0.00198052
   7         0.67889136
   8         0.00000000
   9        -0.00000000
  10        -0.03715874
Sym=     3a  
Ene=    -1.3510
Spin= Beta
Occup=    1.00000
   1        -0.00198052
   2         0.67889136
   3         0.00000000
   4        -0.00000000
   5         0.03715874
   6        -0.00198052
   7         0.67889136
   8         0.00000000
   9        -0.00000000
  10        -0.03715874
Sym=     4a  
Ene=    -1.2633
Spin= Alpha
Occup=    1.00000
   1        -0.00199602
   2        -0.72542776
   3         0.00000000
   4        -0.00000000
   5         0.03959070
   6         0.00199602
   7         0.72542776
   8         0.00000000
   9        -0.00000000
  10         0.03959070
Sym=     4a  
Ene=    -1.2633
Spin= Beta
Occup=    1.00000
   1        -0.00199602
   2        -0.72542776
   3         0.00000000
   4        -0.00000000
   5         0.03959070
   6         0.00199602
   7         0.72542776
   8         0.00000000
   9        -0.00000000
  10         0.03959070
Sym=     5a  
Ene=    -0.6460
Spin= Alpha
Occup=    1.00000
   1        -0.00000000
   2        -0.00000000
   3        -0.29446199
   4         0.61976469
   5         0.00000000
   6        -0.00000000
   7        -0.00000000
   8        -0.29446199
   9         0.61976469
  10        -0.00000000
Sym=     5a  
Ene=    -0.6460
Spin= Beta
Occup=    1.00000
   1        -0.00000000
   2        -0.00000000
   3        -0.29446199
   4         0.61976469
   5         0.00000000
   6        -0.00000000
   7        -0.00000000
   8        -0.29446199
   9         0.61976469
  10        -0.00000000
Sym=     6a  
Ene=    -0.6026
Spin= Alpha
Occup=    1.00000
   1         0.00000000
   2         0.00000000
   3         0.31331691
   4        -0.65944933
   5        -0.00000000
   6         0.00000000
   7         0.00000000
   8        -0.31331691
   9         0.65944933
  10         0.00000000
Sym=     6a  
Ene=    -0.6026
Spin= Beta
Occup=    1.00000
   1         0.00000000
   2         0.00000000
   3         0.31331691
   4        -0.65944933
   5        -0.00000000
   6         0.00000000
   7         0.00000000
   8        -0.31331691
   9         0.65944933
  10         0.00000000
Sym=     7a  
Ene=    -0.5368
Spin= Alpha
Occup=    1.00000
   1         0.00694205
   2         0.12083267
   3        -0.00000000
   4         0.00000000
   5        -0.66394865
   6         0.00694205
   7         0.12083267
   8         0.00000000
   9        -0.00000000
  10         0.66394865
Sym=     7a  
Ene=    -0.5368
Spin= Beta
Occup=    1.00000
   1         0.00694205
   2         0.12083267
   3        -0.00000000
   4         0.00000000
   5        -0.66394865
   6         0.00694205
   7         0.12083267
   8         0.00000000
   9        -0.00000000
  10         0.66394865
Sym=     8a  
Ene=    -0.4714
Spin= Alpha
Occup=    1.00000
   1         0.00000000
   2         0.00000000
   3         0.61976469
   4         0.29446199
   5        -0.00000000
   6         0.00000000
   7         0.00000000
   8         0.61976469
   9         0.29446199
  10         0.00000000
Sym=     8a  
Ene=    -0.4714
Spin= Beta
Occup=    1.00000
   1         0.00000000
   2         0.00000000
   3         0.61976469
   4         0.29446199
   5        -0.00000000
   6         0.00000000
   7         0.00000000
   8         0.61976469
   9         0.29446199
  10         0.00000000
Sym=     9a  
Ene=    -0.1686
Spin= Alpha
Occup=    0.00000
   1        -0.00000000
   2        -0.00000000
   3        -0.65944933
   4        -0.31331691
   5         0.00000000
   6        -0.00000000
   7        -0.00000000
   8         0.65944933
   9         0.31331691
  10        -0.00000000
Sym=     9a  
Ene=    -0.1686
Spin= Beta
Occup=    0.00000
   1        -0.00000000
   2        -0.00000000
   3        -0.65944933
   4        -0.31331691
   5         0.00000000
   6        -0.00000000
   7        -0.00000000
   8         0.65944933
   9         0.31331691
  10        -0.00000000
Sym=    10a  
Ene=    -0.0752
Spin= Alpha
Occup=    0.00000
   1         0.00832982
   2         0.14746007
   3         0.00000000
   4        -0.00000000
   5         0.77341491
   6        -0.00832982
   7        -0.14746007
   8         0.00000000
   9        -0.00000000
  10         0.77341491
Sym=    10a  
Ene=    -0.0752
Spin= Beta
Occup=    0.00000
   1         0.00832982
   2         0.14746007
   3         0.00000000
   4        -0.00000000
   5         0.77341491
   6        -0.00832982
   7        -0.14746007
   8         0.00000000
   9        -0.00000000
  10         0.77341491
