[Molden Format]
[N_Atoms]
                     2
[Atoms] (AU)
O1          1      8           0.00000000      0.00000000      0.00000000
O2          2      8           0.00000000      0.00000000      3.77945225
[Charge] (Mulliken)
   1.00060238976493     
  0.999397610235032     
[GTO] (AU)
   1
   s  14
  1.053749500E+05  1.238600013E-04
  1.567924000E+04  5.120100053E-04
  3.534544700E+03  2.152910022E-03
  9.873651600E+02  8.528440089E-03
  3.159787500E+02  3.018049031E-02
  1.116542800E+02  9.099702095E-02
  4.269945100E+01  2.177936423E-01
  1.739559600E+01  3.686245738E-01
  7.438309000E+00  3.366707335E-01
  3.222862000E+00  9.657630101E-02
  1.253877000E+00  2.144520022E-03
  4.951550000E-01  1.194350012E-03
  1.916650000E-01  5.390200056E-04
  6.708300000E-02  2.103400022E-04
   s  14
  1.053749500E+05 -2.815000008E-05
  1.567924000E+04 -1.163000003E-04
  3.534544700E+03 -4.909200013E-04
  9.873651600E+02 -1.946160005E-03
  3.159787500E+02 -7.005300019E-03
  1.116542800E+02 -2.167814006E-02
  4.269945100E+01 -5.641213015E-02
  1.739559600E+01 -1.127053003E-01
  7.438309000E+00 -1.589119704E-01
  3.222862000E+00 -3.355083009E-02
  1.253877000E+00  3.531902810E-01
  4.951550000E-01  5.534199315E-01
  1.916650000E-01  2.301839106E-01
  6.708300000E-02  1.127267003E-02
   p   9
  2.000000000E+02  9.173000030E-04
  4.653336700E+01  7.377140024E-03
  1.462180900E+01  3.483515011E-02
  5.313064000E+00  1.144397004E-01
  2.102525000E+00  2.554966408E-01
  8.502230000E-01  3.722557412E-01
  3.375970000E-01  3.323314911E-01
  1.288920000E-01  1.400847905E-01
  4.511200000E-02  2.395784008E-02
 
   2
   s  14
  1.053749500E+05  1.238600013E-04
  1.567924000E+04  5.120100053E-04
  3.534544700E+03  2.152910022E-03
  9.873651600E+02  8.528440089E-03
  3.159787500E+02  3.018049031E-02
  1.116542800E+02  9.099702095E-02
  4.269945100E+01  2.177936423E-01
  1.739559600E+01  3.686245738E-01
  7.438309000E+00  3.366707335E-01
  3.222862000E+00  9.657630101E-02
  1.253877000E+00  2.144520022E-03
  4.951550000E-01  1.194350012E-03
  1.916650000E-01  5.390200056E-04
  6.708300000E-02  2.103400022E-04
   s  14
  1.053749500E+05 -2.815000008E-05
  1.567924000E+04 -1.163000003E-04
  3.534544700E+03 -4.909200013E-04
  9.873651600E+02 -1.946160005E-03
  3.159787500E+02 -7.005300019E-03
  1.116542800E+02 -2.167814006E-02
  4.269945100E+01 -5.641213015E-02
  1.739559600E+01 -1.127053003E-01
  7.438309000E+00 -1.589119704E-01
  3.222862000E+00 -3.355083009E-02
  1.253877000E+00  3.531902810E-01
  4.951550000E-01  5.534199315E-01
  1.916650000E-01  2.301839106E-01
  6.708300000E-02  1.127267003E-02
   p   9
  2.000000000E+02  9.173000030E-04
  4.653336700E+01  7.377140024E-03
  1.462180900E+01  3.483515011E-02
  5.313064000E+00  1.144397004E-01
  2.102525000E+00  2.554966408E-01
  8.502230000E-01  3.722557412E-01
  3.375970000E-01  3.323314911E-01
  1.288920000E-01  1.400847905E-01
  4.511200000E-02  2.395784008E-02
 
[MO]
Sym=     1a  
Ene=   -22.0950
Spin= Alpha
Occup=    2.00000
   1         0.03278044
   2        -0.00050875
   3         0.00000000
   4         0.00000000
   5         0.00011988
   6         0.99945983
   7        -0.00203015
   8         0.00000000
   9         0.00000000
  10        -0.00037549
Sym=     2a  
Ene=   -22.0930
Spin= Alpha
Occup=    2.00000
   1        -0.99933061
   2         0.01520441
   3        -0.00000000
   4        -0.00000000
   5        -0.00142971
   6         0.03277614
   7        -0.00067735
   8        -0.00000000
   9        -0.00000000
  10         0.00143389
Sym=     3a  
Ene=    -2.2418
Spin= Alpha
Occup=    2.00000
   1         0.00337914
   2         0.00049538
   3        -0.00000003
   4        -0.00000005
   5        -0.04419428
   6        -0.00154399
   7        -0.99085840
   8         0.00000002
   9         0.00000004
  10         0.06238830
Sym=     4a  
Ene=    -1.5578
Spin= Alpha
Occup=    2.00000
   1         0.00000000
   2        -0.00000000
   3         0.84518467
   4        -0.53331734
   5        -0.00000000
   6         0.00000000
   7         0.00000000
   8         0.00784668
   9        -0.00494970
  10         0.00000000
Sym=     5a  
Ene=    -1.5576
Spin= Alpha
Occup=    2.00000
   1         0.00000003
   2        -0.00000008
   3         0.00440003
   4         0.00697558
   5        -0.00000137
   6         0.00000002
   7         0.00000053
   8         0.53335623
   9         0.84524626
  10         0.00000336
Sym=     6a  
Ene=    -1.4989
Spin= Alpha
Occup=    2.00000
   1         0.00630022
   2        -0.06897971
   3        -0.00000051
   4        -0.00000081
   5        -0.65738401
   6         0.00760712
   7         0.17216300
   8        -0.00000189
   9        -0.00000299
  10         0.65322339
Sym=     7a  
Ene=    -2.1968
Spin= Alpha
Occup=    1.97404
   1        -0.01645824
   2        -1.00452254
   3         0.00000009
   4         0.00000015
   5         0.08976983
   6         0.00194187
   7         0.05042955
   8         0.00000002
   9         0.00000003
  10        -0.10966550
Sym=     8a  
Ene=    -0.0000
Spin= Alpha
Occup=    0.02596
   1         0.00000001
   2         0.00000006
   3        -0.53465715
   4        -0.84730795
   5         0.00000198
   6        -0.00000002
   7        -0.00000026
   8         0.03753381
   9         0.05948241
  10         0.00000072
Sym=     9a  
Ene=    -1.0531
Spin= Alpha
Occup=    0.00000
   1         0.00827223
   2         0.09710176
   3         0.00000093
   4         0.00000147
   5         0.77445415
   6        -0.00826993
   7        -0.09744725
   8        -0.00000076
   9        -0.00000120
  10         0.77416082
Sym=    10a  
Ene=    -0.9545
Spin= Alpha
Occup=    0.00000
   1         0.00000000
   2         0.00000000
   3        -0.06035137
   4         0.03808213
   5         0.00000000
   6        -0.00000000
   7        -0.00000000
   8         0.84730031
   9        -0.53465237
  10         0.00000000
