[Molden Format]
[N_Atoms]
                     2
[Atoms] (AU)
B1          1      5           0.00000000      0.00000000      0.00000000
O2          2      8           0.00000000      0.00000000      4.15739747
[Charge] (Mulliken)
  0.407017265774911     
 -0.407017265774975     
[GTO] (AU)
   1
   s  14
  3.336021700E+04  1.039699991E-04
  4.972095200E+03  5.254399956E-04
  1.125641700E+03  2.509059979E-03
  3.164913600E+02  1.031887991E-02
  1.020072600E+02  3.636632969E-02
  3.629587300E+01  1.064607991E-01
  1.397141000E+01  2.403999880E-01
  5.741156000E+00  3.748581168E-01
  2.494268000E+00  3.100066974E-01
  1.114202000E+00  7.922455933E-02
  4.215490000E-01 -4.947589958E-03
  1.696330000E-01 -7.737119935E-03
  6.853500000E-02 -1.501079987E-03
  2.398700000E-02 -1.333299989E-04
   s  14
  3.336021700E+04 -2.030000008E-05
  4.972095200E+03 -1.025700004E-04
  1.125641700E+03 -4.911300020E-04
  3.164913600E+02 -2.026570008E-03
  1.020072600E+02 -7.261010030E-03
  3.629587300E+01 -2.197722009E-02
  1.397141000E+01 -5.408428022E-02
  5.741156000E+00 -1.022402604E-01
  2.494268000E+00 -1.423595206E-01
  1.114202000E+00 -4.658690019E-02
  4.215490000E-01  3.799402916E-01
  1.696330000E-01  5.890463624E-01
  6.853500000E-02  1.749075107E-01
  2.398700000E-02 -1.142030005E-03
   p   9
  5.500000000E+01  1.229800005E-03
  1.336610100E+01  8.827380035E-03
  4.135394000E+00  3.843340015E-02
  1.481256000E+00  1.150031805E-01
  6.021360000E-01  2.733674011E-01
  2.556360000E-01  4.061972116E-01
  1.111510000E-01  3.014967912E-01
  4.764800000E-02  7.684809030E-02
  1.667700000E-02 -8.170000032E-06
 
   2
   s  14
  1.053749500E+05  1.238600013E-04
  1.567924000E+04  5.120100053E-04
  3.534544700E+03  2.152910022E-03
  9.873651600E+02  8.528440089E-03
  3.159787500E+02  3.018049031E-02
  1.116542800E+02  9.099702095E-02
  4.269945100E+01  2.177936423E-01
  1.739559600E+01  3.686245738E-01
  7.438309000E+00  3.366707335E-01
  3.222862000E+00  9.657630101E-02
  1.253877000E+00  2.144520022E-03
  4.951550000E-01  1.194350012E-03
  1.916650000E-01  5.390200056E-04
  6.708300000E-02  2.103400022E-04
   s  14
  1.053749500E+05 -2.815000008E-05
  1.567924000E+04 -1.163000003E-04
  3.534544700E+03 -4.909200013E-04
  9.873651600E+02 -1.946160005E-03
  3.159787500E+02 -7.005300019E-03
  1.116542800E+02 -2.167814006E-02
  4.269945100E+01 -5.641213015E-02
  1.739559600E+01 -1.127053003E-01
  7.438309000E+00 -1.589119704E-01
  3.222862000E+00 -3.355083009E-02
  1.253877000E+00  3.531902810E-01
  4.951550000E-01  5.534199315E-01
  1.916650000E-01  2.301839106E-01
  6.708300000E-02  1.127267003E-02
   p   9
  2.000000000E+02  9.173000030E-04
  4.653336700E+01  7.377140024E-03
  1.462180900E+01  3.483515011E-02
  5.313064000E+00  1.144397004E-01
  2.102525000E+00  2.554966408E-01
  8.502230000E-01  3.722557412E-01
  3.375970000E-01  3.323314911E-01
  1.288920000E-01  1.400847905E-01
  4.511200000E-02  2.395784008E-02
 
[MO]
Sym=     1a  
Ene=   -20.4470
Spin= Alpha
Occup=    1.00000
   1        -0.00001386
   2        -0.00021330
   3         0.00000000
   4         0.00000000
   5        -0.00024236
   6         1.00000612
   7         0.00071689
   8        -0.00000000
   9        -0.00000000
  10        -0.00026689
Sym=     1a  
Ene=   -20.4340
Spin= Beta
Occup=    1.00000
   1        -0.00001800
   2        -0.00023141
   3         0.00000000
   4         0.00000000
   5        -0.00028096
   6         1.00000716
   7        -0.00006619
   8        -0.00000000
   9         0.00000000
  10        -0.00040117
Sym=     2a  
Ene=    -7.8110
Spin= Alpha
Occup=    1.00000
   1         0.99989691
   2         0.01409312
   3         0.00000000
   4        -0.00000000
   5         0.00020802
   6        -0.00003172
   7        -0.00004024
   8        -0.00000000
   9        -0.00000000
  10        -0.00025130
Sym=     2a  
Ene=    -7.8046
Spin= Beta
Occup=    1.00000
   1         0.99992270
   2         0.01251854
   3         0.00000000
   4         0.00000000
   5         0.00056480
   6        -0.00002040
   7        -0.00009991
   8         0.00000000
   9        -0.00000000
  10         0.00005572
Sym=     3a  
Ene=    -1.1503
Spin= Alpha
Occup=    1.00000
   1        -0.00420439
   2         0.06006346
   3        -0.00000000
   4         0.00000000
   5         0.05245888
   6        -0.00211458
   7         0.97922740
   8        -0.00000000
   9        -0.00000000
  10         0.02675438
Sym=     3a  
Ene=    -1.0804
Spin= Beta
Occup=    1.00000
   1        -0.00509853
   2         0.05301017
   3        -0.00000000
   4         0.00000000
   5         0.02689297
   6        -0.00080331
   7         0.98435658
   8        -0.00000000
   9         0.00000000
  10        -0.05310839
Sym=     4a  
Ene=    -0.5966
Spin= Alpha
Occup=    1.00000
   1         0.01605447
   2        -0.94592412
   3         0.00000000
   4         0.00000000
   5         0.10643305
   6         0.00561665
   7         0.13305260
   8        -0.00000000
   9         0.00000000
  10         0.20551405
Sym=     4a  
Ene=    -0.5289
Spin= Beta
Occup=    1.00000
   1        -0.01263360
   2         0.99258523
   3         0.00000000
   4        -0.00000000
   5         0.03701797
   6        -0.00873841
   7        -0.18934228
   8        -0.00000000
   9         0.00000000
  10        -0.05952615
Sym=     5a  
Ene=    -0.4288
Spin= Alpha
Occup=    1.00000
   1        -0.00000000
   2        -0.00000000
   3         0.09318871
   4        -0.02239927
   5         0.00000000
   6        -0.00000000
   7        -0.00000000
   8         0.95948146
   9        -0.23062538
  10        -0.00000000
Sym=     5a  
Ene=    -0.4108
Spin= Beta
Occup=    1.00000
   1         0.00000000
   2         0.00000000
   3         0.09580547
   4        -0.02279583
   5        -0.00000000
   6        -0.00000000
   7         0.00000000
   8         0.95952885
   9        -0.22830905
  10         0.00000000
Sym=     6a  
Ene=    -0.4288
Spin= Alpha
Occup=    1.00000
   1         0.00000000
   2         0.00000000
   3         0.02239927
   4         0.09318871
   5         0.00000000
   6        -0.00000000
   7        -0.00000000
   8         0.23062538
   9         0.95948146
  10         0.00000000
Sym=     6a  
Ene=    -0.4108
Spin= Beta
Occup=    1.00000
   1         0.00000000
   2        -0.00000000
   3         0.02279583
   4         0.09580547
   5        -0.00000000
   6         0.00000000
   7         0.00000000
   8         0.22830905
   9         0.95952885
  10        -0.00000000
Sym=     7a  
Ene=    -0.3822
Spin= Alpha
Occup=    1.00000
   1         0.00676407
   2         0.14643171
   3         0.00000000
   4        -0.00000000
   5        -0.71975859
   6         0.01257198
   7         0.15226363
   8         0.00000000
   9        -0.00000000
  10         0.58903804
Sym=     7a  
Ene=     0.0436
Spin= Beta
Occup=    0.00000
   1         0.00000000
   2         0.00000000
   3        -0.77774620
   4         0.62735635
   5        -0.00000000
   6         0.00000000
   7         0.00000000
   8         0.14632621
   9        -0.11803166
  10         0.00000000
Sym=     8a  
Ene=     0.0337
Spin= Alpha
Occup=    0.00000
   1         0.00000000
   2        -0.00000000
   3        -0.82757127
   4         0.56044928
   5        -0.00000000
   6         0.00000000
   7         0.00000000
   8         0.15350478
   9        -0.10395678
  10        -0.00000000
Sym=     8a  
Ene=     0.0436
Spin= Beta
Occup=    0.00000
   1        -0.00000000
   2        -0.00000000
   3         0.62735635
   4         0.77774620
   5         0.00000000
   6        -0.00000000
   7        -0.00000000
   8        -0.11803166
   9        -0.14632621
  10        -0.00000000
Sym=     9a  
Ene=     0.0337
Spin= Alpha
Occup=    0.00000
   1         0.00000000
   2         0.00000000
   3         0.56044928
   4         0.82757127
   5         0.00000000
   6        -0.00000000
   7        -0.00000000
   8        -0.10395678
   9        -0.15350478
  10         0.00000000
Sym=     9a  
Ene=     0.0554
Spin= Beta
Occup=    0.00000
   1         0.00404520
   2         0.11326575
   3         0.00000000
   4        -0.00000000
   5        -0.86999725
   6         0.01570807
   7         0.21660152
   8        -0.00000000
   9         0.00000000
  10         0.38152269
Sym=    10a  
Ene=     0.1200
Spin= Alpha
Occup=    0.00000
   1         0.00870817
   2         0.35746095
   3        -0.00000000
   4        -0.00000000
   5         0.74690215
   6        -0.01686146
   7        -0.25455246
   8         0.00000000
   9        -0.00000000
  10         0.82644180
Sym=    10a  
Ene=     0.3016
Spin= Beta
Occup=    0.00000
   1         0.01197774
   2         0.21628196
   3         0.00000000
   4        -0.00000000
   5         0.57533131
   6        -0.01235135
   7        -0.11334182
   8        -0.00000000
   9         0.00000000
  10         0.95968756
