[Molden Format]
[N_Atoms]
                     2
[Atoms] (AU)
B1          1      5           0.00000000      0.00000000      0.00000000
O2          2      8           0.00000000      0.00000000      4.15739747
[Charge] (Mulliken)
  0.420532335268180     
 -0.420532335268200     
[GTO] (AU)
   1
   s  14
  3.336021700E+04  1.039699991E-04
  4.972095200E+03  5.254399956E-04
  1.125641700E+03  2.509059979E-03
  3.164913600E+02  1.031887991E-02
  1.020072600E+02  3.636632969E-02
  3.629587300E+01  1.064607991E-01
  1.397141000E+01  2.403999880E-01
  5.741156000E+00  3.748581168E-01
  2.494268000E+00  3.100066974E-01
  1.114202000E+00  7.922455933E-02
  4.215490000E-01 -4.947589958E-03
  1.696330000E-01 -7.737119935E-03
  6.853500000E-02 -1.501079987E-03
  2.398700000E-02 -1.333299989E-04
   s  14
  3.336021700E+04 -2.030000008E-05
  4.972095200E+03 -1.025700004E-04
  1.125641700E+03 -4.911300020E-04
  3.164913600E+02 -2.026570008E-03
  1.020072600E+02 -7.261010030E-03
  3.629587300E+01 -2.197722009E-02
  1.397141000E+01 -5.408428022E-02
  5.741156000E+00 -1.022402604E-01
  2.494268000E+00 -1.423595206E-01
  1.114202000E+00 -4.658690019E-02
  4.215490000E-01  3.799402916E-01
  1.696330000E-01  5.890463624E-01
  6.853500000E-02  1.749075107E-01
  2.398700000E-02 -1.142030005E-03
   p   9
  5.500000000E+01  1.229800005E-03
  1.336610100E+01  8.827380035E-03
  4.135394000E+00  3.843340015E-02
  1.481256000E+00  1.150031805E-01
  6.021360000E-01  2.733674011E-01
  2.556360000E-01  4.061972116E-01
  1.111510000E-01  3.014967912E-01
  4.764800000E-02  7.684809030E-02
  1.667700000E-02 -8.170000032E-06
 
   2
   s  14
  1.053749500E+05  1.238600013E-04
  1.567924000E+04  5.120100053E-04
  3.534544700E+03  2.152910022E-03
  9.873651600E+02  8.528440089E-03
  3.159787500E+02  3.018049031E-02
  1.116542800E+02  9.099702095E-02
  4.269945100E+01  2.177936423E-01
  1.739559600E+01  3.686245738E-01
  7.438309000E+00  3.366707335E-01
  3.222862000E+00  9.657630101E-02
  1.253877000E+00  2.144520022E-03
  4.951550000E-01  1.194350012E-03
  1.916650000E-01  5.390200056E-04
  6.708300000E-02  2.103400022E-04
   s  14
  1.053749500E+05 -2.815000008E-05
  1.567924000E+04 -1.163000003E-04
  3.534544700E+03 -4.909200013E-04
  9.873651600E+02 -1.946160005E-03
  3.159787500E+02 -7.005300019E-03
  1.116542800E+02 -2.167814006E-02
  4.269945100E+01 -5.641213015E-02
  1.739559600E+01 -1.127053003E-01
  7.438309000E+00 -1.589119704E-01
  3.222862000E+00 -3.355083009E-02
  1.253877000E+00  3.531902810E-01
  4.951550000E-01  5.534199315E-01
  1.916650000E-01  2.301839106E-01
  6.708300000E-02  1.127267003E-02
   p   9
  2.000000000E+02  9.173000030E-04
  4.653336700E+01  7.377140024E-03
  1.462180900E+01  3.483515011E-02
  5.313064000E+00  1.144397004E-01
  2.102525000E+00  2.554966408E-01
  8.502230000E-01  3.722557412E-01
  3.375970000E-01  3.323314911E-01
  1.288920000E-01  1.400847905E-01
  4.511200000E-02  2.395784008E-02
 
[MO]
Sym=     1a  
Ene=   -20.4330
Spin= Alpha
Occup=    2.00000
   1         0.00036869
   2         0.00620144
   3        -0.00000003
   4         0.00000050
   5        -0.01216192
   6         0.99982831
   7        -0.01021356
   8        -0.00000047
   9         0.00000533
  10         0.01827544
Sym=     2a  
Ene=    -7.8050
Spin= Alpha
Occup=    2.00000
   1         0.99987788
   2         0.01253656
   3        -0.00000000
   4        -0.00000006
   5         0.00235613
   6        -0.00010601
   7         0.00106593
   8         0.00000004
   9        -0.00000058
  10        -0.00214813
Sym=     3a  
Ene=    -0.9520
Spin= Alpha
Occup=    2.00000
   1        -0.00022525
   2         0.17790963
   3        -0.00000179
   4         0.00001109
   5        -0.18774461
   6         0.00251481
   7         0.91453548
   8        -0.00002794
   9         0.00011666
  10         0.35535420
Sym=     4a  
Ene=    -0.5687
Spin= Alpha
Occup=    2.00000
   1        -0.01538135
   2         0.94132204
   3        -0.00000052
   4         0.00000239
   5        -0.04382568
   6        -0.00683737
   7        -0.14796895
   8        -0.00000799
   9         0.00002526
  10        -0.22696385
Sym=     5a  
Ene=    -0.4291
Spin= Alpha
Occup=    2.00000
   1        -0.00000148
   2        -0.00009506
   3        -0.02325623
   4         0.08830094
   5         0.00011239
   6        -0.00000147
   7        -0.00003238
   8        -0.25154124
   9         0.95506997
  10        -0.00017683
Sym=     6a  
Ene=    -0.1359
Spin= Alpha
Occup=    1.00000
   1        -0.00000001
   2         0.00000104
   3        -0.04587946
   4        -0.01208349
   5        -0.00000188
   6         0.00000079
   7         0.00000029
   8        -0.96181430
   9        -0.25331752
  10         0.00000617
Sym=     7a  
Ene=     0.0214
Spin= Alpha
Occup=    2.00000
   1        -0.01258025
   2        -0.24254064
   3         0.00000251
   4        -0.00001831
   5         0.44418794
   6         0.02007238
   7         0.37564119
   8         0.00004471
   9        -0.00019122
  10        -0.70267356
Sym=     8a  
Ene=     0.0429
Spin= Alpha
Occup=    0.00000
   1         0.00000000
   2         0.00000011
   3         0.25466713
   4        -0.96693858
   5         0.00000006
   6        -0.00000000
   7        -0.00000003
   8        -0.04607820
   9         0.17495304
  10         0.00000028
Sym=     9a  
Ene=     0.0448
Spin= Alpha
Occup=    0.00000
   1         0.00000002
   2         0.00000130
   3        -0.96987749
   4        -0.25544116
   5         0.00000068
   6        -0.00000002
   7        -0.00000036
   8         0.13296812
   9         0.03502043
  10         0.00000287
Sym=    10a  
Ene=     0.1174
Spin= Alpha
Occup=    0.00000
   1        -0.00632751
   2        -0.26653082
   3        -0.00000184
   4        -0.00000066
   5        -0.92486224
   6         0.01944234
   7         0.25512600
   8        -0.00000099
   9        -0.00000018
  10        -0.63328181
