   This run of MOLCAS is using the pymolcas driver

                             OPE
                             OPE          NMOL  CASOP  ENMOLC A   SO
                 OPE        NMOLC        AS  OP EN  MO LC     AS  OP
                OPENM       OL CA        SO  PE NM  OL CA     SOP EN
                OP EN      MO   LC       AS  OP ENMOL  CASO   PENMOL
                OP  EN     MO   LC       AS  OP EN     MO     LC ASO
               OP   E  NMOL  C  AS       OP  EN MO     LC     AS  OP
               OP  E   NMO   LC AS        OPEN  MO     LCASOP EN   M
               O  PEN   MO  LCA  SO
            OPE   NMO   L   CAS    OP
        OPENMOL  CASOP     ENMOL   CASOPE
     OPENMOLCA   SOPENMOLCASOPEN   MOLCASOPE
    OPENMOLCAS   OP           EN   MOL    CAS
    OPENMOLCAS       OP  ENM        O     LCA
    OPENMOLCAS    OPEN  MOLCASO     P  E  NMO
    OPENMOLCAS     OP               E  N  MOL
    OPENMOLCA   SO           PENM   O  L  CAS    OPEN    MO    LCAS
    OPENMOLCA   SOP           ENM   O  L  CAS   OP  EN  MOLC  AS   O
    OPENMOLCA   SOPE           NM      O  LCA   S      OP  EN MO
    OPENMOLC                AS         O  PEN   M      OL  CA  SOPE
    OPENMO        LCASOPE  NMOL        C  ASO   P      ENMOLC     AS
    OPE     NMO      LCA  SO     P     E   NM   OL  CA SO  PE N   MO
          OPENMOLCA            SOPE   NMO        LCAS  O    P  ENMO
     OPENMOLCASOPENMOLCASOPENMOLCASOPENMOLCA
        OPENMOLCASOPENMOLCASOPENMOLCASOPE
            OPENMOLCASOPENMOLCASOPENM
               OPENMOLCASOPENMOLCA        version: 24.02
                   OPENMOLCASO
                       OPE                tag: 126-g611b04c8f

 OpenMolcas is free software; you can redistribute it and/or modify it
 under the terms of the GNU Lesser General Public License version 2.1.
 OpenMolcas is distributed in the hope that it will be useful, but it
 is provided "as is" and without any express or implied warranties.
 For more details see the full text of the license in the file
 LICENSE or in <http://www.gnu.org/licenses/>.

                 Copyright (C) The OpenMolcas Authors
           For the author list and the recommended citation,
                   consult the file CONTRIBUTORS.md

           *************************************************
           * pymolcas version py2.28                       *
           *   build c4a6d18ded8cb6cad61d2372a9abd97c      *
           *   (after the EMIL interpreter by V. Veryazov) *
           *************************************************

configuration info
------------------
Host name: debian (Linux)
C Compiler ID: GNU
C flags: -std=gnu99
Fortran Compiler ID: Intel
Fortran flags: -fpp -i8 -heap-arrays
Definitions: _MOLCAS_;_I8_;_LINUX_
Parallel: OFF (GA=OFF)


   -----------------------------------------------------------------
  |
  |              Project: 2.70
  |       Submitted from: /home/grierjones/DDCASPT2/delta_ML/HN/2.70
  |         Scratch area: /tmp/2.70
  |      Save outputs to: /home/grierjones/DDCASPT2/delta_ML/HN/2.70
  |               Molcas: /usr/local
  |
  | Scratch area is empty
  |
  |       MOLCAS_DRIVER = /usr/local/pymolcas
  | MOLCAS_KEEP_WORKDIR = NO
  |  MOLCAS_NEW_WORKDIR = YES
  |       MOLCAS_NPROCS = 1
  |       MOLCAS_SOURCE = /usr/local
  |    MOLCAS_STRUCTURE = 0
  |
   -----------------------------------------------------------------

++ ---------   Input file   ---------

&GATEWAY
coord=2.70.xyz
Basis = ANO-RCC-MB
Group = nosymm
End of Input

&SEWARD
End of Input

&SCF
UHF

&MBPT2
Frozen
0

&RASSCF
Title= RASSCF
FileOrb
/home/grierjones/DDCASPT2/delta_ML/HN/2.60/2.60.RasOrb

NACTEL
2 0 0
Inactive
3
RAS2
2
Symmetry
1
Spin
1
orblisting
all
ITERation
200 100
CIMX
200
SDAV
500

&CASPT2
Imaginary Shift
0.0
Frozen
0

-- ----------------------------------

--- Start Module: gateway at Thu Apr 25 14:00:30 2024 ---
 
()()()()()()()()()()()()()()()()()()()()()()()()()()()()()()()()()()()()()()()()()()()()()()()()()()

                                              &GATEWAY

                                   only a single process is used
                       available to each process: 2.0 GB of memory, 1 thread?
                                            pid: 112683
()()()()()()()()()()()()()()()()()()()()()()()()()()()()()()()()()()()()()()()()()()()()()()()()()()
 
 
++    Symmetry information:
      ---------------------
 
                    Character Table for C1 
 
                             E  
                    a        1  x, y, xy, Rz, z, xz, Ry, yz, Rx, I
--
 
 
++    Basis set information:
      ----------------------
 
 
      Basis set label: H.ANO-RCC...1S.
 
      Electronic valence basis set:
      ------------------
      Associated Effective Charge   1.000000 au
      Associated Actual Charge      1.000000 au
      Nuclear Model: Point charge
 
      Shell  nPrim  nBasis  Cartesian Spherical Contaminant
         s       8       1        X                  
 
 
      Basis set label: N.ANO-RCC...2S1P.
 
      Electronic valence basis set:
      ------------------
      Associated Effective Charge   7.000000 au
      Associated Actual Charge      7.000000 au
      Nuclear Model: Point charge
 
      Shell  nPrim  nBasis  Cartesian Spherical Contaminant
         s      14       2        X                  
         p       9       1        X                  
--
 
 
++    Molecular structure info:
      -------------------------
 
                    ************************************************ 
                    **** Cartesian Coordinates / Bohr, Angstrom **** 
                    ************************************************ 
 
     Center  Label                x              y              z                     x              y              z
        1      H1               0.000000       0.000000       0.000000              0.000000       0.000000       0.000000
        2      N2               0.000000       0.000000       5.102261              0.000000       0.000000       2.700000
--
 
 
            Nuclear Potential Energy              1.37194092 au
 
--- Stop Module: gateway at Thu Apr 25 14:00:30 2024 /rc=_RC_ALL_IS_WELL_ ---
*** files: xmldump
    saved to directory /home/grierjones/DDCASPT2/delta_ML/HN/2.70

--- Start Module: seward at Thu Apr 25 14:00:30 2024 ---
 
()()()()()()()()()()()()()()()()()()()()()()()()()()()()()()()()()()()()()()()()()()()()()()()()()()

                                              &SEWARD

                                   only a single process is used
                       available to each process: 2.0 GB of memory, 1 thread?
                                            pid: 112686
()()()()()()()()()()()()()()()()()()()()()()()()()()()()()()()()()()()()()()()()()()()()()()()()()()
 
               SEWARD will generate:
                  Multipole Moment integrals up to order  2
                  Kinetic Energy integrals
                  Nuclear Attraction integrals (point charge)
                  One-Electron Hamiltonian integrals
                  Velocity integrals
                  Relativistic Douglas-Kroll-Hess integrals:
                    - Parametrization         : EXP
                    - DKH order of Hamiltonian: 2
                    - DKH order of Properties : 0
                         - multipole moment operators
                         - electric potential operators
                         - contact operators
                  Orbital angular momentum around ( 0.0000  0.0000  4.7597 )
                  Velocity quadrupole around ( 0.0000  0.0000  4.7597 )
                  Atomic mean-field integrals
                  Two-Electron Repulsion integrals
 
                   Integrals are discarded if absolute value <: 1.00E-14
                   Integral cutoff threshold is set to       <: 1.00E-16
 
            Nuclear Potential Energy              1.37194092 au
 
 
      Basis set specifications :
      Symmetry species         a  
      Basis functions            6
 
 
      Input file to MOLDEN was generated!
 
--- Stop Module: seward at Thu Apr 25 14:00:31 2024 /rc=_RC_ALL_IS_WELL_ ---
*** files: 2.70.GssOrb 2.70.guessorb.h5 2.70.guessorb.molden xmldump
    saved to directory /home/grierjones/DDCASPT2/delta_ML/HN/2.70

*** symbolic link created: INPORB -> 2.70.GssOrb
--- Start Module: scf at Thu Apr 25 14:00:31 2024 ---
 
()()()()()()()()()()()()()()()()()()()()()()()()()()()()()()()()()()()()()()()()()()()()()()()()()()

                                                &SCF

                                   only a single process is used
                       available to each process: 2.0 GB of memory, 1 thread?
                                            pid: 112689
()()()()()()()()()()()()()()()()()()()()()()()()()()()()()()()()()()()()()()()()()()()()()()()()()()
 
++    Input section:
      --------------
 
      Header of the integral files:
      
       Integrals generated by Gateway/Seward, Thu Apr 25 14:00:30 2024
 
 
      Cartesian coordinates in Angstrom:
      -----------------------------------------------------
      No.  Label        X            Y            Z        
      -----------------------------------------------------
       1   H1         0.00000000   0.00000000   0.00000000
       2   N2         0.00000000   0.00000000   2.70000000
      -----------------------------------------------------
      Nuclear repulsion energy =    1.37194092
--
 
++    Orbital specifications:
      -----------------------
 
      Symmetry species               1
                                     a
      Frozen orbitals                0
      Occupied orbitals alpha        4
      Occupied orbitals beta         4
      Secondary orbitals alpha       2
      Secondary orbitals beta        2
      Deleted orbitals               0
      Total number of orbitals       6
      Number of basis functions      6
--
 
      Molecular charge                           0.000
 
++    Optimization specifications:
      ----------------------------
 
      SCF Algorithm: Conventional USCF
      D(i)-D(i-1) density differences are used
      Number of density matrices in core                 5
      Maximum number of NDDO SCF iterations            400
      Maximum number of HF SCF iterations              400
      Threshold for SCF energy change             1.00E-09
      Threshold for density matrix                1.00E-04
      Threshold for Fock matrix                   1.50E-04
      Threshold for linear dependence             1.00E-09
      Threshold at which DIIS is turned on        1.50E-01
      Maximum depth in the DIIS procedure                5
      Maximum depth in the BFGS Hessian update          30
      Threshold at which QNR/C2DIIS is turned on  7.50E-02
      Threshold for Norm(delta) (QNR/C2DIIS)      1.00E-03
      All orbitals punched on: UHFORB
--
 
      Input vectors read from INPORB
      Orbital file label: *Guess orbitals
 
 
++ Convergence information
                               UHF SCF        iterations: Energy and convergence statistics
 
Iter     Tot. SCF        One-elec.       Two-elec.     Energy      Max Dij or  Max Fij      DNorm      TNorm      AccCon     Time
         Energy          Energy          Energy        Change      Delta Norm                                                in Sec.
   1   -54.439572053   -79.686194552    23.874681582   0.00E+00    9.99E-01*   1.48E-01*    4.06E+00   1.41E+01   None         0.
   2   -54.440620540   -75.215270503    19.402709046  -1.05E-03*   1.58E-02*   7.24E-02*    1.98E+00   1.27E+01   EDIIS        0.
   3   -54.576817358   -77.450136491    21.501378216  -1.36E-01*   4.26E-03*   1.89E-03*    5.59E-01   1.34E+01   c2DIIS       0.
   4   -54.576831417   -77.437470924    21.488698591  -1.41E-05*   1.71E-03*   5.14E-04*    9.58E-03   1.34E+01   QNRc2DIIS    0.
   5   -54.576832142   -77.435740703    21.486967644  -7.25E-07*   1.08E-03*   1.30E-04     2.38E-03   1.34E+01   QNRc2DIIS    0.
   6   -54.576832171   -77.437479820    21.488706732  -2.95E-08*   5.05E-04    9.59E-05     1.36E-03   1.34E+01   QNRc2DIIS    0.
 DIIS_X: Reduction of the subspace dimension due to numerical imbalance of the v
 alues in the B-Matrix
 kOptim=                     4 -> kOptim=                     3
   7   -54.576832208   -77.436402358    21.487629233  -3.66E-08*   1.35E-07    9.92E-08     5.48E-04   1.34E+01   QNRc2DIIS    0.
 DIIS_X: Reduction of the subspace dimension due to numerical imbalance of the v
 alues in the B-Matrix
 kOptim=                     4 -> kOptim=                     3
 DIIS_X: Reduction of the subspace dimension due to numerical imbalance of the v
 alues in the B-Matrix
 kOptim=                     3 -> kOptim=                     2
   8   -54.576832208   -77.436402562    21.487629437   0.00E+00    3.07E-09    3.84E-09     1.75E-07   1.34E+01   QNRc2DIIS    0.
 
       Convergence after   8 Macro Iterations
--
 
 *****************************************************************************************************************************
 *                                                                                                                           *
 *                                             SCF/KS-DFT Program, Final results                                             *
 *                                                                                                                           *
 *                                                                                                                           *
 *                                                                                                                           *
 *                                                       Final Results                                                       *
 *                                                                                                                           *
 *****************************************************************************************************************************
 
::    Total SCF energy                                -54.5768322077
      One-electron energy                             -77.4364025623
      Two-electron energy                              21.4876294374
      Nuclear repulsion energy                          1.3719409172
      Kinetic energy (interpolated)                    55.4586249322
      Virial theorem                                    0.9840999894
      Total spin, S(S+1)                               -0.0000000000
      Total spin, S                                    -0.0000000000
      Max non-diagonal density matrix element           0.0000000020
      Max non-diagonal Fock matrix element              0.0000000002
 
 
      All orbitals with orbital energies smaller than  E(LUMO)+0.5 are printed
 
++    Molecular orbitals:
      -------------------
 
      Title: UHF orbitals (alpha)

      Molecular orbitals for symmetry species 1: a  
 
          Orbital            1         2         3         4         5         6    
          Energy          -15.5851   -0.9307   -0.4312   -0.2835   -0.0208    0.1127
          Occ. No.          1.0000    1.0000    1.0000    1.0000    0.0000    0.0000
 
        1 H1     1s        -0.0002    0.0257    0.0000   -0.6851    0.7335    0.0000
        2 N2     1s         1.0000    0.0057   -0.0000    0.0024   -0.0023   -0.0000
        3 N2     2s        -0.0058    0.9983   -0.0000    0.0500   -0.0593   -0.0000
        4 N2     2px        0.0000    0.0000    0.0000   -0.0000   -0.0000    1.0000
        5 N2     2py        0.0000    0.0000    1.0000    0.0000    0.0000   -0.0000
        6 N2     2pz       -0.0002    0.0059   -0.0000    0.6810    0.7359    0.0000
--
 
 
      Input file to MOLDEN was generated!
 
 
++    Static properties:
      ------------------
 
 
      LoProp Charges per center
 

                   H1       N2    
      Nuclear      1.0000   7.0000
      Electronic  -1.0077  -6.9923
 
      Total       -0.0077   0.0077
--
 
 
      All orbitals with orbital energies smaller than  E(LUMO)+0.5 are printed
 
++    Molecular orbitals:
      -------------------
 
      Title: UHF orbitals (beta)

      Molecular orbitals for symmetry species 1: a  
 
          Orbital            1         2         3         4         5         6    
          Energy          -15.5851   -0.9307   -0.4312   -0.2835   -0.0208    0.1127
          Occ. No.          1.0000    1.0000    1.0000    1.0000    0.0000    0.0000
 
        1 H1     1s        -0.0002    0.0257    0.0000   -0.6851    0.7335    0.0000
        2 N2     1s         1.0000    0.0057   -0.0000    0.0024   -0.0023   -0.0000
        3 N2     2s        -0.0058    0.9983   -0.0000    0.0500   -0.0593   -0.0000
        4 N2     2px        0.0000    0.0000    0.0000   -0.0000   -0.0000    1.0000
        5 N2     2py        0.0000    0.0000    1.0000    0.0000    0.0000   -0.0000
        6 N2     2pz       -0.0002    0.0059   -0.0000    0.6810    0.7359    0.0000
--
 
 
++    Molecular charges:
      ------------------
 
      Mulliken charges per centre and basis function type
      ---------------------------------------------------
 
                            H1                      N2    
                     alpha        beta       alpha        beta
      1s           0.5036      0.5036      1.0000      1.0000
      2s           0.0000      0.0000      0.9987      0.9987
      2px          0.0000      0.0000      0.0000      0.0000
      2pz          0.0000      0.0000      0.4977      0.4977
      2py          0.0000      0.0000      1.0000      1.0000
      Total        0.5036      0.5036      3.4964      3.4964
      Total              1.0071                  6.9929
 
      Charge           -0.0071                  0.0071
 
      Total electronic charge=    8.000000
 
      Total            charge=   -0.000000
--
 
 
      Input file to MOLDEN was generated!
 
 
++    Static properties:
      ------------------
 
 
      LoProp Charges per center
 

                   H1       N2    
      Nuclear      1.0000   7.0000
      Electronic  -1.0077  -6.9923
 
      Total       -0.0077   0.0077
--
 
 
++    Natural Bond Order analysis
      ---------------------------
      Based on LoProp computed density
      -------------------------------------------------------------------------------------
      Atom A       Atom B       Bond Order
      -------------------------------------------------------------------------------------
      The remaining    4.067 electrons are to be considered as diffuse
--
 
 
++    Molecular orbitals:
      -------------------
 
      Title: Natural orbitals

      Molecular orbitals for symmetry species 1: a  
 
          Orbital            1         2         3         4         5         6    
          Energy          -15.5851   -0.9307   -0.4312   -0.2835   -0.0208    0.1127
          Occ. No.          2.0000    2.0000    2.0000    2.0000    0.0000    0.0000
 
        1 H1     1s        -0.0002    0.0257    0.0000   -0.6850    0.7336    0.0000
        2 N2     1s         1.0000    0.0057   -0.0000    0.0024   -0.0023   -0.0000
        3 N2     2s        -0.0058    0.9983   -0.0000    0.0499   -0.0594   -0.0000
        4 N2     2px        0.0000    0.0000    0.0000   -0.0000   -0.0000    1.0000
        5 N2     2py        0.0000    0.0000    1.0000    0.0000    0.0000   -0.0000
        6 N2     2pz       -0.0002    0.0059   -0.0000    0.6811    0.7358    0.0000
--
 
 
++    Molecular properties:
      ---------------------
 
      Charge (e):
                      =   -0.0000
      Dipole Moment (Debye):
      Origin of the operator (Ang)=    0.0000    0.0000    0.0000
                   X= -5.6675E-14               Y= -1.5874E-16               Z= -1.9574E-02           Total=  1.9574E-02
      Quadrupole Moment (Debye*Ang):
      Origin of the operator (Ang)=    0.0000    0.0000    2.5187
                  XX= -5.1849E+00              XY= -7.4288E-07              XZ=  6.2469E-15              YY= -7.7400E+00
                  YZ=  3.9417E-15              ZZ= -6.0343E+00
      In traceless form (Debye*Ang)
                  XX=  1.7022E+00              XY= -1.1143E-06              XZ=  9.3704E-15              YY= -2.1304E+00
                  YZ=  5.9126E-15              ZZ=  4.2818E-01
--
 
 
      Input file to MOLDEN was generated!
 
 ###############################################################################
 ###############################################################################
 ###                                                                         ###
 ###                                                                         ###
 ###    WARNING: RunFile label nBas                                          ###
 ###    was used       87 times                                              ###
 ###                                                                         ###
 ###                                                                         ###
 ###############################################################################
 ###############################################################################
--- Stop Module: scf at Thu Apr 25 14:00:31 2024 /rc=_RC_ALL_IS_WELL_ ---
*** files: 2.70.LprOrb 2.70.LoProp.molden 2.70.scf.molden 2.70.scf.h5 2.70.UhfOrb 2.70.UnaOrb xmldump
    saved to directory /home/grierjones/DDCASPT2/delta_ML/HN/2.70

*** symbolic link created: INPORB -> 2.70.UnaOrb
--- Start Module: mbpt2 at Thu Apr 25 14:00:31 2024 ---
 
()()()()()()()()()()()()()()()()()()()()()()()()()()()()()()()()()()()()()()()()()()()()()()()()()()

                                               &MBPT2

                                   only a single process is used
                       available to each process: 2.0 GB of memory, 1 thread?
                                            pid: 112693
()()()()()()()()()()()()()()()()()()()()()()()()()()()()()()()()()()()()()()()()()()()()()()()()()()
 
 
 ###############################################################################
 ###############################################################################
 ###                                                                         ###
 ###                                                                         ###
 ###    WARNING: MP2 implementation intended for RHF references only         ###
 ###                                                                         ###
 ###                                                                         ###
 ###############################################################################
 ###############################################################################
MBPT2 WARNING: Reference function according to RunFile:UHF-SCF 
I'll assume you know what you're doing and continue
 
 
WARNING!
Default frozen orbitals as non valence orbitals is overwritten by user input.
Default values:   1
 
 
      Cartesian coordinates in Angstrom:
      -----------------------------------------------------
      No.  Label        X            Y            Z        
      -----------------------------------------------------
       1   H1         0.00000000   0.00000000   0.00000000
       2   N2         0.00000000   0.00000000   2.70000000
      -----------------------------------------------------
      Nuclear repulsion energy =    1.37194092
 
      Contents of RUNFILE file:
      -------------------------
 
      Symmetry species                           1
                                                 a
      Number of basis functions                  6
      Frozen occupied orbitals                   0
      Active occupied orbitals                   4
      Active external orbitals                   2
      Deleted external orbitals                  0
 
 
      Energies of the active occupied orbitals
 
      symmetry species 1                   -15.585122     -0.930711     -0.431202     -0.283537
 
 
      Energies of the active external orbitals
 
      symmetry species 1                    -0.020760      0.112695
 
 
      ********************************************************************************************************
      *                                               Results                                                *
      ********************************************************************************************************
 
 Conventional algorithm used...

       SCF energy                           =      -54.5768322077 a.u.
       Second-order correlation energy      =       -0.1358130963 a.u.

       Total energy                         =      -54.7126453040 a.u.
       Reference weight ( Cref**2 )         =        0.80707
 
::    Total MBPT2 energy                              -54.7126453040
 
 
       Zeroth-order energy (E0)             =      -33.0892027703 a.u.
 
       Shanks-type energy S1(E)             =      -54.7135091742 a.u.
 
 


       Data processing and timing information:

       Section                                              time(sec)
                                                          CPU  Elapsed

      Input data processing                              0.02      0.04
      Transformation of integrals                        0.00      0.01
      MBPT2 calculations (BJAI)                          0.00      0.00
      Total MBPT2 calculations                           0.02      0.05
 
 
--- Stop Module: mbpt2 at Thu Apr 25 14:00:31 2024 /rc=_RC_ALL_IS_WELL_ ---
*** files: xmldump
    saved to directory /home/grierjones/DDCASPT2/delta_ML/HN/2.70

*** symbolic link created: INPORB -> 2.70.UnaOrb
--- Start Module: rasscf at Thu Apr 25 14:00:31 2024 ---
 
()()()()()()()()()()()()()()()()()()()()()()()()()()()()()()()()()()()()()()()()()()()()()()()()()()

                                              &RASSCF

                                   only a single process is used
                       available to each process: 2.0 GB of memory, 1 thread?
                                            pid: 112696
()()()()()()()()()()()()()()()()()()()()()()()()()()()()()()()()()()()()()()()()()()()()()()()()()()
 
 
      Header of the ONEINT file:
      --------------------------
      
      Integrals generated by Gateway/Seward, Thu Apr 25 14:00:30 2024
 
 
      OrdInt status: non-squared
 
 
      Cartesian coordinates in Angstrom:
      -----------------------------------------------------
      No.  Label        X            Y            Z        
      -----------------------------------------------------
       1   H1         0.00000000   0.00000000   0.00000000
       2   N2         0.00000000   0.00000000   2.70000000
      -----------------------------------------------------
      Nuclear repulsion energy =    1.37194092
 
++    Wave function specifications:
      -----------------------------
 
      Number of closed shell electrons           6
      Number of electrons in active shells       2
      Max number of holes in RAS1 space          0
      Max nr of electrons in RAS3 space          0
      Number of inactive orbitals                3
      Number of active orbitals                  2
      Number of secondary orbitals               1
      Spin quantum number                      0.0
      State symmetry                             1
--
 
++    Orbital specifications:
      -----------------------
 
      Symmetry species                           1
                                                 a
      Frozen orbitals                            0
      Inactive orbitals                          3
      Active orbitals                            2
      RAS1 orbitals                              0
      RAS2 orbitals                              2
      RAS3 orbitals                              0
      Secondary orbitals                         1
      Deleted orbitals                           0
      Number of basis functions                  6
--
 
++    CI expansion specifications:
      ----------------------------
 
      Number of CSFs                             3
      Number of determinants                     3
      Number of root(s) required                 1
      Root chosen for geometry opt.              1
      CI root used                               1
         
      highest root included in the CI            1
      max. size of the explicit Hamiltonian      3
--
 
++    Optimization specifications:
      ----------------------------
 
      RASSCF algorithm: Conventional
      Maximum number of macro iterations       200
      Maximum number of SX iterations          100
      Threshold for RASSCF energy            1.000E-08
      Threshold for max MO rotation          1.000E-01
      Threshold for max BLB element          1.000E-04
      Level shift parameter                  5.000E-01
      Make Quasi-Newton update
--
 
      The MO-coefficients are taken from the file:
      /home/grierjones/DDCASPT2/delta_ML/HN/2.60/2.60.RasOrb                                                                                                                                                                                                          
      Title: RASSCF average (pseudo-natural) orbitals                                      
 
      Total molecular charge    0.00
 
      ************************************************************************************************************************
      *                                                                                                                      *
      *                                            Wave function control section                                             *
      *                                                                                                                      *
      ************************************************************************************************************************
 
 
                                         RASSCF iterations: Energy and convergence statistics
                                         ----------------------------------------------------
 
      Iter CI   SX   CI       RASSCF       Energy    max ROT     max BLB   max BLB  Level Ln srch  Step   QN   Walltime
          iter iter root      energy       change     param      element    value   shift minimum  type update hh:mm:ss
 Nr of preliminary CI iterations:   1
        1   1    3    1   -54.61364497    0.00E+00  -1.10E-03    2   6 1  2.82E-03*  0.37   0.00    SX    NO    0:00:00
        2   1    3    1   -54.61365026   -5.29E-06* -5.22E-04    2   6 1  1.34E-03*  0.38   0.00    SX    NO    0:00:00
        3   1    3    1   -54.61365130   -1.04E-06* -2.47E-04    2   6 1  6.34E-04*  0.38   0.00    SX    NO    0:00:00
        4   1    3    1   -54.61365153   -2.31E-07* -1.17E-04    2   6 1  3.00E-04*  0.38   0.00    SX    NO    0:00:00
        5   1    2    1   -54.61365158   -5.15E-08* -1.04E-04    2   6 1  1.41E-04*  0.38   1.89    LS   YES    0:00:00
        6   1    2    1   -54.61365160   -1.48E-08*  7.75E-07    3   6 1 -9.90E-07   0.38   1.00    QN   YES    0:00:00
        7   1    1    1   -54.61365160   -8.81E-13  -4.59E-10    3   6 1 -1.14E-07   0.38   1.12    QN   YES    0:00:00
      Convergence after  7 iterations
        8   1    1    1   -54.61365160    0.00E+00  -4.59E-10    3   6 1 -1.14E-07   0.38   1.12    QN   YES    0:00:00
 
      ************************************************************************************************************************
                                                      Wave function printout:
                       occupation of active orbitals, and spin coupling of open shells (u,d: Spin up or down)
      ************************************************************************************************************************
 
      Note: transformation to natural orbitals
      has been made, which may change the order of the CSFs.
 
      printout of CI-coefficients larger than  0.05 for root  1
      energy=     -54.613652
      conf/sym  11     Coeff  Weight
             2  ud   1.00000 1.00000
 
      Natural orbitals and occupation numbers for root  1
      sym 1:   1.000000   1.000000
 
      ************************************************************************************************************************
      *                                                                                                                      *
      *                                                    Final results                                                     *
      *                                                                                                                      *
      ************************************************************************************************************************
 
 
++    Wave function specifications:
      -----------------------------
 
      Number of closed shell electrons           6
      Number of electrons in active shells       2
      Max number of holes in RAS1 space          0
      Max nr of electrons in RAS3 space          0
      Number of inactive orbitals                3
      Number of active orbitals                  2
      Number of secondary orbitals               1
      Spin quantum number                      0.0
      State symmetry                             1
--
 
++    Orbital specifications:
      -----------------------
 
      Symmetry species                           1
                                                 a
      Frozen orbitals                            0
      Inactive orbitals                          3
      Active orbitals                            2
      RAS1 orbitals                              0
      RAS2 orbitals                              2
      RAS3 orbitals                              0
      Secondary orbitals                         1
      Deleted orbitals                           0
      Number of basis functions                  6
--
 
++    CI expansion specifications:
      ----------------------------
 
      Number of CSFs                             3
      Number of determinants                     3
      Number of root(s) required                 1
      CI root used                               1
      highest root included in the CI            1
      Root passed to geometry opt.               1
--
 
++    Final optimization conditions:
      ------------------------------
 
      Average CI energy                             -54.61365160
      RASSCF energy for state  1                    -54.61365160
      Super-CI energy                                 0.00000000
      RASSCF energy change                            0.00000000
      Max change in MO coefficients              -3.376E-10
      Max non-diagonal density matrix element    -4.588E-10
      Maximum BLB matrix element                 -1.139E-07
      (orbital pair   3,   6 in symmetry   1)
      Norm of electronic gradient            1.161E-07
--
 
 
      Final state energy(ies):
      ------------------------
 
::    RASSCF root number  1 Total energy:    -54.61365160
 
++    Molecular orbitals:
      -------------------
 
      Pseudonatural active orbitals and approximate occupation numbers
 
 
 
 
      Molecular orbitals for symmetry species 1: a  
 
 
      Orbital                 1         2         3         4         5         6
      Energy           -15.5851   -0.9307   -0.2835   -0.1593   -0.0000   -0.0208
      Occ. No.           2.0000    2.0000    2.0000    1.0000    1.0000    0.0000
 
     1 H1     1s        -0.0002    0.0257   -0.6851    0.0000   -0.0000    0.7335
     2 N2     1s         1.0000    0.0057    0.0024   -0.0000    0.0000   -0.0023
     3 N2     2s        -0.0058    0.9983    0.0500   -0.0000    0.0000   -0.0593
     4 N2     2px       -0.0000   -0.0000   -0.0000   -0.9963   -0.0860    0.0000
     5 N2     2py       -0.0000   -0.0000   -0.0000   -0.0860    0.9963   -0.0000
     6 N2     2pz       -0.0002    0.0059    0.6810   -0.0000    0.0000    0.7359
--
 
      Von Neumann Entropy (Root   1) =  1.00000
 

      Mulliken population analysis for root number:  1
      -----------------------------------------------
 
 
++    Molecular charges:
      ------------------
 
      Mulliken charges per centre and basis function type
      ---------------------------------------------------
 
                H1      N2    
      1s       1.0071  2.0000
      2s       0.0000  1.9975
      2px      0.0000  1.0000
      2pz      0.0000  0.9954
      2py      0.0000  1.0000
      Total    1.0071  6.9929
 
      N-E     -0.0071  0.0071
 
      Total electronic charge=    8.000000
 
      Total            charge=   -0.000000
--
 
 

      Expectation values of various properties for root number:  1
      -----------------------------------------------------------
 
 
++    Molecular properties:
      ---------------------
 
      Charge (e):
                      =   -0.0000
      Dipole Moment (Debye):
      Origin of the operator (Ang)=    0.0000    0.0000    0.0000
                   X=  2.0723E-14               Y=  7.1999E-14               Z= -1.9572E-02           Total=  1.9572E-02
      Quadrupole Moment (Debye*Ang):
      Origin of the operator (Ang)=    0.0000    0.0000    2.5187
                  XX= -6.4625E+00              XY=  3.7253E-13              XZ=  2.9604E-14              YY= -6.4625E+00
                  YZ=  3.4317E-14              ZZ= -6.0343E+00
      In traceless form (Debye*Ang)
                  XX= -2.1408E-01              XY=  5.5880E-13              XZ=  4.4406E-14              YY= -2.1408E-01
                  YZ=  5.1476E-14              ZZ=  4.2817E-01
--
 

      LoProp population analysis for root number:  1
      -----------------------------------------------
 
 
++    LoProp analysis:
      ----------------
 
 
 
      Input file to MOLDEN was generated!
 
 
++    Static properties:
      ------------------
 
 
      LoProp Charges per center
 

                   H1       N2    
      Nuclear      1.0000   7.0000
      Electronic  -1.0077  -6.9923
 
      Total       -0.0077   0.0077
--
 
 
      Natural Bond Order analysis for root number:  1
 
++    Natural Bond Order analysis
      ---------------------------
      Based on LoProp computed density
      -------------------------------------------------------------------------------------
      Atom A       Atom B       Bond Order
      -------------------------------------------------------------------------------------
      The remaining    4.067 electrons are to be considered as diffuse
--
 
--
 
 
      Input file to MOLDEN was generated!
 
      Average orbitals are written to the RASORB file
      Natural orbitals for root   1 are written to the RASORB.1 file
      Spin density orbitals for root   1 are written to the SPDORB.1 file
 
--- Stop Module: rasscf at Thu Apr 25 14:00:32 2024 /rc=_RC_ALL_IS_WELL_ ---
*** files: 2.70.LprOrb 2.70.rasscf.molden 2.70.LoProp.molden 2.70.RasOrb.1 2.70.RasOrb 2.70.rasscf.h5 2.70.SpdOrb.1 xmldump
    saved to directory /home/grierjones/DDCASPT2/delta_ML/HN/2.70

*** symbolic link created: INPORB -> 2.70.RasOrb
--- Start Module: caspt2 at Thu Apr 25 14:00:32 2024 ---
 
()()()()()()()()()()()()()()()()()()()()()()()()()()()()()()()()()()()()()()()()()()()()()()()()()()

                                              &CASPT2

                                   only a single process is used
                       available to each process: 2.0 GB of memory, 1 thread?
                                            pid: 112699
()()()()()()()()()()()()()()()()()()()()()()()()()()()()()()()()()()()()()()()()()()()()()()()()()()
 
 ###############################################################################
 ###############################################################################
 ###                                                                         ###
 ###                                                                         ###
 ###    WARNING: User changed nr of frozen orbitals.                         ###
 ###                                                                         ###
 ###                                                                         ###
 ###############################################################################
 ###############################################################################
 
++    Wave function specifications:
      -----------------------------
 
      Number of closed shell electrons           6
      Number of electrons in active shells       2
      Max number of holes in RAS1 space          0
      Max number of electrons in RAS3 space      0
      Number of inactive orbitals                3
      Number of active orbitals                  2
      Number of secondary orbitals               1
      Spin quantum number                      0.0
      State symmetry                             1
      Number of CSFs                             3
      Number of CASSCF root(s) available         1
      CASPT2 state passed to geometry opt.       1
      A file JOBMIX will be created
      This is a CASSCF or RASSCF reference function
--
 
++    Orbital specifications:
      -----------------------
 
      Symmetry species                           1
                                                 a
      Frozen orbitals                            0
      Inactive orbitals                          3
      Active orbitals                            2
      Secondary orbitals                         1
      Deleted orbitals                           0
      Number of basis functions                  6
--
 
++    CASPT2 specifications:
      ----------------------
 
      Type of calculation                        SS-CASPT2
      Fock operator                              state-specific
      IPEA shift                                 0.25
      Real shift                                 0.00
      Imaginary shift                            0.00
      The input orbitals will be transformed to quasi-canonical
--
 
--------------------------------------------------------------------------------
 Estimated memory requirements:
  POLY3 :                   250070
  RHS:                      250156
  SIGMA :                   250096
  PRPCTL:                        0
 Available workspace:    230392812
 
++ CASPT2 computation for group   1
 
********************************************************************************
 Multi-State initialization phase begins for group   1
--------------------------------------------------------------------------------
********************************************************************************
 Compute H0 matrices for state    1
--------------------------------------------------------------------------------
--------------------------------------------------------------------------------
 H0 matrices have been computed.
 
********************************************************************************
  CASPT2 EQUATION SOLUTION
--------------------------------------------------------------------------------
 
  Total nr of CASPT2 parameters:
   Before reduction:         110
   After  reduction:          57
 
 Variance of |WF0>:       0.0698633002
-----------------------------------------------------------------------------------------------------------------------------
 
  FINAL CASPT2 RESULT:
 
      Reference energy:         -54.6136515997
      E2 (Non-variational):      -0.1242092360
      E2 (Variational):          -0.1242092360
      Total energy:             -54.7378608357
      Residual norm:              0.0000000387
      Reference weight:           0.81146
 
      Contributions to the CASPT2 correlation energy
      Active & Virtual Only:         -0.0000000000
      One Inactive Excited:          -0.0000000000
      Two Inactive Excited:          -0.1242092360
 
 
++ Denominators, etc.
--------------------------------------------------------------------------------------------------------------
 Report on small energy denominators, large coefficients, and large energy contributions.
CASE  SYMM ACTIVE-MIX  NON-ACTIVE INDICES          DENOMINATOR     RHS VALUE       COEFFICIENT     CONTRIBUTION
VJTU     1  Mu1.0001  In1.003                       0.21803310     -0.00000000      0.00000000     -0.00000000
VJTU     1  Mu1.0002  In1.003                       0.21803310      0.00000000     -0.00000000     -0.00000000
ATVX     1  Mu1.0001  Se1.006                       0.23224309      0.00000000     -0.00000000     -0.00000000
ATVX     1  Mu1.0002  Se1.006                       0.23224309     -0.00000000      0.00000000     -0.00000000
BJAIP    1  Se1.006 In1.002 Se1.006 In1.002         1.81990148      0.07208429     -0.03960890     -0.00285518
BJAIP    1  Se1.006 In1.003 Se1.006 In1.003         0.52555238      0.25244832     -0.48034854     -0.12126318
--
 
   (Skipping property calculation,
    use PROP keyword to activate)
--
 
  Total CASPT2 energies:
::    CASPT2 Root  1     Total energy:    -54.73786084
 
  A NEW JOBIPH FILE NAMED 'JOBMIX' IS PREPARED.
********************************************************************************
--- Stop Module: caspt2 at Thu Apr 25 14:00:32 2024 /rc=_RC_ALL_IS_WELL_ ---
*** files: xmldump
    saved to directory /home/grierjones/DDCASPT2/delta_ML/HN/2.70

.##################.
.# Happy landing! #.
.##################.

    Timing: Wall=2.44 User=1.41 System=0.27
************************************
*** WorkDir at /tmp/2.70 removed ***
************************************
