[Molden Format]
[N_Atoms]
                     2
[Atoms] (AU)
BE1         1      4           0.00000000      0.00000000      0.00000000
F2          2      9           0.00000000      0.00000000      3.40150702
[Charge] (Mulliken)
  0.569353634812558     
 -0.569353634812582     
[GTO] (AU)
   1
   s  14
  2.262859900E+04  8.443999941E-05
  3.372318100E+03  4.601499968E-04
  7.603504000E+02  2.285389984E-03
  2.117404800E+02  9.648129932E-03
  6.722346800E+01  3.494469975E-02
  2.337217700E+01  1.061099893E-01
  8.721373000E+00  2.458240383E-01
  3.468091000E+00  3.862428773E-01
  1.452144000E+00  3.105526078E-01
  6.086150000E-01  6.415933955E-02
  2.576860000E-01 -2.265049984E-03
  1.041760000E-01 -5.217499963E-04
  4.242700000E-02 -8.757499938E-04
  1.484900000E-02  1.242199991E-04
   s  14
  2.262859900E+04 -1.586999994E-05
  3.372318100E+03 -8.656999968E-05
  7.603504000E+02 -4.302199984E-04
  2.117404800E+02 -1.825079993E-03
  6.722346800E+01 -6.682749976E-03
  2.337217700E+01 -2.095119992E-02
  8.721373000E+00 -5.200308981E-02
  3.468091000E+00 -9.849176964E-02
  1.452144000E+00 -1.355800695E-01
  6.086150000E-01 -6.429875976E-02
  2.576860000E-01  3.125414989E-01
  1.041760000E-01  6.270468577E-01
  4.242700000E-02  2.110231492E-01
  1.484900000E-02 -4.104669985E-03
   p   9
  3.371018400E+01  1.069960000E-03
  8.057649500E+00  6.828550001E-03
  2.836471400E+00  2.119065000E-02
  1.099965700E+00  5.843696001E-02
  4.433964000E-01  2.020920800E-01
  1.822264000E-01  4.582953101E-01
  7.572410000E-02  3.691239601E-01
  3.168540000E-02  6.611471001E-02
  1.108990000E-02  1.405160000E-03
 
   2
   s  14
  1.031094600E+05  1.713099991E-04
  1.528100700E+04  7.123999962E-04
  3.441539200E+03  2.990479984E-03
  9.670948300E+02  1.164036994E-02
  3.140353400E+02  3.968642979E-02
  1.134423000E+02  1.128546094E-01
  4.464472700E+01  2.473650687E-01
  1.894287400E+01  3.672702681E-01
  8.532743000E+00  2.896286985E-01
  3.919401000E+00  7.786681959E-02
  1.568157000E+00  4.562139976E-03
  6.232900000E-01  2.468879987E-03
  2.408610000E-01  1.106309994E-03
  8.430100000E-02  1.739699991E-04
   s  14
  1.031094600E+05 -4.044999995E-05
  1.528100700E+04 -1.682299998E-04
  3.441539200E+03 -7.084299991E-04
  9.670948300E+02 -2.767999996E-03
  3.140353400E+02 -9.611379987E-03
  1.134423000E+02 -2.833957996E-02
  4.464472700E+01 -6.839343991E-02
  1.894287400E+01 -1.237379298E-01
  8.532743000E+00 -1.512859698E-01
  3.919401000E+00 -9.099909988E-03
  1.568157000E+00  3.716257695E-01
  6.232900000E-01  5.500214393E-01
  2.408610000E-01  2.092318697E-01
  8.430100000E-02  8.074639989E-03
   p   9
  2.453302900E+02  1.024860004E-03
  5.691900500E+01  8.344290032E-03
  1.760456800E+01  4.078927016E-02
  6.274995000E+00  1.351370605E-01
  2.447030000E+00  2.798830811E-01
  9.950600000E-01  3.597966414E-01
  4.039730000E-01  3.055347412E-01
  1.548100000E-01  1.354703905E-01
  5.418400000E-02  2.804449011E-02
 
[MO]
Sym=     1a  
Ene=   -26.0540
Spin= Alpha
Occup=    1.00000
   1        -0.00006090
   2        -0.00037900
   3         0.00000000
   4        -0.00000000
   5        -0.00040865
   6         1.00002153
   7        -0.00235933
   8         0.00000000
   9        -0.00000000
  10        -0.00072272
Sym=     1a  
Ene=   -26.0510
Spin= Beta
Occup=    1.00000
   1        -0.00006047
   2        -0.00034641
   3         0.00000000
   4        -0.00000000
   5        -0.00039032
   6         1.00001980
   7        -0.00247546
   8         0.00000000
   9        -0.00000000
  10        -0.00070183
Sym=     2a  
Ene=    -4.8314
Spin= Alpha
Occup=    1.00000
   1         0.99994175
   2         0.00223176
   3        -0.00000000
   4        -0.00000000
   5        -0.00039796
   6        -0.00001454
   7         0.00103369
   8        -0.00000000
   9        -0.00000000
  10        -0.00109442
Sym=     2a  
Ene=    -4.8104
Spin= Beta
Occup=    1.00000
   1         0.99995544
   2         0.00256635
   3        -0.00000000
   4         0.00000000
   5         0.00066371
   6        -0.00006303
   7         0.00057154
   8        -0.00000000
   9        -0.00000000
  10        -0.00085449
Sym=     3a  
Ene=    -1.4182
Spin= Alpha
Occup=    1.00000
   1        -0.01364891
   2         0.03996814
   3        -0.00000000
   4        -0.00000000
   5         0.04781645
   6        -0.00027607
   7         0.97047157
   8         0.00000000
   9        -0.00000000
  10        -0.04994303
Sym=     3a  
Ene=    -1.4083
Spin= Beta
Occup=    1.00000
   1        -0.01319993
   2         0.04386007
   3        -0.00000000
   4        -0.00000000
   5         0.04993784
   6        -0.00034079
   7         0.96929085
   8         0.00000000
   9        -0.00000000
  10        -0.03804275
Sym=     4a  
Ene=    -0.5455
Spin= Alpha
Occup=    1.00000
   1         0.03431482
   2        -0.29322447
   3         0.00000000
   4        -0.00000000
   5        -0.11388286
   6         0.01191599
   7         0.18359930
   8        -0.00000000
   9        -0.00000000
  10         0.87640191
Sym=     4a  
Ene=    -0.5112
Spin= Beta
Occup=    1.00000
   1        -0.00000000
   2         0.00000000
   3         0.09499847
   4        -0.00635959
   5         0.00000000
   6        -0.00000000
   7        -0.00000000
   8         0.97764755
   9        -0.06544781
  10        -0.00000000
Sym=     5a  
Ene=    -0.5087
Spin= Alpha
Occup=    1.00000
   1         0.00000000
   2        -0.00000000
   3         0.11797905
   4        -0.00411348
   5        -0.00000000
   6         0.00000000
   7         0.00000000
   8         0.97308514
   9        -0.03392779
  10         0.00000000
Sym=     5a  
Ene=    -0.5112
Spin= Beta
Occup=    1.00000
   1         0.00000000
   2        -0.00000000
   3         0.00635959
   4         0.09499847
   5        -0.00000000
   6         0.00000000
   7         0.00000000
   8         0.06544781
   9         0.97764755
  10         0.00000000
Sym=     6a  
Ene=    -0.5087
Spin= Alpha
Occup=    1.00000
   1         0.00000000
   2         0.00000000
   3         0.00411348
   4         0.11797905
   5        -0.00000000
   6         0.00000000
   7         0.00000000
   8         0.03392779
   9         0.97308514
  10         0.00000000
Sym=     6a  
Ene=    -0.5082
Spin= Beta
Occup=    1.00000
   1         0.03397451
   2        -0.25757044
   3         0.00000000
   4        -0.00000000
   5        -0.19854569
   6         0.01449672
   7         0.19793080
   8         0.00000000
   9        -0.00000000
  10         0.86837474
Sym=     7a  
Ene=    -0.3716
Spin= Alpha
Occup=    1.00000
   1         0.00894051
   2         0.84783554
   3         0.00000000
   4         0.00000000
   5        -0.50077871
   6         0.00111497
   7        -0.01315529
   8        -0.00000000
   9        -0.00000000
  10         0.26965283
Sym=     7a  
Ene=     0.0235
Spin= Beta
Occup=    0.00000
   1         0.01023816
   2         0.93542112
   3         0.00000000
   4         0.00000000
   5        -0.35173268
   6        -0.00691910
   7        -0.10013142
   8         0.00000000
   9        -0.00000000
  10         0.27922027
Sym=     8a  
Ene=     0.0618
Spin= Alpha
Occup=    0.00000
   1        -0.00000000
   2        -0.00000000
   3         1.00665839
   4        -0.02866971
   5         0.00000000
   6        -0.00000000
   7        -0.00000000
   8        -0.28285750
   9         0.00805580
  10        -0.00000000
Sym=     8a  
Ene=     0.1190
Spin= Beta
Occup=    0.00000
   1        -0.00000000
   2         0.00000000
   3         1.00861654
   4        -0.04179188
   5         0.00000000
   6        -0.00000000
   7        -0.00000000
   8        -0.26062288
   9         0.01079887
  10        -0.00000000
Sym=     9a  
Ene=     0.0618
Spin= Alpha
Occup=    0.00000
   1        -0.00000000
   2        -0.00000000
   3         0.02866971
   4         1.00665839
   5         0.00000000
   6         0.00000000
   7         0.00000000
   8        -0.00805580
   9        -0.28285750
  10        -0.00000000
Sym=     9a  
Ene=     0.1190
Spin= Beta
Occup=    0.00000
   1        -0.00000000
   2        -0.00000000
   3         0.04179188
   4         1.00861654
   5        -0.00000000
   6         0.00000000
   7         0.00000000
   8        -0.01079887
   9        -0.26062288
  10        -0.00000000
Sym=    10a  
Ene=     0.2494
Spin= Alpha
Occup=    0.00000
   1         0.02495745
   2         0.56246818
   3        -0.00000000
   4         0.00000000
   5         0.97201053
   6        -0.05163572
   7        -0.50735018
   8         0.00000000
   9         0.00000000
  10         0.50627997
Sym=    10a  
Ene=     0.2929
Spin= Beta
Occup=    0.00000
   1         0.02461506
   2         0.42366626
   3        -0.00000000
   4         0.00000000
   5         1.02235472
   6        -0.05054578
   7        -0.49434153
   8         0.00000000
   9         0.00000000
  10         0.51586944
