   This run of MOLCAS is using the pymolcas driver

                             OPE
                             OPE          NMOL  CASOP  ENMOLC A   SO
                 OPE        NMOLC        AS  OP EN  MO LC     AS  OP
                OPENM       OL CA        SO  PE NM  OL CA     SOP EN
                OP EN      MO   LC       AS  OP ENMOL  CASO   PENMOL
                OP  EN     MO   LC       AS  OP EN     MO     LC ASO
               OP   E  NMOL  C  AS       OP  EN MO     LC     AS  OP
               OP  E   NMO   LC AS        OPEN  MO     LCASOP EN   M
               O  PEN   MO  LCA  SO
            OPE   NMO   L   CAS    OP
        OPENMOL  CASOP     ENMOL   CASOPE
     OPENMOLCA   SOPENMOLCASOPEN   MOLCASOPE
    OPENMOLCAS   OP           EN   MOL    CAS
    OPENMOLCAS       OP  ENM        O     LCA
    OPENMOLCAS    OPEN  MOLCASO     P  E  NMO
    OPENMOLCAS     OP               E  N  MOL
    OPENMOLCA   SO           PENM   O  L  CAS    OPEN    MO    LCAS
    OPENMOLCA   SOP           ENM   O  L  CAS   OP  EN  MOLC  AS   O
    OPENMOLCA   SOPE           NM      O  LCA   S      OP  EN MO
    OPENMOLC                AS         O  PEN   M      OL  CA  SOPE
    OPENMO        LCASOPE  NMOL        C  ASO   P      ENMOLC     AS
    OPE     NMO      LCA  SO     P     E   NM   OL  CA SO  PE N   MO
          OPENMOLCA            SOPE   NMO        LCAS  O    P  ENMO
     OPENMOLCASOPENMOLCASOPENMOLCASOPENMOLCA
        OPENMOLCASOPENMOLCASOPENMOLCASOPE
            OPENMOLCASOPENMOLCASOPENM
               OPENMOLCASOPENMOLCA        version: ea724fe96-dirty
                   OPENMOLCASO
                       OPE                tag:

 OpenMolcas is free software; you can redistribute it and/or modify it
 under the terms of the GNU Lesser General Public License version 2.1.
 OpenMolcas is distributed in the hope that it will be useful, but it
 is provided "as is" and without any express or implied warranties.
 For more details see the full text of the license in the file
 LICENSE or in <http://www.gnu.org/licenses/>.

                 Copyright (C) The OpenMolcas Authors
           For the author list and the recommended citation,
                   consult the file CONTRIBUTORS.md

           *************************************************
           * pymolcas version py2.28                       *
           *   build c4a6d18ded8cb6cad61d2372a9abd97c      *
           *   (after the EMIL interpreter by V. Veryazov) *
           *************************************************

configuration info
------------------
C Compiler ID: Intel
C flags: -std=gnu99
Fortran Compiler ID: Intel
Fortran flags: -fpp -i8 -r8 -heap-arrays
Definitions: _MOLCAS_;_I8_;_LINUX_
Parallel: OFF (GA=OFF)


   ----------------------------------------------------------------------------------
  |
  |              Project: H12_2.76
  |       Submitted from: /home/grierjones/DDCASPT2/hydrogen_comps/H12_chain/H12_2.76
  |         Scratch area: /tmp/H12_2.76
  |      Save outputs to: /home/grierjones/DDCASPT2/hydrogen_comps/H12_chain/H12_2.76
  |               Molcas: /home/grierjones/Test/build
  |
  | Scratch area is empty
  |
  |       MOLCAS_DRIVER = /usr/local/pymolcas
  | MOLCAS_KEEP_WORKDIR = NO
  |  MOLCAS_NEW_WORKDIR = YES
  |       MOLCAS_NPROCS = 1
  |        MOLCAS_PRINT = NORMAL
  |       MOLCAS_SOURCE = /home/grierjones/Test/build
  |    MOLCAS_STRUCTURE = 0
  |
   ----------------------------------------------------------------------------------

++ ---------   Input file   ---------

&GATEWAY
coord=H12_2.76.xyz
Basis = ANO-RCC-VDZP
Group = nosymm
Expert
End of Input

&SEWARD
End of Input

&SCF

>>> COPY $WorkDir/H12_2.76.scf.h5 $CurrDir/

&RASSCF
Title= RASSCF
FileOrb
/home/grierjones/DDCASPT2/hydrogen_comps/H12_chain/H12_2.73/H12_2.73.RasOrb
NACTEL
12 0 0
Inactive
0
RAS2
12
Symmetry
1
Spin
1
orblisting
all
ITERation
300 200

>>> COPY $WorkDir/H12_2.76.rasscf.h5 $CurrDir/

>>> COPY $WorkDir/GMJ_Fock_MO.csv $CurrDir/H12_2.76.GMJ_Fock_MO.csv

>>> COPY $WorkDir/GMJ_PT2_Fock_MO.csv $CurrDir/H12_2.76.GMJ_PT2_Fock_MO.csv

&MOTRA
Frozen=0
LUMORB

>>> COPY $WorkDir/GMJ_one_int_indx.csv $CurrDir/H12_2.76.GMJ_one_int_indx.csv

>>> COPY $WorkDir/GMJ_one_int.csv $CurrDir/H12_2.76.GMJ_one_int.csv

>>> COPY $WorkDir/GMJ_two_int_indx.csv $CurrDir/H12_2.76.GMJ_two_int_indx.csv

>>> COPY $WorkDir/GMJ_two_int.csv $CurrDir/H12_2.76.GMJ_two_int.csv

&CASPT2
Frozen
0
MAXITER
50

>>> FOREACH i IN (B,E,F,G,H)

  >>> FOREACH j IN (P,M)

    >>> IF (-FILE GMJ_e2_${i}_${j}.csv)

      >>> COPY $WorkDir/GMJ_RHS_${i}_${j}.csv $CurrDir/GMJ_RHS_${i}_${j}.csv

      >>> COPY $WorkDir/GMJ_IVECW_${i}_${j}.csv $CurrDir/GMJ_IVECW_${i}_${j}.csv

      >>> COPY $WorkDir/GMJ_IVECX_${i}_${j}.csv $CurrDir/GMJ_IVECX_${i}_${j}.csv

      >>> COPY $WorkDir/GMJ_IVECC2_${i}_${j}.csv $CurrDir/GMJ_IVECC2_${i}_${j}.csv

      >>> COPY $WorkDir/GMJ_e2_${i}_${j}.csv $CurrDir/GMJ_e2_${i}_${j}.csv

    >>> END IF

  >>> END FOREACH

>>> END FOREACH

>>> FOREACH i IN (A,C,D)

  >>> IF (-FILE GMJ_e2_$i.csv)

    >>> COPY $WorkDir/GMJ_RHS_$i.csv $CurrDir/GMJ_RHS_$i.csv

    >>> COPY $WorkDir/GMJ_IVECW_$i.csv $CurrDir/GMJ_IVECW_$i.csv

    >>> COPY $WorkDir/GMJ_IVECX_$i.csv $CurrDir/GMJ_IVECX_$i.csv

    >>> COPY $WorkDir/GMJ_IVECC2_$i.csv $CurrDir/GMJ_IVECC2_$i.csv

    >>> COPY $WorkDir/GMJ_e2_$i.csv $CurrDir/GMJ_e2_$i.csv

  >>> END IF

>>> END FOREACH

-- ----------------------------------

--- Start Module: gateway at Tue Nov 19 09:33:59 2024 ---
 
()()()()()()()()()()()()()()()()()()()()()()()()()()()()()()()()()()()()()()()()()()()()()()()()()()

                                              &GATEWAY

                                   only a single process is used
                       available to each process: 2.0 GB of memory, 1 thread?
()()()()()()()()()()()()()()()()()()()()()()()()()()()()()()()()()()()()()()()()()()()()()()()()()()
 
 ###############################################################################
 ###############################################################################
 ###                                                                         ###
 ###                                                                         ###
 ###                                                                         ###
 ###    WARNING: EXPERT option is ON!                                        ###
 ###                                                                         ###
 ###                                                                         ###
 ###############################################################################
 ###############################################################################
 
++    Symmetry information:
      ---------------------
 
                    Character Table for C1 
 
                             E  
                    a        1  x, y, xy, Rz, z, xz, Ry, yz, Rx, I
--
 
 
++    Basis set information:
      ----------------------
 
 
      Basis set label: H.ANO-RCC...2S1P.
 
      Electronic valence basis set:
      ------------------
      Associated Effective Charge   1.000000 au
      Associated Actual Charge      1.000000 au
      Nuclear Model: Point charge
 
      Shell  nPrim  nBasis  Cartesian Spherical Contaminant
         s       8       2        X                  
         p       4       1        X                  
--
 
 
++    Molecular structure info:
      -------------------------
 
                    ************************************************ 
                    **** Cartesian Coordinates / Bohr, Angstrom **** 
                    ************************************************ 
 
     Center  Label                x              y              z                     x              y              z
        1      H1               0.000000       0.000000       0.000000              0.000000       0.000000       0.000000
        2      H2               0.000000       0.000000       5.211063              0.000000       0.000000       2.757576
        3      H3               0.000000       0.000000      10.422127              0.000000       0.000000       5.515152
        4      H4               0.000000       0.000000      15.633188              0.000000       0.000000       8.272727
        5      H5               0.000000       0.000000      20.844252              0.000000       0.000000      11.030303
        6      H6               0.000000       0.000000      26.055315              0.000000       0.000000      13.787879
        7      H7               0.000000       0.000000      31.266379              0.000000       0.000000      16.545455
        8      H8               0.000000       0.000000      36.477440              0.000000       0.000000      19.303030
        9      H9               0.000000       0.000000      41.688504              0.000000       0.000000      22.060606
       10      H10              0.000000       0.000000      46.899567              0.000000       0.000000      24.818182
       11      H11              0.000000       0.000000      52.110630              0.000000       0.000000      27.575758
       12      H12              0.000000       0.000000      57.321692              0.000000       0.000000      30.333333
 
                    *************************************** 
                    *    InterNuclear Distances / Bohr    * 
                    *************************************** 
 
               1 H1            2 H2            3 H3            4 H4            5 H5            6 H6    
    1 H1       0.000000
    2 H2       5.211063        0.000000
    3 H3      10.422127        5.211063        0.000000
    4 H4      15.633188       10.422125        5.211062        0.000000
    5 H5      20.844252       15.633188       10.422125        5.211063        0.000000
    6 H6      26.055315       20.844252       15.633188       10.422127        5.211063        0.000000
    7 H7      31.266379       26.055315       20.844252       15.633190       10.422127        5.211063
    8 H8      36.477440       31.266377       26.055313       20.844252       15.633188       10.422125
    9 H9      41.688504       36.477440       31.266377       26.055315       20.844252       15.633188
   10 H10     46.899567       41.688504       36.477440       31.266379       26.055315       20.844252
   11 H11     52.110630       46.899567       41.688504       36.477442       31.266379       26.055315
   12 H12     57.321692       52.110628       46.899565       41.688504       36.477440       31.266377
 
               7 H7            8 H8            9 H9           10 H10          11 H11          12 H12   
    7 H7       0.000000
    8 H8       5.211062        0.000000
    9 H9      10.422125        5.211063        0.000000
   10 H10     15.633188       10.422127        5.211063        0.000000
   11 H11     20.844252       15.633190       10.422127        5.211063        0.000000
   12 H12     26.055313       20.844252       15.633188       10.422125        5.211062        0.000000
 
                    ******************************************* 
                    *    InterNuclear Distances / Angstrom    * 
                    ******************************************* 
 
               1 H1            2 H2            3 H3            4 H4            5 H5            6 H6    
    1 H1       0.000000
    2 H2       2.757576        0.000000
    3 H3       5.515152        2.757576        0.000000
    4 H4       8.272727        5.515151        2.757575        0.000000
    5 H5      11.030303        8.272727        5.515151        2.757576        0.000000
    6 H6      13.787879       11.030303        8.272727        5.515152        2.757576        0.000000
    7 H7      16.545455       13.787879       11.030303        8.272728        5.515152        2.757576
    8 H8      19.303030       16.545454       13.787878       11.030303        8.272727        5.515151
    9 H9      22.060606       19.303030       16.545454       13.787879       11.030303        8.272727
   10 H10     24.818182       22.060606       19.303030       16.545455       13.787879       11.030303
   11 H11     27.575758       24.818182       22.060606       19.303031       16.545455       13.787879
   12 H12     30.333333       27.575757       24.818181       22.060606       19.303030       16.545454
 
               7 H7            8 H8            9 H9           10 H10          11 H11          12 H12   
    7 H7       0.000000
    8 H8       2.757575        0.000000
    9 H9       5.515151        2.757576        0.000000
   10 H10      8.272727        5.515152        2.757576        0.000000
   11 H11     11.030303        8.272728        5.515152        2.757576        0.000000
   12 H12     13.787878       11.030303        8.272727        5.515151        2.757575        0.000000
--
 
 
            Nuclear Potential Energy              4.84325915 au
 
 ###############################################################################
 ###############################################################################
 ###                                                                         ###
 ###                                                                         ###
 ###    There were warnings during the execution                             ###
 ###    Please, check the output with care!                                  ###
 ###                                                                         ###
 ###                                                                         ###
 ###############################################################################
 ###############################################################################
--- Stop Module: gateway at Tue Nov 19 09:33:59 2024 /rc=_RC_ALL_IS_WELL_ ---
*** files: xmldump
    saved to directory /home/grierjones/DDCASPT2/hydrogen_comps/H12_chain/H12_2.76

--- Start Module: seward at Tue Nov 19 09:33:59 2024 ---
 
()()()()()()()()()()()()()()()()()()()()()()()()()()()()()()()()()()()()()()()()()()()()()()()()()()

                                              &SEWARD

                                   only a single process is used
                       available to each process: 2.0 GB of memory, 1 thread?
()()()()()()()()()()()()()()()()()()()()()()()()()()()()()()()()()()()()()()()()()()()()()()()()()()
 
 ###############################################################################
 ###############################################################################
 ###                                                                         ###
 ###                                                                         ###
 ###                                                                         ###
 ###    WARNING: EXPERT option is ON!                                        ###
 ###                                                                         ###
 ###                                                                         ###
 ###############################################################################
 ###############################################################################
               SEWARD will generate:
                  Multipole Moment integrals up to order  2
                  Kinetic Energy integrals
                  Nuclear Attraction integrals (point charge)
                  One-Electron Hamiltonian integrals
                  Velocity integrals
                  Relativistic Douglas-Kroll-Hess integrals:
                    - Parametrization         : EXP
                    - DKH order of Hamiltonian: 2
                    - DKH order of Properties : 0
                         - multipole moment operators
                         - electric potential operators
                         - contact operators
                  Atomic mean-field integrals
                  Two-Electron Repulsion integrals
 
                   Integrals are discarded if absolute value <: 0.10E-13
                   Integral cutoff threshold is set to       <: 0.10E-15
 
            Nuclear Potential Energy              4.84325915 au
 
 
      Basis set specifications :
      Symmetry species         a  
      Basis functions           60
 
 
  Input file to MOLDEN was generated!
 
 ###############################################################################
 ###############################################################################
 ###                                                                         ###
 ###                                                                         ###
 ###    There were warnings during the execution                             ###
 ###    Please, check the output with care!                                  ###
 ###                                                                         ###
 ###                                                                         ###
 ###############################################################################
 ###############################################################################
--- Stop Module: seward at Tue Nov 19 09:34:00 2024 /rc=_RC_ALL_IS_WELL_ ---
*** files: H12_2.76.GssOrb H12_2.76.guessorb.h5 H12_2.76.guessorb.molden xmldump
    saved to directory /home/grierjones/DDCASPT2/hydrogen_comps/H12_chain/H12_2.76

*** symbolic link created: INPORB -> H12_2.76.GssOrb
--- Start Module: scf at Tue Nov 19 09:34:00 2024 ---
 
()()()()()()()()()()()()()()()()()()()()()()()()()()()()()()()()()()()()()()()()()()()()()()()()()()

                                                &SCF

                                   only a single process is used
                       available to each process: 2.0 GB of memory, 1 thread?
()()()()()()()()()()()()()()()()()()()()()()()()()()()()()()()()()()()()()()()()()()()()()()()()()()
 
++    Input section:
      --------------
 
      Header of the integral files:
      
       Integrals generated by seward 4.2.0  , Tue Nov 19 09:33:59 2024
 
 
      Cartesian coordinates in Angstrom:
      -----------------------------------------------------
      No.  Label        X            Y            Z        
      -----------------------------------------------------
       1   H1         0.00000000   0.00000000   0.00000000
       2   H2         0.00000000   0.00000000   2.75757600
       3   H3         0.00000000   0.00000000   5.51515200
       4   H4         0.00000000   0.00000000   8.27272700
       5   H5         0.00000000   0.00000000  11.03030300
       6   H6         0.00000000   0.00000000  13.78787900
       7   H7         0.00000000   0.00000000  16.54545500
       8   H8         0.00000000   0.00000000  19.30303000
       9   H9         0.00000000   0.00000000  22.06060600
      10   H10        0.00000000   0.00000000  24.81818200
      11   H11        0.00000000   0.00000000  27.57575800
      12   H12        0.00000000   0.00000000  30.33333300
      -----------------------------------------------------
      Nuclear repulsion energy =    4.84325915
--
 
++    Orbital specifications:
      -----------------------
 
      Symmetry species               1
                                     a
      Frozen orbitals                0
      Occupied orbitals              6
      Secondary orbitals            54
      Deleted orbitals               0
      Total number of orbitals      60
      Number of basis functions     60
--
 
      Molecular charge                           0.000
 
++    Optimization specifications:
      ----------------------------
 
      SCF Algorithm: Conventional
      Minimized density differences are used
      Number of density matrices in core                5
      Maximum number of NDDO SCF iterations           400
      Maximum number of HF SCF iterations             400
      Threshold for SCF energy change            0.10E-08
      Threshold for density matrix               0.10E-03
      Threshold for Fock matrix                  0.15E-03
      Threshold for linear dependence            0.10E-08
      Threshold at which DIIS is turned on       0.15E+00
      Threshold at which QNR/C2DIIS is turned on 0.75E-01
      Threshold for Norm(delta) (QNR/C2DIIS)     0.20E-04
      DIIS extrapolation of the SCF procedure
      All orbitals punched on: SCFORB
--
 
      Input vectors read from INPORB
      Orbital file label: *Guess orbitals
 
 
++ Convergence information
                                   SCF        iterations: Energy and convergence statistics
 
Iter     Tot. SCF        One-elec.       Two-elec.     Energy      Max Dij or  Max Fij      DNorm      TNorm      AccCon     Time
         Energy          Energy          Energy        Change      Delta Norm                                                in Sec.
   1    -4.683294232   -15.808132148     6.281578768   0.00E+00    0.41E+00*   0.13E+00*    0.55E+01   0.10E+02   None         0.
   2    -5.056562927   -15.751589988     5.851767912  -0.37E+00*   0.17E+00*   0.25E-01*    0.17E+01   0.96E+01   EDIIS        0.
   3    -5.076287839   -15.664618660     5.745071673  -0.20E-01*   0.11E+00*   0.92E-02*    0.44E+00   0.95E+01   EDIIS        0.
   4    -5.081845972   -15.668432215     5.743327094  -0.56E-02*   0.10E+00*   0.17E-01*    0.22E+00   0.96E+01   c2DIIS       0.
   5    -5.084634934   -15.632174433     5.704280351  -0.28E-02*   0.27E-01*   0.35E-02*    0.22E+00   0.95E+01   c2DIIS       0.
   6    -5.086254922   -15.650709550     5.721195480  -0.16E-02*   0.12E-01*   0.14E-02*    0.52E-01   0.95E+01   QNRc2DIIS    0.
   7    -5.086325708   -15.655954274     5.726369417  -0.71E-04*   0.85E-02*   0.90E-03*    0.16E-01   0.96E+01   QNRc2DIIS    0.
   8    -5.086358854   -15.655018530     5.725400527  -0.33E-04*   0.67E-02*   0.38E-03*    0.68E-02   0.96E+01   QNRc2DIIS    0.
   9    -5.086365455   -15.653929011     5.724304408  -0.66E-05*   0.11E-02*   0.14E-03     0.54E-02   0.96E+01   QNRc2DIIS    0.
  10    -5.086366317   -15.653916583     5.724291117  -0.86E-06*   0.16E-03*   0.27E-04     0.11E-02   0.96E+01   QNRc2DIIS    0.
  11    -5.086366333   -15.653874845     5.724249363  -0.16E-07*   0.30E-04*   0.45E-05     0.13E-03   0.96E+01   QNRc2DIIS    0.
  12    -5.086366334   -15.653878651     5.724253169  -0.36E-09    0.13E-04    0.24E-05     0.20E-04   0.96E+01   QNRc2DIIS    0.
 
       Convergence after 12 Macro Iterations
--
 
 *****************************************************************************************************************************
 *                                                                                                                           *
 *                                             SCF/KS-DFT Program, Final results                                             *
 *                                                                                                                           *
 *                                                                                                                           *
 *                                                                                                                           *
 *                                                       Final Results                                                       *
 *                                                                                                                           *
 *****************************************************************************************************************************
 
::    Total SCF energy                                 -5.0863663338
      One-electron energy                             -15.6538786511
      Two-electron energy                               5.7242531687
      Nuclear repulsion energy                          4.8432591485
      Kinetic energy (interpolated)                     3.9405874411
      Virial theorem                                    1.2907634737
      Total spin, S(S+1)                                0.0000000000
      Total spin, S                                     0.0000000000
      Max non-diagonal density matrix element           0.0000133509
      Max non-diagonal Fock matrix element              0.0000010848
 
 
      All orbitals with orbital energies smaller than  E(LUMO)+0.5 are printed
 
++    Molecular orbitals:
      -------------------
 
      Title: SCF orbitals

      Molecular orbitals for symmetry species 1: a  
 
          Orbital            1         2         3         4         5         6         7         8         9        10    
          Energy           -0.3750   -0.3686   -0.3589   -0.3464   -0.3326   -0.3211   -0.1614   -0.1454   -0.1263   -0.1076
          Occ. No.          2.0000    2.0000    2.0000    2.0000    2.0000    2.0000    0.0000    0.0000    0.0000    0.0000
 
        1 H1     1s         0.0992   -0.1992    0.2849   -0.3348    0.3223   -0.2104    0.2252   -0.3673    0.4119   -0.3764
        2 H1     2s         0.0198   -0.0402    0.0585   -0.0706    0.0700   -0.0469    0.0674   -0.1132    0.1307   -0.1220
        3 H1     2px       -0.0000    0.0000   -0.0000    0.0000   -0.0000    0.0000    0.0000   -0.0000    0.0000    0.0000
        4 H1     2py       -0.0000   -0.0000    0.0000    0.0000    0.0000   -0.0000   -0.0000    0.0000   -0.0000    0.0000
        5 H1     2pz        0.0031   -0.0058    0.0077   -0.0080    0.0068   -0.0040   -0.0015    0.0039   -0.0067    0.0086
        6 H2     1s         0.1317   -0.2506    0.3288   -0.3426    0.2854   -0.1635   -0.1164    0.2591   -0.3890    0.4465
        7 H2     2s         0.0218   -0.0461    0.0694   -0.0838    0.0801   -0.0508   -0.0303    0.0774   -0.1265    0.1511
        8 H2     2px       -0.0000    0.0000   -0.0000    0.0000   -0.0000    0.0000    0.0000   -0.0000    0.0000   -0.0000
        9 H2     2py       -0.0000   -0.0000   -0.0000   -0.0000   -0.0000   -0.0000   -0.0000   -0.0000    0.0000    0.0000
       10 H2     2pz       -0.0005    0.0019   -0.0042    0.0070   -0.0085    0.0064   -0.0083    0.0118   -0.0097    0.0043
       11 H3     1s         0.2313   -0.3304    0.2205    0.0532   -0.3074    0.3067   -0.3331    0.3425   -0.0551   -0.2956
       12 H3     2s         0.0462   -0.0646    0.0385    0.0238   -0.0823    0.0797   -0.1021    0.1057   -0.0133   -0.1020
       13 H3     2px       -0.0000    0.0000    0.0000    0.0000    0.0000   -0.0000   -0.0000   -0.0000    0.0000   -0.0000
       14 H3     2py       -0.0000   -0.0000   -0.0000   -0.0000   -0.0000    0.0000   -0.0000   -0.0000   -0.0000   -0.0000
       15 H3     2pz        0.0041   -0.0045    0.0004    0.0054   -0.0084    0.0062    0.0064   -0.0113    0.0108   -0.0040
       16 H4     1s         0.2562   -0.3233    0.1430    0.1561   -0.3423    0.2709    0.2505   -0.3965    0.2678    0.1101
       17 H4     2s         0.0456   -0.0660    0.0398    0.0264   -0.0845    0.0768    0.0723   -0.1262    0.0924    0.0340
       18 H4     2px       -0.0000    0.0000   -0.0000    0.0000    0.0000    0.0000    0.0000   -0.0000    0.0000   -0.0000
       19 H4     2py       -0.0000    0.0000   -0.0000    0.0000    0.0000   -0.0000   -0.0000   -0.0000   -0.0000   -0.0000
       20 H4     2pz       -0.0023    0.0050   -0.0057    0.0013    0.0062   -0.0082    0.0110   -0.0079   -0.0040    0.0106
       21 H5     1s         0.3194   -0.1850   -0.2158    0.3042    0.0885   -0.3468    0.3764   -0.0672   -0.3924    0.2732
       22 H5     2s         0.0615   -0.0302   -0.0536    0.0655    0.0318   -0.0927    0.1137   -0.0158   -0.1315    0.0895
       23 H5     2px       -0.0000   -0.0000    0.0000   -0.0000    0.0000    0.0000   -0.0000   -0.0000   -0.0000   -0.0000
       24 H5     2py       -0.0000   -0.0000   -0.0000   -0.0000   -0.0000   -0.0000   -0.0000    0.0000   -0.0000   -0.0000
       25 H5     2pz        0.0045   -0.0001   -0.0062    0.0032    0.0060   -0.0081   -0.0098    0.0101    0.0018   -0.0107
       26 H6     1s         0.3289   -0.1241   -0.2779    0.2399    0.1841   -0.3346   -0.3462    0.2583    0.2504   -0.4067
       27 H6     2s         0.0612   -0.0319   -0.0538    0.0634    0.0382   -0.0918   -0.1027    0.0865    0.0790   -0.1385
       28 H6     2px       -0.0000    0.0000   -0.0000   -0.0000    0.0000   -0.0000    0.0000   -0.0000    0.0000   -0.0000
       29 H6     2py       -0.0000   -0.0000    0.0000   -0.0000   -0.0000   -0.0000    0.0000    0.0000    0.0000    0.0000
       30 H6     2pz       -0.0038    0.0044    0.0020   -0.0073   -0.0001    0.0089   -0.0115   -0.0017    0.0117   -0.0002
       31 H7     1s         0.3289    0.1242   -0.2779   -0.2399    0.1841    0.3346   -0.3462   -0.2583    0.2504    0.4067
       32 H7     2s         0.0612    0.0319   -0.0538   -0.0634    0.0382    0.0918   -0.1027   -0.0865    0.0790    0.1385
       33 H7     2px        0.0000    0.0000    0.0000   -0.0000   -0.0000    0.0000    0.0000    0.0000    0.0000    0.0000
       34 H7     2py       -0.0000    0.0000   -0.0000   -0.0000   -0.0000    0.0000   -0.0000    0.0000    0.0000    0.0000
       35 H7     2pz        0.0038    0.0044   -0.0020   -0.0073    0.0001    0.0089    0.0115   -0.0017   -0.0117   -0.0002
       36 H8     1s         0.3194    0.1850   -0.2158   -0.3042    0.0885    0.3468    0.3764    0.0672   -0.3924   -0.2732
       37 H8     2s         0.0615    0.0302   -0.0536   -0.0655    0.0318    0.0927    0.1137    0.0158   -0.1315   -0.0895
       38 H8     2px       -0.0000    0.0000    0.0000    0.0000    0.0000   -0.0000   -0.0000   -0.0000   -0.0000    0.0000
       39 H8     2py        0.0000   -0.0000   -0.0000   -0.0000   -0.0000   -0.0000    0.0000    0.0000   -0.0000    0.0000
       40 H8     2pz       -0.0045   -0.0001    0.0062    0.0032   -0.0060   -0.0081    0.0098    0.0101   -0.0018   -0.0107
       41 H9     1s         0.2562    0.3233    0.1430   -0.1561   -0.3423   -0.2709    0.2505    0.3965    0.2678   -0.1101
       42 H9     2s         0.0456    0.0660    0.0398   -0.0264   -0.0845   -0.0768    0.0723    0.1262    0.0924   -0.0340
       43 H9     2px       -0.0000   -0.0000    0.0000   -0.0000   -0.0000    0.0000   -0.0000    0.0000   -0.0000    0.0000
       44 H9     2py        0.0000    0.0000    0.0000   -0.0000   -0.0000    0.0000    0.0000    0.0000   -0.0000    0.0000
       45 H9     2pz        0.0023    0.0050    0.0057    0.0013   -0.0062   -0.0082   -0.0110   -0.0079    0.0040    0.0106
       46 H10    1s         0.2313    0.3304    0.2205   -0.0532   -0.3074   -0.3067   -0.3331   -0.3425   -0.0551    0.2956
       47 H10    2s         0.0462    0.0646    0.0385   -0.0238   -0.0823   -0.0797   -0.1021   -0.1057   -0.0133    0.1020
       48 H10    2px        0.0000    0.0000    0.0000    0.0000   -0.0000   -0.0000    0.0000    0.0000    0.0000   -0.0000
       49 H10    2py        0.0000   -0.0000   -0.0000    0.0000   -0.0000    0.0000    0.0000    0.0000   -0.0000    0.0000
       50 H10    2pz       -0.0041   -0.0045   -0.0004    0.0054    0.0084    0.0062   -0.0064   -0.0113   -0.0108   -0.0040
       51 H11    1s         0.1317    0.2506    0.3288    0.3426    0.2854    0.1635   -0.1164   -0.2591   -0.3890   -0.4465
       52 H11    2s         0.0218    0.0461    0.0694    0.0838    0.0801    0.0508   -0.0303   -0.0774   -0.1265   -0.1511
       53 H11    2px        0.0000   -0.0000   -0.0000   -0.0000   -0.0000   -0.0000   -0.0000   -0.0000   -0.0000   -0.0000
       54 H11    2py        0.0000   -0.0000   -0.0000   -0.0000   -0.0000    0.0000    0.0000   -0.0000   -0.0000   -0.0000
       55 H11    2pz        0.0005    0.0019    0.0042    0.0070    0.0085    0.0064    0.0083    0.0118    0.0097    0.0043
       56 H12    1s         0.0992    0.1992    0.2849    0.3348    0.3223    0.2104    0.2252    0.3673    0.4119    0.3764
       57 H12    2s         0.0198    0.0402    0.0585    0.0706    0.0700    0.0469    0.0674    0.1132    0.1307    0.1220
       58 H12    2px       -0.0000   -0.0000   -0.0000   -0.0000    0.0000    0.0000    0.0000    0.0000    0.0000    0.0000
       59 H12    2py       -0.0000   -0.0000    0.0000    0.0000   -0.0000   -0.0000   -0.0000   -0.0000    0.0000    0.0000
       60 H12    2pz       -0.0031   -0.0058   -0.0077   -0.0080   -0.0068   -0.0040    0.0015    0.0039    0.0067    0.0086
 
          Orbital           11        12        13        14        15    
          Energy           -0.0922   -0.0824    0.3144    0.3205    0.3306
          Occ. No.          0.0000    0.0000    0.0000    0.0000    0.0000
 
        1 H1     1s         0.2850   -0.1548   -0.0663    0.1187   -0.1430
        2 H1     2s         0.0934   -0.0508    0.1213   -0.2329    0.3172
        3 H1     2px       -0.0000   -0.0000    0.0000   -0.0000    0.0000
        4 H1     2py       -0.0000   -0.0000    0.0000    0.0000   -0.0000
        5 H1     2pz       -0.0083    0.0052   -0.0023    0.0038   -0.0041
        6 H2     1s        -0.3962    0.2352   -0.1136    0.1834   -0.1830
        7 H2     2s        -0.1356    0.0804    0.1431   -0.2434    0.2644
        8 H2     2px        0.0000    0.0000    0.0000   -0.0000    0.0000
        9 H2     2py       -0.0000   -0.0000    0.0000    0.0000   -0.0000
       10 H2     2pz        0.0005   -0.0019    0.0018   -0.0023    0.0000
       11 H3     1s         0.4670   -0.3434   -0.1359    0.1821   -0.1129
       12 H3     2s         0.1579   -0.1151    0.1866   -0.2649    0.1811
       13 H3     2px        0.0000   -0.0000    0.0000   -0.0000   -0.0000
       14 H3     2py        0.0000   -0.0000    0.0000    0.0000   -0.0000
       15 H3     2pz       -0.0040    0.0057   -0.0013    0.0021   -0.0036
       16 H4     1s        -0.4366    0.3955   -0.1638    0.1606   -0.0043
       17 H4     2s        -0.1472    0.1338    0.2207   -0.2301    0.0084
       18 H4     2px        0.0000   -0.0000   -0.0000   -0.0000    0.0000
       19 H4     2py       -0.0000    0.0000   -0.0000    0.0000   -0.0000
       20 H4     2pz       -0.0067    0.0009    0.0026   -0.0012   -0.0039
       21 H5     1s         0.2731   -0.4515   -0.1797    0.1118    0.0970
       22 H5     2s         0.0938   -0.1518    0.2453   -0.1608   -0.1562
       23 H5     2px       -0.0000    0.0000    0.0000    0.0000    0.0000
       24 H5     2py        0.0000   -0.0000   -0.0000   -0.0000   -0.0000
       25 H5     2pz        0.0038    0.0048   -0.0023    0.0027   -0.0020
       26 H6     1s        -0.1324    0.4692   -0.1901    0.0368    0.1681
       27 H6     2s        -0.0431    0.1582    0.2585   -0.0541   -0.2668
       28 H6     2px       -0.0000   -0.0000   -0.0000    0.0000    0.0000
       29 H6     2py        0.0000    0.0000   -0.0000   -0.0000   -0.0000
       30 H6     2pz       -0.0085    0.0032    0.0027    0.0012   -0.0031
       31 H7     1s        -0.1324   -0.4692   -0.1901   -0.0368    0.1681
       32 H7     2s        -0.0431   -0.1582    0.2585    0.0541   -0.2668
       33 H7     2px        0.0000   -0.0000   -0.0000   -0.0000   -0.0000
       34 H7     2py       -0.0000   -0.0000    0.0000   -0.0000    0.0000
       35 H7     2pz        0.0085    0.0032   -0.0027    0.0012    0.0031
       36 H8     1s         0.2731    0.4515   -0.1797   -0.1118    0.0970
       37 H8     2s         0.0938    0.1518    0.2453    0.1608   -0.1562
       38 H8     2px        0.0000    0.0000   -0.0000   -0.0000    0.0000
       39 H8     2py       -0.0000    0.0000   -0.0000    0.0000   -0.0000
       40 H8     2pz       -0.0038    0.0048    0.0023    0.0027    0.0020
       41 H9     1s        -0.4366   -0.3955   -0.1638   -0.1606   -0.0043
       42 H9     2s        -0.1472   -0.1338    0.2207    0.2301    0.0084
       43 H9     2px       -0.0000    0.0000    0.0000   -0.0000    0.0000
       44 H9     2py        0.0000    0.0000   -0.0000   -0.0000    0.0000
       45 H9     2pz        0.0067    0.0009   -0.0026   -0.0012    0.0039
       46 H10    1s         0.4670    0.3434   -0.1359   -0.1821   -0.1129
       47 H10    2s         0.1579    0.1151    0.1866    0.2649    0.1811
       48 H10    2px       -0.0000    0.0000    0.0000   -0.0000    0.0000
       49 H10    2py       -0.0000    0.0000    0.0000    0.0000   -0.0000
       50 H10    2pz        0.0040    0.0057    0.0013    0.0021    0.0036
       51 H11    1s        -0.3962   -0.2352   -0.1136   -0.1834   -0.1830
       52 H11    2s        -0.1356   -0.0804    0.1431    0.2434    0.2644
       53 H11    2px       -0.0000    0.0000   -0.0000   -0.0000   -0.0000
       54 H11    2py       -0.0000   -0.0000   -0.0000    0.0000    0.0000
       55 H11    2pz       -0.0005   -0.0019   -0.0018   -0.0023   -0.0000
       56 H12    1s         0.2850    0.1548   -0.0663   -0.1187   -0.1430
       57 H12    2s         0.0934    0.0508    0.1213    0.2329    0.3172
       58 H12    2px        0.0000    0.0000    0.0000   -0.0000    0.0000
       59 H12    2py       -0.0000    0.0000    0.0000    0.0000    0.0000
       60 H12    2pz        0.0083    0.0052    0.0023    0.0038    0.0041
--
 
 
++    Molecular charges:
      ------------------
 
      Mulliken charges per centre and basis function type
      ---------------------------------------------------
 
                H1      H2      H3      H4      H5      H6      H7      H8      H9      H10     H11     H12   
      1s       0.8817  0.9233  0.9029  0.9095  0.9051  0.9068  0.9068  0.9051  0.9095  0.9029  0.9233  0.8817
      2s       0.0898  0.0972  0.0901  0.0919  0.0911  0.0914  0.0914  0.0911  0.0919  0.0901  0.0972  0.0898
      2px      0.0000  0.0000  0.0000  0.0000  0.0000  0.0000  0.0000  0.0000  0.0000  0.0000  0.0000  0.0000
      2pz      0.0029  0.0033  0.0033  0.0032  0.0033  0.0032  0.0032  0.0033  0.0032  0.0033  0.0033  0.0029
      2py      0.0000  0.0000  0.0000  0.0000  0.0000  0.0000  0.0000  0.0000  0.0000  0.0000  0.0000  0.0000
      Total    0.9744  1.0237  0.9963  1.0047  0.9995  1.0014  1.0014  0.9995  1.0047  0.9963  1.0237  0.9744
 
      N-E      0.0256 -0.0237  0.0037 -0.0047  0.0005 -0.0014 -0.0014  0.0005 -0.0047  0.0037 -0.0237  0.0256
 
      Total electronic charge=   12.000000
 
      Total            charge=   -0.000000
--
 
 
  Input file to MOLDEN was generated!
 
 
++    Static properties:
      ------------------
 
 
      LoProp Charges per center
 

                   H1       H2       H3       H4       H5       H6       H7       H8       H9       H10   
      Nuclear      1.0000   1.0000   1.0000   1.0000   1.0000   1.0000   1.0000   1.0000   1.0000   1.0000
      Electronic  -0.9829  -1.0145  -0.9972  -1.0044  -0.9996  -1.0014  -1.0014  -0.9996  -1.0044  -0.9972
 
      Total        0.0171  -0.0145   0.0028  -0.0044   0.0004  -0.0014  -0.0014   0.0004  -0.0044   0.0028
 

                   H11      H12   
      Nuclear      1.0000   1.0000
      Electronic  -1.0145  -0.9829
 
      Total       -0.0145   0.0171
--
 
 
++    Natural Bond Order analysis
      ---------------------------
      Based on LoProp computed density
      -------------------------------------------------------------------------------------
      Atom A       Atom B       Bond Order
      -------------------------------------------------------------------------------------
      NBO located      0.975 non-bonded electrons on atom H1        
      NBO located      1.003 non-bonded electrons on atom H3        
      NBO located      1.011 non-bonded electrons on atom H4        
      NBO located      1.005 non-bonded electrons on atom H5        
      NBO located      1.007 non-bonded electrons on atom H6        
      NBO located      1.007 non-bonded electrons on atom H7        
      NBO located      1.005 non-bonded electrons on atom H8        
      NBO located      1.011 non-bonded electrons on atom H9        
      NBO located      1.003 non-bonded electrons on atom H10       
      NBO located      0.975 non-bonded electrons on atom H12       
      The remaining    1.999 electrons are to be considered as diffuse
--
 
 
++    Molecular properties:
      ---------------------
 
      Charge (e):
                      =   -0.0000
      Dipole Moment (Debye):
      Origin of the operator (Ang)=    0.0000    0.0000    0.0000
                   X=  1.7156E-13               Y= -3.6333E-14               Z= -1.8621E-07           Total=  1.8621E-07
      Quadrupole Moment (Debye*Ang):
      Origin of the operator (Ang)=    0.0000    0.0000   15.1667
                  XX= -2.9345E+01              XY=  3.5669E-28              XZ= -2.4039E-12              YY= -2.9345E+01
                  YZ=  5.2656E-13              ZZ=  4.5451E+00
      In traceless form (Debye*Ang)
                  XX= -1.6945E+01              XY=  5.3503E-28              XZ= -3.6058E-12              YY= -1.6945E+01
                  YZ=  7.8984E-13              ZZ=  3.3890E+01
--
 
 
  Input file to MOLDEN was generated!
 
 ###############################################################################
 ###############################################################################
 ###                                                                         ###
 ###                                                                         ###
 ###    RunFile label nBas                                                   ###
 ###    was used       78 times                                              ###
 ###                                                                         ###
 ###                                                                         ###
 ###############################################################################
 ###############################################################################
--- Stop Module: scf at Tue Nov 19 09:34:00 2024 /rc=_RC_ALL_IS_WELL_ ---
*** files: H12_2.76.LprOrb H12_2.76.LoProp.molden H12_2.76.scf.molden H12_2.76.ScfOrb H12_2.76.scf.h5 xmldump
    saved to directory /home/grierjones/DDCASPT2/hydrogen_comps/H12_chain/H12_2.76

>>> COPY /tmp/H12_2.76/H12_2.76.scf.h5 /home/grierjones/DDCASPT2/hydrogen_comps/H12_chain/H12_2.76/

*** symbolic link created: INPORB -> H12_2.76.ScfOrb
--- Start Module: rasscf at Tue Nov 19 09:34:00 2024 ---
 
()()()()()()()()()()()()()()()()()()()()()()()()()()()()()()()()()()()()()()()()()()()()()()()()()()

                                              &RASSCF

                                   only a single process is used
                       available to each process: 2.0 GB of memory, 1 thread?
()()()()()()()()()()()()()()()()()()()()()()()()()()()()()()()()()()()()()()()()()()()()()()()()()()
 
 
 *************** WARNING ****************
 ###############################################################################
 ###############################################################################
 ###                                                                         ###
 ###                                                                         ###
 ###    Too many macro-iterations.                                           ###
 ###                                                                         ###
 ###                                                                         ###
 ###############################################################################
 ###############################################################################
 Too many macro-iterations requested.
 Reset to maximum, new MAXIT=     200
 ****************************************
 
 *************** WARNING ****************
 ###############################################################################
 ###############################################################################
 ###                                                                         ###
 ###                                                                         ###
 ###    Too many SX-iterations.                                              ###
 ###                                                                         ###
 ###                                                                         ###
 ###############################################################################
 ###############################################################################
 Too many SX-iterations requested.
 Reset to maximum, new ITMAX=     100
 ****************************************
 
      Header of the ONEINT file:
      --------------------------
      
      Integrals generated by seward 4.2.0  , Tue Nov 19 09:33:59 2024
 
 
      OrdInt status: non-squared
 
 
      Cartesian coordinates in Angstrom:
      -----------------------------------------------------
      No.  Label        X            Y            Z        
      -----------------------------------------------------
       1   H1         0.00000000   0.00000000   0.00000000
       2   H2         0.00000000   0.00000000   2.75757600
       3   H3         0.00000000   0.00000000   5.51515200
       4   H4         0.00000000   0.00000000   8.27272700
       5   H5         0.00000000   0.00000000  11.03030300
       6   H6         0.00000000   0.00000000  13.78787900
       7   H7         0.00000000   0.00000000  16.54545500
       8   H8         0.00000000   0.00000000  19.30303000
       9   H9         0.00000000   0.00000000  22.06060600
      10   H10        0.00000000   0.00000000  24.81818200
      11   H11        0.00000000   0.00000000  27.57575800
      12   H12        0.00000000   0.00000000  30.33333300
      -----------------------------------------------------
      Nuclear repulsion energy =    4.84325915
 
++    Wave function specifications:
      -----------------------------
 
      Number of closed shell electrons           0
      Number of electrons in active shells      12
      Max number of holes in RAS1 space          0
      Max nr of electrons in RAS3 space          0
      Number of inactive orbitals                0
      Number of active orbitals                 12
      Number of secondary orbitals              48
      Spin quantum number                      0.0
      State symmetry                             1
--
 
++    Orbital specifications:
      -----------------------
 
      Symmetry species                           1
                                                 a
      Frozen orbitals                            0
      Inactive orbitals                          0
      Active orbitals                           12
      RAS1 orbitals                              0
      RAS2 orbitals                             12
      RAS3 orbitals                              0
      Secondary orbitals                        48
      Deleted orbitals                           0
      Number of basis functions                 60
--
 
++    CI expansion specifications:
      ----------------------------
 
      Number of CSFs                        226512
      Number of determinants                427350
      Number of root(s) required                 1
      Root chosen for geometry opt.              1
      CI root used                               1
         
      highest root included in the CI            1
      max. size of the explicit Hamiltonian    200
--
 
++    Optimization specifications:
      ----------------------------
 
      RASSCF algorithm: Conventional
      Maximum number of macro iterations       200
      Maximum number of SX iterations          100
      Threshold for RASSCF energy            0.100E-07
      Threshold for max MO rotation          0.100E+00
      Threshold for max BLB element          0.100E-03
      Level shift parameter                  0.500E+00
      Make Quasi-Newton update
--
 
      The MO-coefficients are taken from the file:
      /home/grierjones/DDCASPT2/hydrogen_comps/H12_chain/H12_2.73/H12_2.73.RasOrb                                                     
      Title: RASSCF average (pseudo-natural) orbitals                                      
 
      Total molecular charge    0.00
 
      ************************************************************************************************************************
      *                                                                                                                      *
      *                                            Wave function control section                                             *
      *                                                                                                                      *
      ************************************************************************************************************************
 
 
                                         RASSCF iterations: Energy and convergence statistics
                                         ----------------------------------------------------
 
      Iter CI   SX   CI       RASSCF       Energy    max ROT     max BLB   max BLB  Level Ln srch  Step   QN   Walltime
          iter iter root      energy       change     param      element    value   shift minimum  type update hh:mm:ss
 Nr of preliminary CI iterations:  10
        1   1    4    1    -5.99032745    0.00E+00   0.85E-03    6  20 1 -0.61E-03*  0.00   0.00    SX    NO    0:00:13
        2   1    4    1    -5.99033106   -0.36E-05*  0.36E-03    1  13 1  0.23E-03*  0.00   0.00    SX    NO    0:00:02
        3   2    3    1    -5.99034201   -0.11E-04*  0.14E-03    6  18 1 -0.89E-04   0.00   0.00    SX    NO    0:00:03
        No convergence in the CI section: MAXJT will be increased to 
                    60
        4  48    4    1    -5.99056864   -0.23E-03* -0.34E-03    9  19 1  0.21E-03*  0.00   0.00    SX    NO    0:00:45
        5  36    3    1    -5.99062835   -0.60E-04*  0.94E-04    6  18 1  0.11E-03*  0.00   1.00    QN   YES    0:00:34
        6  30    3    1    -5.99063850   -0.10E-04* -0.71E-03    9  19 1 -0.13E-03*  0.00   1.00    QN   YES    0:00:28
        No convergence in the CI section: MAXJT will be increased to 
                    96
        7  84    4    1    -5.99063959   -0.11E-05*  0.55E-03    6  18 1 -0.41E-03*  0.00   0.73    QN   YES    0:01:17
        No convergence in the CI section: MAXJT will be increased to 
                   108
        8  96    4    1    -5.99064324   -0.36E-05*  0.13E-03    6  20 1  0.15E-03*  0.00   0.93    QN   YES    0:01:29
        No convergence in the CI section: MAXJT will be increased to 
                   120
        9 108    3    1    -5.99064403   -0.79E-06*  0.25E-03    6  20 1  0.10E-03*  0.01   1.05    QN   YES    0:01:40
        No convergence in the CI section: MAXJT will be increased to 
                   132
       10 120    3    1    -5.99064453   -0.50E-06* -0.65E-04    6  18 1 -0.54E-04   0.01   0.96    QN   YES    0:01:51
       11  78    3    1    -5.99064464   -0.11E-06* -0.23E-04    5  21 1  0.22E-04   0.01   0.99    QN   YES    0:01:12
       12   2    3    1    -5.99064465   -0.78E-08   0.80E-05    9  19 1 -0.67E-05   0.01   1.09    QN   YES    0:00:03
      Convergence after 12 iterations
 
  Dmat in MO in SXCTL bf call to SXHAM                                                                                    
  mat. size =    12x   12
 
        1.2681121784108718
       -0.0000000037301510      1.2508467405048951
        0.0000049509197230     -0.0000000083236881      1.2225241721684530
        0.0000000126582658     -0.0000129489938015      0.0000001758934441      1.1842325759153376
        0.0000164024910284     -0.0000001667346347     -0.0000347404090434      0.0000002366319303      1.1383152092962168
        0.0000000917862809      0.0000061811687078      0.0000002162266590     -0.0000757064450243     -0.0000000221747043
        1.0890808302069006
       -0.0000671200845158     -0.0000000382907614     -0.0007600314340576     -0.0000000002562285      0.0009529414794374
        0.0000000149103026      0.8164804429641047
        0.0000000234998964     -0.0005586372084948      0.0000000015176263     -0.0008278959901750      0.0000000508145855
       -0.0001238988449484      0.0000001754291319      0.7768386696123637
        0.0000267788935609      0.0000001867287163      0.0000967934873577      0.0000000132260191      0.0008908439847762
       -0.0000000002124863     -0.0000340403552008     -0.0000002187421952      0.9134498434275606
        0.0000001419497267      0.0001047101475509      0.0000000521889382     -0.0008993367665794      0.0000000011527576
        0.0009086726517905     -0.0000002334161200      0.0000017070556907     -0.0000000215212684      0.8635351085495050
       -0.0003276793445638     -0.0000000000378188      0.0006102590085581     -0.0000000409393176      0.0001450747869669
       -0.0000001834264046     -0.0000029697005191      0.0000000137672805     -0.0000167420121741     -0.0000001661281375
        0.7472939113814255
       -0.0000000001010376     -0.0003498603612474      0.0000000231462170      0.0000955203739662     -0.0000001414593427
        0.0000400988295603     -0.0000000175198607     -0.0000033736504152      0.0000000908718262     -0.0000080636369399
       -0.0000000036605499      0.7292903175633790
       13   1    3    1    -5.99064465   -0.33E-09   0.80E-05    6  18 1  0.61E-06   0.01   1.09    QN   YES    0:00:03
 
      ************************************************************************************************************************
                                                      Wave function printout:
                       occupation of active orbitals, and spin coupling of open shells (u,d: Spin up or down)
      ************************************************************************************************************************
 
      Note: transformation to natural orbitals
      has been made, which may change the order of the CSFs.
 
      printout of CI-coefficients larger than  0.05 for root  1
      energy=      -5.990645
      conf/sym  111111111111     Coeff  Weight
             1  222222000000  -0.17065 0.02912
            43  222220002000   0.08771 0.00769
            67  2222ud00ud00   0.09668 0.00935
            83  222u2du0d000  -0.07824 0.00612
           105  22u22d0ud000  -0.06825 0.00466
           134  2u222d00u0d0   0.06313 0.00399
           160  u2222d00u00d   0.07806 0.00609
           173  222202000200   0.06140 0.00377
           191  222ud2u00d00  -0.07610 0.00579
           213  22u2d20u0d00  -0.06577 0.00433
           240  2u22d2000ud0   0.06820 0.00465
           266  u222d2000u0d   0.05897 0.00348
           269  222022200000   0.05017 0.00252
           291  22ud22ud0000   0.07066 0.00499
           321  2u2d22u000d0  -0.05954 0.00354
           347  u22d22u0000d  -0.05666 0.00321
           385  2ud2220u00d0  -0.05931 0.00352
           411  u2d2220u000d  -0.05679 0.00323
           456  ud22220000ud   0.05942 0.00353
          5623  222200002200  -0.05518 0.00304
          5721  222ud0u02d00  -0.05749 0.00331
          7713  22udududud00  -0.05521 0.00305
 
      Natural orbitals and occupation numbers for root  1
      sym 1:   1.268112   1.250848   1.222526   1.184237   1.138322   1.089084   0.816476   0.776836   0.913446   0.863529
               0.747293   0.729290
 
      ************************************************************************************************************************
      *                                                                                                                      *
      *                                                    Final results                                                     *
      *                                                                                                                      *
      ************************************************************************************************************************
 
 
++    Wave function specifications:
      -----------------------------
 
      Number of closed shell electrons           0
      Number of electrons in active shells      12
      Max number of holes in RAS1 space          0
      Max nr of electrons in RAS3 space          0
      Number of inactive orbitals                0
      Number of active orbitals                 12
      Number of secondary orbitals              48
      Spin quantum number                      0.0
      State symmetry                             1
--
 
++    Orbital specifications:
      -----------------------
 
      Symmetry species                           1
                                                 a
      Frozen orbitals                            0
      Inactive orbitals                          0
      Active orbitals                           12
      RAS1 orbitals                              0
      RAS2 orbitals                             12
      RAS3 orbitals                              0
      Secondary orbitals                        48
      Deleted orbitals                           0
      Number of basis functions                 60
--
 
++    CI expansion specifications:
      ----------------------------
 
      Number of CSFs                        226512
      Number of determinants                427350
      Number of root(s) required                 1
      CI root used                               1
      highest root included in the CI            1
      Root passed to geometry opt.               1
--
 
++    Final optimization conditions:
      ------------------------------
 
      Average CI energy                              -5.99064465
      RASSCF energy for state  1                     -5.99064465
      Super-CI energy                                -0.00000000
      RASSCF energy change                            0.00000000
      Max change in MO coefficients               0.438E-05
      Max non-diagonal density matrix element     0.803E-05
      Maximum BLB matrix element                  0.608E-06
      (orbital pair   6,  18 in symmetry   1)
      Norm of electronic gradient            0.184E-05
--
 
 
      Final state energy(ies):
      ------------------------
 
::    RASSCF root number  1 Total energy:     -5.99064465
 
++    Molecular orbitals:
      -------------------
 
      Pseudonatural active orbitals and approximate occupation numbers
 
 
 
 
      Molecular orbitals for symmetry species 1: a  
 
 
      Orbital                1         2         3         4         5         6         7         8         9        10
      Energy            0.0000    0.0000    0.0000    0.0000    0.0000    0.0000    0.0000    0.0000    0.0000    0.0000
      Occ. No.          1.2681    1.2508    1.2225    1.1842    1.1383    1.0891    0.8165    0.7768    0.9134    0.8635
 
    1 H1     1s         0.1255    0.2353    0.3145   -0.3490    0.3240   -0.2235    0.3929    0.3634   -0.2368   -0.3541
    2 H1     2s         0.0094    0.0178    0.0241   -0.0273    0.0261   -0.0187    0.0447    0.0442   -0.0235   -0.0376
    3 H1     2px        0.0000   -0.0000   -0.0000    0.0000   -0.0000    0.0000    0.0000    0.0000   -0.0000    0.0000
    4 H1     2py        0.0000   -0.0000    0.0000   -0.0000    0.0000   -0.0000   -0.0000   -0.0000   -0.0000   -0.0000
    5 H1     2pz        0.0003    0.0005    0.0005   -0.0004    0.0002   -0.0001    0.0013    0.0017   -0.0003   -0.0008
    6 H2     1s         0.1757    0.3081    0.3660   -0.3387    0.2403   -0.1113   -0.3748   -0.4359    0.0951    0.2403
    7 H2     2s         0.0112    0.0216    0.0296   -0.0326    0.0285   -0.0170   -0.0457   -0.0620    0.0043    0.0224
    8 H2     2px       -0.0000   -0.0000   -0.0000   -0.0000   -0.0000    0.0000   -0.0000    0.0000   -0.0000   -0.0000
    9 H2     2py       -0.0000   -0.0000    0.0000   -0.0000    0.0000    0.0000    0.0000    0.0000   -0.0000   -0.0000
   10 H2     2pz        0.0003    0.0004    0.0001    0.0003   -0.0006    0.0004    0.0007    0.0004   -0.0002   -0.0006
   11 H3     1s         0.2492    0.3411    0.2121    0.0657   -0.3145    0.3436   -0.0552    0.2711    0.3598    0.3333
   12 H3     2s         0.0178    0.0236    0.0122    0.0113   -0.0327    0.0347   -0.0029    0.0436    0.0407    0.0385
   13 H3     2px       -0.0000   -0.0000   -0.0000   -0.0000   -0.0000    0.0000    0.0000   -0.0000   -0.0000   -0.0000
   14 H3     2py        0.0000   -0.0000    0.0000    0.0000    0.0000   -0.0000   -0.0000   -0.0000   -0.0000    0.0000
   15 H3     2pz       -0.0000   -0.0003   -0.0006    0.0006   -0.0003   -0.0001   -0.0009   -0.0003    0.0001    0.0007
   16 H4     1s         0.2857    0.3213    0.0739    0.2450   -0.3708    0.2329    0.2960   -0.0755   -0.2286   -0.4055
   17 H4     2s         0.0191    0.0242    0.0095    0.0169   -0.0344    0.0272    0.0437   -0.0080   -0.0216   -0.0498
   18 H4     2px       -0.0000   -0.0000    0.0000   -0.0000   -0.0000   -0.0000    0.0000   -0.0000   -0.0000   -0.0000
   19 H4     2py        0.0000   -0.0000    0.0000    0.0000   -0.0000    0.0000   -0.0000   -0.0000   -0.0000    0.0000
   20 H4     2pz        0.0003    0.0000   -0.0006    0.0006    0.0000   -0.0003    0.0003    0.0011    0.0005    0.0005
   21 H5     1s         0.3248    0.1953   -0.2150    0.3263    0.0465   -0.3800   -0.3858   -0.2503   -0.3933   -0.0330
   22 H5     2s         0.0226    0.0117   -0.0192    0.0253    0.0091   -0.0393   -0.0549   -0.0350   -0.0431    0.0005
   23 H5     2px        0.0000   -0.0000   -0.0000    0.0000   -0.0000   -0.0000    0.0000    0.0000   -0.0000    0.0000
   24 H5     2py        0.0000   -0.0000    0.0000    0.0000    0.0000    0.0000   -0.0000    0.0000   -0.0000    0.0000
   25 H5     2pz       -0.0001   -0.0005   -0.0004   -0.0003    0.0006   -0.0001   -0.0001   -0.0011   -0.0003   -0.0007
   26 H6     1s         0.3381    0.0965   -0.3161    0.1980    0.2583   -0.3359    0.2170    0.3897    0.3416    0.2969
   27 H6     2s         0.0231    0.0093   -0.0226    0.0199    0.0202   -0.0362    0.0267    0.0598    0.0358    0.0403
   28 H6     2px       -0.0000   -0.0000    0.0000    0.0000    0.0000   -0.0000    0.0000    0.0000   -0.0000   -0.0000
   29 H6     2py        0.0000   -0.0000    0.0000    0.0000    0.0000    0.0000    0.0000   -0.0000    0.0000    0.0000
   30 H6     2pz        0.0003   -0.0004   -0.0004   -0.0005    0.0004    0.0002   -0.0011   -0.0000   -0.0005    0.0002
   31 H7     1s         0.3381   -0.0965   -0.3161   -0.1980    0.2583    0.3359    0.2170   -0.3897    0.3416   -0.2969
   32 H7     2s         0.0231   -0.0093   -0.0226   -0.0199    0.0202    0.0362    0.0267   -0.0598    0.0358   -0.0403
   33 H7     2px        0.0000    0.0000    0.0000    0.0000   -0.0000    0.0000   -0.0000    0.0000   -0.0000    0.0000
   34 H7     2py        0.0000    0.0000   -0.0000   -0.0000   -0.0000    0.0000   -0.0000   -0.0000    0.0000    0.0000
   35 H7     2pz       -0.0003   -0.0004    0.0004   -0.0005   -0.0004    0.0002    0.0011   -0.0000    0.0005    0.0002
   36 H8     1s         0.3248   -0.1953   -0.2150   -0.3263    0.0465    0.3800   -0.3858    0.2503   -0.3933    0.0330
   37 H8     2s         0.0226   -0.0117   -0.0192   -0.0253    0.0091    0.0393   -0.0549    0.0350   -0.0431   -0.0005
   38 H8     2px        0.0000    0.0000   -0.0000   -0.0000    0.0000   -0.0000    0.0000   -0.0000    0.0000   -0.0000
   39 H8     2py        0.0000    0.0000   -0.0000   -0.0000    0.0000   -0.0000   -0.0000    0.0000   -0.0000    0.0000
   40 H8     2pz        0.0001   -0.0005    0.0004   -0.0003   -0.0006   -0.0001    0.0001   -0.0011    0.0003   -0.0007
   41 H9     1s         0.2857   -0.3213    0.0739   -0.2450   -0.3708   -0.2329    0.2960    0.0755   -0.2286    0.4055
   42 H9     2s         0.0191   -0.0242    0.0095   -0.0169   -0.0344   -0.0272    0.0437    0.0080   -0.0216    0.0498
   43 H9     2px       -0.0000    0.0000   -0.0000    0.0000    0.0000   -0.0000   -0.0000    0.0000    0.0000   -0.0000
   44 H9     2py       -0.0000    0.0000    0.0000   -0.0000   -0.0000    0.0000    0.0000    0.0000    0.0000   -0.0000
   45 H9     2pz       -0.0003    0.0000    0.0006    0.0006   -0.0000   -0.0003   -0.0003    0.0011   -0.0005    0.0005
   46 H10    1s         0.2492   -0.3411    0.2121   -0.0657   -0.3145   -0.3436   -0.0552   -0.2711    0.3598   -0.3333
   47 H10    2s         0.0178   -0.0236    0.0122   -0.0113   -0.0327   -0.0347   -0.0029   -0.0436    0.0407   -0.0385
   48 H10    2px       -0.0000    0.0000    0.0000   -0.0000    0.0000   -0.0000    0.0000   -0.0000    0.0000   -0.0000
   49 H10    2py       -0.0000    0.0000    0.0000    0.0000   -0.0000   -0.0000    0.0000    0.0000    0.0000    0.0000
   50 H10    2pz        0.0000   -0.0003    0.0006    0.0006    0.0003   -0.0001    0.0009   -0.0003   -0.0001    0.0007
   51 H11    1s         0.1757   -0.3081    0.3660    0.3387    0.2403    0.1113   -0.3748    0.4359    0.0951   -0.2403
   52 H11    2s         0.0112   -0.0216    0.0296    0.0326    0.0285    0.0170   -0.0457    0.0620    0.0043   -0.0224
   53 H11    2px       -0.0000    0.0000    0.0000    0.0000    0.0000    0.0000    0.0000   -0.0000    0.0000    0.0000
   54 H11    2py       -0.0000   -0.0000    0.0000   -0.0000   -0.0000   -0.0000    0.0000   -0.0000    0.0000    0.0000
   55 H11    2pz       -0.0003    0.0004   -0.0001    0.0003    0.0006    0.0004   -0.0007    0.0004    0.0002   -0.0006
   56 H12    1s         0.1255   -0.2353    0.3145    0.3490    0.3240    0.2235    0.3929   -0.3634   -0.2368    0.3541
   57 H12    2s         0.0094   -0.0178    0.0241    0.0273    0.0261    0.0187    0.0447   -0.0442   -0.0235    0.0376
   58 H12    2px       -0.0000    0.0000   -0.0000    0.0000   -0.0000   -0.0000   -0.0000   -0.0000    0.0000    0.0000
   59 H12    2py        0.0000    0.0000   -0.0000    0.0000    0.0000   -0.0000    0.0000   -0.0000    0.0000    0.0000
   60 H12    2pz       -0.0003    0.0005   -0.0005   -0.0004   -0.0002   -0.0001   -0.0013    0.0017    0.0003   -0.0008
 
 
      Orbital               11        12        13        14        15        16        17        18        19        20
      Energy            0.0000    0.0000    0.3250    0.3306    0.3407    0.3561    0.3777    0.4068    0.4436    0.4927
      Occ. No.          0.7473    0.7293    0.0000    0.0000    0.0000    0.0000    0.0000    0.0000    0.0000    0.0000
 
    1 H1     1s         0.2779   -0.1506   -0.0506   -0.0842    0.0926   -0.0768   -0.0430    0.0012    0.0461   -0.0860
    2 H1     2s         0.0356   -0.0200    0.1305    0.2398   -0.3195    0.3724    0.4046    0.4218    0.4170   -0.3962
    3 H1     2px       -0.0000    0.0000    0.0000    0.0000   -0.0000   -0.0000   -0.0000   -0.0000   -0.0000    0.0000
    4 H1     2py       -0.0000    0.0000    0.0000   -0.0000    0.0000    0.0000    0.0000   -0.0000   -0.0000   -0.0000
    5 H1     2pz        0.0016   -0.0010   -0.0010   -0.0016    0.0018   -0.0023   -0.0043   -0.0096   -0.0194    0.0372
    6 H2     1s        -0.3868    0.2280   -0.0901   -0.1403    0.1359   -0.0908   -0.0352    0.0003   -0.0034    0.0477
    7 H2     2s        -0.0606    0.0377    0.1548    0.2548   -0.2717    0.2057    0.0726   -0.1047   -0.2896    0.4587
    8 H2     2px       -0.0000   -0.0000    0.0000    0.0000   -0.0000    0.0000    0.0000    0.0000   -0.0000    0.0000
    9 H2     2py       -0.0000    0.0000    0.0000    0.0000    0.0000   -0.0000    0.0000    0.0000   -0.0000    0.0000
   10 H2     2pz        0.0000    0.0002    0.0004    0.0001    0.0019   -0.0073   -0.0170   -0.0301   -0.0411    0.0424
   11 H3     1s         0.4296   -0.3159   -0.1084   -0.1382    0.0768    0.0181    0.0737    0.0595    0.0086    0.0119
   12 H3     2s         0.0687   -0.0515    0.1954    0.2696   -0.1766   -0.0371   -0.2685   -0.4033   -0.3526    0.1042
   13 H3     2px       -0.0000   -0.0000    0.0000    0.0000   -0.0000    0.0000    0.0000    0.0000   -0.0000    0.0000
   14 H3     2py        0.0000   -0.0000   -0.0000    0.0000   -0.0000   -0.0000    0.0000   -0.0000   -0.0000   -0.0000
   15 H3     2pz        0.0006   -0.0008    0.0005   -0.0001    0.0029   -0.0074   -0.0088    0.0019    0.0312   -0.0769
   16 H4     1s        -0.3982    0.3680   -0.1251   -0.1215    0.0036    0.0965    0.0872    0.0153   -0.0066   -0.0454
   17 H4     2s        -0.0624    0.0614    0.2257    0.2326   -0.0023   -0.2664   -0.3259   -0.0800    0.3055   -0.5242
   18 H4     2px       -0.0000    0.0000    0.0000    0.0000   -0.0000   -0.0000    0.0000   -0.0000   -0.0000    0.0000
   19 H4     2py       -0.0000    0.0000   -0.0000    0.0000    0.0000   -0.0000    0.0000    0.0000   -0.0000   -0.0000
   20 H4     2pz        0.0008   -0.0002    0.0004   -0.0009    0.0041   -0.0048    0.0053    0.0263    0.0346    0.0065
   21 H5     1s         0.2535   -0.4143   -0.1369   -0.0806   -0.0786    0.1121    0.0048   -0.0542   -0.0083    0.0142
   22 H5     2s         0.0424   -0.0684    0.2461    0.1583    0.1685   -0.3070   -0.0309    0.3600    0.3357    0.1897
   23 H5     2px        0.0000   -0.0000   -0.0000   -0.0000   -0.0000    0.0000    0.0000   -0.0000   -0.0000    0.0000
   24 H5     2py       -0.0000   -0.0000   -0.0000    0.0000    0.0000   -0.0000   -0.0000    0.0000    0.0000   -0.0000
   25 H5     2pz       -0.0004   -0.0006    0.0001   -0.0016    0.0031    0.0025    0.0152    0.0110   -0.0317    0.0724
   26 H6     1s        -0.1119    0.4329   -0.1426   -0.0301   -0.1254    0.0510   -0.0783   -0.0384    0.0077    0.0350
   27 H6     2s        -0.0157    0.0719    0.2567    0.0549    0.2771   -0.1312    0.3042    0.2451   -0.3206    0.4221
   28 H6     2px       -0.0000    0.0000   -0.0000   -0.0000    0.0000    0.0000   -0.0000    0.0000   -0.0000    0.0000
   29 H6     2py        0.0000   -0.0000   -0.0000    0.0000    0.0000   -0.0000   -0.0000    0.0000   -0.0000   -0.0000
   30 H6     2pz        0.0010   -0.0004    0.0002   -0.0018    0.0014    0.0072    0.0083   -0.0208   -0.0332   -0.0467
   31 H7     1s        -0.1119   -0.4329   -0.1426    0.0301   -0.1254   -0.0510   -0.0783    0.0384    0.0077   -0.0350
   32 H7     2s        -0.0157   -0.0719    0.2567   -0.0549    0.2771    0.1312    0.3042   -0.2451   -0.3206   -0.4221
   33 H7     2px        0.0000   -0.0000   -0.0000   -0.0000    0.0000    0.0000    0.0000    0.0000    0.0000   -0.0000
   34 H7     2py        0.0000   -0.0000   -0.0000    0.0000   -0.0000   -0.0000   -0.0000   -0.0000    0.0000   -0.0000
   35 H7     2pz       -0.0010   -0.0004   -0.0002   -0.0018   -0.0014    0.0072   -0.0083   -0.0208    0.0332   -0.0467
   36 H8     1s         0.2535    0.4143   -0.1369    0.0806   -0.0786   -0.1121    0.0048    0.0542   -0.0083   -0.0142
   37 H8     2s         0.0424    0.0684    0.2461   -0.1583    0.1685    0.3070   -0.0309   -0.3600    0.3357   -0.1897
   38 H8     2px       -0.0000    0.0000   -0.0000   -0.0000    0.0000   -0.0000   -0.0000    0.0000    0.0000    0.0000
   39 H8     2py        0.0000    0.0000    0.0000   -0.0000    0.0000   -0.0000   -0.0000   -0.0000   -0.0000   -0.0000
   40 H8     2pz        0.0004   -0.0006   -0.0001   -0.0016   -0.0031    0.0025   -0.0152    0.0110    0.0317    0.0724
   41 H9     1s        -0.3982   -0.3680   -0.1251    0.1215    0.0036   -0.0965    0.0872   -0.0153   -0.0066    0.0454
   42 H9     2s        -0.0624   -0.0614    0.2257   -0.2326   -0.0023    0.2664   -0.3259    0.0800    0.3055    0.5242
   43 H9     2px        0.0000    0.0000   -0.0000   -0.0000   -0.0000    0.0000   -0.0000    0.0000    0.0000    0.0000
   44 H9     2py        0.0000    0.0000    0.0000   -0.0000   -0.0000   -0.0000    0.0000   -0.0000   -0.0000    0.0000
   45 H9     2pz       -0.0008   -0.0002   -0.0004   -0.0009   -0.0041   -0.0048   -0.0053    0.0263   -0.0346    0.0065
   46 H10    1s         0.4296    0.3159   -0.1084    0.1382    0.0768   -0.0181    0.0737   -0.0595    0.0086   -0.0119
   47 H10    2s         0.0687    0.0515    0.1954   -0.2696   -0.1766    0.0371   -0.2685    0.4033   -0.3526   -0.1042
   48 H10    2px        0.0000    0.0000    0.0000   -0.0000   -0.0000   -0.0000   -0.0000    0.0000    0.0000    0.0000
   49 H10    2py        0.0000   -0.0000    0.0000   -0.0000   -0.0000    0.0000    0.0000   -0.0000    0.0000   -0.0000
   50 H10    2pz       -0.0006   -0.0008   -0.0005   -0.0001   -0.0029   -0.0074    0.0088    0.0019   -0.0312   -0.0769
   51 H11    1s        -0.3868   -0.2280   -0.0901    0.1403    0.1359    0.0908   -0.0352   -0.0003   -0.0034   -0.0477
   52 H11    2s        -0.0606   -0.0377    0.1548   -0.2548   -0.2717   -0.2057    0.0726    0.1047   -0.2896   -0.4587
   53 H11    2px        0.0000   -0.0000    0.0000   -0.0000    0.0000   -0.0000   -0.0000    0.0000    0.0000   -0.0000
   54 H11    2py        0.0000    0.0000   -0.0000   -0.0000   -0.0000   -0.0000    0.0000   -0.0000    0.0000   -0.0000
   55 H11    2pz       -0.0000    0.0002   -0.0004    0.0001   -0.0019   -0.0073    0.0170   -0.0301    0.0411    0.0424
   56 H12    1s         0.2779    0.1506   -0.0506    0.0842    0.0926    0.0768   -0.0430   -0.0012    0.0461    0.0860
   57 H12    2s         0.0356    0.0200    0.1305   -0.2398   -0.3195   -0.3724    0.4046   -0.4218    0.4170    0.3962
   58 H12    2px       -0.0000    0.0000    0.0000   -0.0000    0.0000   -0.0000    0.0000   -0.0000    0.0000    0.0000
   59 H12    2py        0.0000    0.0000   -0.0000   -0.0000   -0.0000    0.0000   -0.0000   -0.0000   -0.0000   -0.0000
   60 H12    2pz       -0.0016   -0.0010    0.0010   -0.0016   -0.0018   -0.0023    0.0043   -0.0096    0.0194    0.0372
 
 
      Orbital               21        22        23        24        25        26        27        28        29        30
      Energy            0.5522    0.6213    0.6932    0.7594    0.7710    0.8768    0.8768    0.8827    0.8827    0.8924
      Occ. No.          0.0000    0.0000    0.0000    0.0000    0.0000    0.0000    0.0000    0.0000    0.0000    0.0000
 
    1 H1     1s         0.1129   -0.1197   -0.1034    0.0944    0.0716    0.0000   -0.0000   -0.0000   -0.0000    0.0000
    2 H1     2s         0.3649   -0.3099   -0.2313    0.1880    0.1391    0.0000   -0.0000   -0.0000    0.0000    0.0000
    3 H1     2px       -0.0000    0.0000    0.0000   -0.0000   -0.0000    0.0725   -0.0520   -0.1733    0.0096    0.1512
    4 H1     2py       -0.0000    0.0000   -0.0000    0.0000    0.0000   -0.0520   -0.0725   -0.0096   -0.1733   -0.1979
    5 H1     2pz       -0.0659    0.1075    0.1607   -0.2994   -0.2697   -0.0000    0.0000    0.0000   -0.0000   -0.0000
    6 H2     1s        -0.1114    0.1572    0.1488   -0.1085   -0.0709    0.0000    0.0000   -0.0000    0.0000   -0.0000
    7 H2     2s        -0.5706    0.5775    0.4541   -0.3060   -0.2012   -0.0000    0.0000    0.0000   -0.0000   -0.0000
    8 H2     2px       -0.0000    0.0000    0.0000   -0.0000   -0.0000    0.1429   -0.1023   -0.3117    0.0173    0.2303
    9 H2     2py        0.0000   -0.0000   -0.0000   -0.0000    0.0000   -0.1023   -0.1429   -0.0173   -0.3117   -0.3015
   10 H2     2pz       -0.0229   -0.0307   -0.1220    0.3271    0.3084   -0.0000   -0.0000    0.0000    0.0000    0.0000
   11 H3     1s         0.0435   -0.1401   -0.1774    0.1176    0.0631    0.0000    0.0000   -0.0000   -0.0000    0.0000
   12 H3     2s         0.2457   -0.5260   -0.5414    0.3251    0.1756    0.0000   -0.0000   -0.0000    0.0000    0.0000
   13 H3     2px       -0.0000    0.0000   -0.0000   -0.0000   -0.0000    0.2045   -0.1465   -0.3775    0.0210    0.1919
   14 H3     2py        0.0000   -0.0000   -0.0000   -0.0000    0.0000   -0.1465   -0.2045   -0.0210   -0.3775   -0.2513
   15 H3     2pz        0.1140   -0.0984    0.0067   -0.2664   -0.2780    0.0000    0.0000    0.0000    0.0000   -0.0000
   16 H4     1s         0.0599    0.0489    0.1644   -0.1158   -0.0465   -0.0000   -0.0000    0.0000   -0.0000   -0.0000
   17 H4     2s         0.3250    0.1792    0.4972   -0.3122   -0.1239   -0.0000    0.0000    0.0000   -0.0000   -0.0000
   18 H4     2px       -0.0000    0.0000   -0.0000    0.0000   -0.0000    0.2538   -0.1818   -0.3560    0.0198    0.0568
   19 H4     2py        0.0000   -0.0000   -0.0000   -0.0000   -0.0000   -0.1818   -0.2538   -0.0198   -0.3560   -0.0744
   20 H4     2pz       -0.1037    0.1852    0.1234    0.1877    0.2416    0.0000   -0.0000   -0.0000   -0.0000    0.0000
   21 H5     1s        -0.1095    0.0724   -0.1146    0.1112    0.0270    0.0000    0.0000   -0.0000    0.0000    0.0000
   22 H5     2s        -0.5848    0.2649   -0.3467    0.2983    0.0718    0.0000    0.0000   -0.0000    0.0000    0.0000
   23 H5     2px        0.0000    0.0000    0.0000   -0.0000   -0.0000    0.2884   -0.2065   -0.2524    0.0140   -0.1077
   24 H5     2py        0.0000   -0.0000    0.0000   -0.0000   -0.0000   -0.2065   -0.2884   -0.0140   -0.2524    0.1410
   25 H5     2pz       -0.0047   -0.1746   -0.2300   -0.1107   -0.2166   -0.0000   -0.0000    0.0000    0.0000   -0.0000
   26 H6     1s         0.0547   -0.1536    0.0413   -0.1087   -0.0091   -0.0000   -0.0000   -0.0000   -0.0000   -0.0000
   27 H6     2s         0.2850   -0.5701    0.1236   -0.2911   -0.0235   -0.0000   -0.0000    0.0000   -0.0000   -0.0000
   28 H6     2px       -0.0000    0.0000   -0.0000    0.0000   -0.0000    0.3061   -0.2192   -0.0913    0.0051   -0.2173
   29 H6     2py        0.0000    0.0000    0.0000   -0.0000   -0.0000   -0.2192   -0.3061   -0.0051   -0.0913    0.2845
   30 H6     2pz        0.1084    0.0708    0.2894    0.0365    0.2045    0.0000    0.0000   -0.0000   -0.0000   -0.0000
   31 H7     1s         0.0547    0.1536    0.0413    0.1087   -0.0091    0.0000   -0.0000   -0.0000    0.0000   -0.0000
   32 H7     2s         0.2850    0.5701    0.1236    0.2911   -0.0235    0.0000    0.0000   -0.0000    0.0000    0.0000
   33 H7     2px        0.0000    0.0000   -0.0000   -0.0000    0.0000    0.3061   -0.2192    0.0913   -0.0051   -0.2173
   34 H7     2py       -0.0000   -0.0000    0.0000   -0.0000   -0.0000   -0.2192   -0.3061    0.0051    0.0913    0.2845
   35 H7     2pz       -0.1084    0.0708   -0.2894    0.0365   -0.2045   -0.0000    0.0000    0.0000    0.0000    0.0000
   36 H8     1s        -0.1095   -0.0724   -0.1146   -0.1112    0.0270    0.0000    0.0000    0.0000    0.0000   -0.0000
   37 H8     2s        -0.5848   -0.2649   -0.3467   -0.2983    0.0718    0.0000   -0.0000   -0.0000   -0.0000   -0.0000
   38 H8     2px       -0.0000    0.0000    0.0000   -0.0000    0.0000    0.2884   -0.2065    0.2524   -0.0140   -0.1077
   39 H8     2py       -0.0000    0.0000    0.0000   -0.0000    0.0000   -0.2065   -0.2884    0.0140    0.2524    0.1410
   40 H8     2pz        0.0047   -0.1746    0.2300   -0.1107    0.2166   -0.0000   -0.0000   -0.0000   -0.0000   -0.0000
   41 H9     1s         0.0599   -0.0489    0.1644    0.1158   -0.0465    0.0000    0.0000    0.0000    0.0000    0.0000
   42 H9     2s         0.3250   -0.1792    0.4972    0.3122   -0.1239   -0.0000   -0.0000    0.0000    0.0000    0.0000
   43 H9     2px       -0.0000    0.0000    0.0000    0.0000   -0.0000    0.2538   -0.1818    0.3560   -0.0198    0.0568
   44 H9     2py       -0.0000    0.0000    0.0000    0.0000   -0.0000   -0.1818   -0.2538    0.0198    0.3560   -0.0744
   45 H9     2pz        0.1037    0.1852   -0.1234    0.1877   -0.2416   -0.0000    0.0000    0.0000   -0.0000   -0.0000
   46 H10    1s         0.0435    0.1401   -0.1774   -0.1176    0.0631    0.0000    0.0000   -0.0000    0.0000    0.0000
   47 H10    2s         0.2457    0.5260   -0.5414   -0.3251    0.1756    0.0000   -0.0000   -0.0000   -0.0000    0.0000
   48 H10    2px       -0.0000   -0.0000    0.0000    0.0000   -0.0000    0.2045   -0.1465    0.3775   -0.0210    0.1919
   49 H10    2py       -0.0000    0.0000    0.0000   -0.0000    0.0000   -0.1465   -0.2045    0.0210    0.3775   -0.2513
[...]
   44 H9     2py        0.2238    0.2485   -0.0000    0.0000    0.0000    0.0000   -0.0000    0.0000    0.0000    0.0000
   45 H9     2pz        0.0000    0.0000    0.4069    0.1819   -0.2052    0.4268   -0.2837   -0.1133   -0.4240    0.3735
   46 H10    1s        -0.0000   -0.0000   -0.1439   -0.0503    0.0153   -0.0429    0.0374   -0.0139    0.0070   -0.0110
   47 H10    2s        -0.0000   -0.0000   -0.3375   -0.1113    0.0330   -0.0790    0.0586   -0.0163    0.0131   -0.0162
   48 H10    2px       -0.2004    0.1805    0.0000   -0.0000   -0.0000   -0.0000   -0.0000    0.0000    0.0000    0.0000
   49 H10    2py       -0.1805   -0.2004    0.0000    0.0000   -0.0000    0.0000    0.0000   -0.0000   -0.0000    0.0000
   50 H10    2pz       -0.0000   -0.0000   -0.2561   -0.4167   -0.4028    0.1998    0.1069   -0.3661   -0.4445    0.2983
   51 H11    1s         0.0000    0.0000    0.1777    0.1469    0.1089   -0.0703    0.0348   -0.0082    0.0057   -0.0069
   52 H11    2s         0.0000    0.0000    0.4142    0.3319    0.2321   -0.1402    0.0682   -0.0221    0.0001   -0.0046
   53 H11    2px        0.1408   -0.1268   -0.0000    0.0000    0.0000    0.0000    0.0000   -0.0000   -0.0000    0.0000
   54 H11    2py        0.1268    0.1408   -0.0000    0.0000    0.0000   -0.0000   -0.0000    0.0000   -0.0000   -0.0000
   55 H11    2pz       -0.0000   -0.0000   -0.1703   -0.0268    0.1511   -0.3174    0.4282   -0.4506   -0.3734    0.2111
   56 H12    1s        -0.0000   -0.0000   -0.0752   -0.0742   -0.0707    0.0656   -0.0583    0.0482    0.0347   -0.0182
   57 H12    2s        -0.0000   -0.0000   -0.1770   -0.1782   -0.1676    0.1484   -0.1228    0.0937    0.0629   -0.0316
   58 H12    2px       -0.0739    0.0665   -0.0000   -0.0000   -0.0000    0.0000   -0.0000    0.0000    0.0000    0.0000
   59 H12    2py       -0.0665   -0.0739   -0.0000   -0.0000    0.0000    0.0000    0.0000   -0.0000    0.0000    0.0000
   60 H12    2pz        0.0000    0.0000    0.3181    0.3573    0.3756   -0.3691    0.3348   -0.2758   -0.1961    0.1018
--
 
      Von Neumann Entropy (Root  1) =  5.82078
 

      Mulliken population analysis for root number:  1
      -----------------------------------------------
 
 
++    Molecular charges:
      ------------------
 
      Mulliken charges per centre and basis function type
      ---------------------------------------------------
 
                H1      H2      H3      H4      H5      H6      H7      H8      H9      H10     H11     H12   
      1s       0.9936  1.0008  1.0015  1.0012  1.0014  1.0013  1.0013  1.0014  1.0012  1.0015  1.0008  0.9936
      2s       0.0054  0.0002 -0.0015 -0.0012 -0.0013 -0.0012 -0.0012 -0.0013 -0.0012 -0.0015  0.0002  0.0054
      2px      0.0000  0.0000  0.0000  0.0000  0.0000  0.0000  0.0000  0.0000  0.0000  0.0000  0.0000  0.0000
      2pz     -0.0001  0.0000 -0.0000 -0.0000 -0.0000 -0.0000 -0.0000 -0.0000 -0.0000 -0.0000  0.0000 -0.0001
      2py      0.0000  0.0000  0.0000  0.0000  0.0000  0.0000  0.0000  0.0000  0.0000  0.0000  0.0000  0.0000
      Total    0.9990  1.0010  1.0000  1.0000  1.0000  1.0000  1.0000  1.0000  1.0000  1.0000  1.0010  0.9990
 
      N-E      0.0010 -0.0010  0.0000  0.0000  0.0000  0.0000  0.0000  0.0000  0.0000  0.0000 -0.0010  0.0010
 
      Total electronic charge=   12.000000
 
      Total            charge=   -0.000000
--
 
 

      Expectation values of various properties for root number:  1
      -----------------------------------------------------------
 
 
++    Molecular properties:
      ---------------------
 
      Charge (e):
                      =   -0.0000
      Dipole Moment (Debye):
      Origin of the operator (Ang)=    0.0000    0.0000    0.0000
                   X=  2.8314E-13               Y=  9.2824E-15               Z=  5.7969E-09           Total=  5.7969E-09
      Quadrupole Moment (Debye*Ang):
      Origin of the operator (Ang)=    0.0000    0.0000   15.1667
                  XX= -1.8131E+01              XY= -6.1835E-27              XZ= -1.2166E-12              YY= -1.8131E+01
                  YZ=  2.7985E-13              ZZ= -1.8359E+01
      In traceless form (Debye*Ang)
                  XX=  1.1381E-01              XY= -9.2753E-27              XZ= -1.8248E-12              YY=  1.1381E-01
                  YZ=  4.1977E-13              ZZ= -2.2763E-01
--
 

      LoProp population analysis for root number:  1
      -----------------------------------------------
 
 
++    LoProp analysis:
      ----------------
 
 
 
  Input file to MOLDEN was generated!
 
 
++    Static properties:
      ------------------
 
 
      LoProp Charges per center
 

                   H1       H2       H3       H4       H5       H6       H7       H8       H9       H10   
      Nuclear      1.0000   1.0000   1.0000   1.0000   1.0000   1.0000   1.0000   1.0000   1.0000   1.0000
      Electronic  -1.0001  -0.9999  -1.0000  -1.0000  -1.0000  -1.0000  -1.0000  -1.0000  -1.0000  -1.0000
 
      Total       -0.0001   0.0001   0.0000  -0.0000   0.0000  -0.0000  -0.0000   0.0000  -0.0000   0.0000
 

                   H11      H12   
      Nuclear      1.0000   1.0000
      Electronic  -0.9999  -1.0001
 
      Total        0.0001  -0.0001
--
 
 
      Natural Bond Order analysis for root number:  1
 
++    Natural Bond Order analysis
      ---------------------------
      Based on LoProp computed density
      -------------------------------------------------------------------------------------
      Atom A       Atom B       Bond Order
      -------------------------------------------------------------------------------------
      The remaining   12.000 electrons are to be considered as diffuse
--
 
--
 
 
  Input file to MOLDEN was generated!
 
      Average orbitals are written to the RASORB file
      Natural orbitals for root   1 are written to the RASORB.1 file
      Spin density orbitals for root   1 are written to the SPDORB.1 file
 
--- Stop Module: rasscf at Tue Nov 19 09:43:48 2024 /rc=_RC_ALL_IS_WELL_ ---
*** files: H12_2.76.LprOrb H12_2.76.rasscf.molden H12_2.76.LoProp.molden H12_2.76.RasOrb H12_2.76.RasOrb.1 H12_2.76.rasscf.h5 H12_2.76.SpdOrb.1 xmldump
    saved to directory /home/grierjones/DDCASPT2/hydrogen_comps/H12_chain/H12_2.76
--- Module rasscf spent 9 minutes 47 seconds ---

>>> COPY /tmp/H12_2.76/H12_2.76.rasscf.h5 /home/grierjones/DDCASPT2/hydrogen_comps/H12_chain/H12_2.76/

>>> COPY /tmp/H12_2.76/GMJ_Fock_MO.csv /home/grierjones/DDCASPT2/hydrogen_comps/H12_chain/H12_2.76/H12_2.76.GMJ_Fock_MO.csv

>>> COPY /tmp/H12_2.76/GMJ_PT2_Fock_MO.csv /home/grierjones/DDCASPT2/hydrogen_comps/H12_chain/H12_2.76/H12_2.76.GMJ_PT2_Fock_MO.csv

*** symbolic link created: INPORB -> H12_2.76.RasOrb
--- Start Module: motra at Tue Nov 19 09:43:48 2024 ---
 
()()()()()()()()()()()()()()()()()()()()()()()()()()()()()()()()()()()()()()()()()()()()()()()()()()

                                               &MOTRA

                                   only a single process is used
                       available to each process: 2.0 GB of memory, 1 thread?
()()()()()()()()()()()()()()()()()()()()()()()()()()()()()()()()()()()()()()()()()()()()()()()()()()
 
 
      *** WARNING: Default frozen orbitals is overwritten by user input.
      *** Default values:   0
 
      Header of the integral files:
      
       Integrals generated by seward 4.2.0  , Tue Nov 19 09:33:59 2024
 
 
      Header of MO coefficients source file:
      * RASSCF average (pseudo-natural) orbitals                                      
 
 
      Cartesian coordinates in Angstrom:
      -----------------------------------------------------
      No.  Label        X            Y            Z        
      -----------------------------------------------------
       1   H1         0.00000000   0.00000000   0.00000000
       2   H2         0.00000000   0.00000000   2.75757600
       3   H3         0.00000000   0.00000000   5.51515200
       4   H4         0.00000000   0.00000000   8.27272700
       5   H5         0.00000000   0.00000000  11.03030300
       6   H6         0.00000000   0.00000000  13.78787900
       7   H7         0.00000000   0.00000000  16.54545500
       8   H8         0.00000000   0.00000000  19.30303000
       9   H9         0.00000000   0.00000000  22.06060600
      10   H10        0.00000000   0.00000000  24.81818200
      11   H11        0.00000000   0.00000000  27.57575800
      12   H12        0.00000000   0.00000000  30.33333300
      -----------------------------------------------------
      Nuclear repulsion energy =    4.84325915
 
      Orbital specifications:
      -----------------------
 
      Symmetry species:              1
      Number of basis functions:    60
      Frozen orbitals:               0
      Deleted orbitals:              0
      Number of orbitals used:      60

       SYMMETRY  BASIS FUNCTIONS       ORBITALS      INTEGRALS   CPU(SEC)  I/O(SEC)
 
        1 1 1 1   60  60  60  60    60  60  60  60     1675365       0.00      0.00

       TOTAL CPU TIME(SEC)    0.72TOTAL I/O TIME(SEC)    2.15
 
--- Stop Module: motra at Tue Nov 19 09:43:50 2024 /rc=_RC_ALL_IS_WELL_ ---
*** files: xmldump
    saved to directory /home/grierjones/DDCASPT2/hydrogen_comps/H12_chain/H12_2.76
--- Module motra spent 2 seconds ---

>>> COPY /tmp/H12_2.76/GMJ_one_int_indx.csv /home/grierjones/DDCASPT2/hydrogen_comps/H12_chain/H12_2.76/H12_2.76.GMJ_one_int_indx.csv

>>> COPY /tmp/H12_2.76/GMJ_one_int.csv /home/grierjones/DDCASPT2/hydrogen_comps/H12_chain/H12_2.76/H12_2.76.GMJ_one_int.csv

>>> COPY /tmp/H12_2.76/GMJ_two_int_indx.csv /home/grierjones/DDCASPT2/hydrogen_comps/H12_chain/H12_2.76/H12_2.76.GMJ_two_int_indx.csv

>>> COPY /tmp/H12_2.76/GMJ_two_int.csv /home/grierjones/DDCASPT2/hydrogen_comps/H12_chain/H12_2.76/H12_2.76.GMJ_two_int.csv

*** symbolic link created: INPORB -> H12_2.76.RasOrb
--- Start Module: caspt2 at Tue Nov 19 09:43:50 2024 ---
 
()()()()()()()()()()()()()()()()()()()()()()()()()()()()()()()()()()()()()()()()()()()()()()()()()()

                                              &CASPT2

                                   only a single process is used
                       available to each process: 2.0 GB of memory, 1 thread?
()()()()()()()()()()()()()()()()()()()()()()()()()()()()()()()()()()()()()()()()()()()()()()()()()()
 
 Cholesky algorithm in CASPT2 =    1
 
 ###############################################################################
 ###############################################################################
 ###                                                                         ###
 ###                                                                         ###
 ###    User changed nr of frozen orbitals.                                  ###
 ###                                                                         ###
 ###                                                                         ###
 ###############################################################################
 ###############################################################################
 
++    Wave function specifications:
      -----------------------------
 
      Number of closed shell electrons           0
      Number of electrons in active shells      12
      Max number of holes in RAS1 space          0
      Max number of electrons in RAS3 space      0
      Number of inactive orbitals                0
      Number of active orbitals                 12
      Number of secondary orbitals              48
      Spin quantum number                      0.0
      State symmetry                             1
      Number of CSFs                        226512
      Number of root(s) available                1
      Root passed to geometry opt.               1
      A file JOBMIX will be created.
      This is a CASSCF or RASSCF reference function
--
 
++    Orbital specifications:
      -----------------------
 
      Symmetry species                           1
                                                 a
      Frozen orbitals                            0
      Inactive orbitals                          0
      Active orbitals                           12
      Secondary orbitals                        48
      Deleted orbitals                           0
      Number of basis functions                 60
--
 
      Type of Fock operator: STANDARD
      Type of 0-order Hamiltonian: STANDARD WITH DEFAULT IPEA
        "IP-EA" denominator shift =      0.25
      The input orbitals and the CI vector will be transformed.
 
--------------------------------------------------------------------------------
 Estimated memory requirements:
  POLY3 :                 54392696
  RHS:                     1916944
  SIGMA :                   616912
  PRPCTL:                        0
 Available workspace:    230179958
 
++ CASPT2 computation for group   1
 
********************************************************************************
 Multi-State initialization phase begins for group   1
--------------------------------------------------------------------------------
********************************************************************************
 Compute H0 matrices for state    1
--------------------------------------------------------------------------------
--------------------------------------------------------------------------------
 H0 matrices have been computed.
 
********************************************************************************
  CASPT2 EQUATION SOLUTION
--------------------------------------------------------------------------------
 
  Total nr of CASPT2 parameters:
   Before reduction:      249120
   After  reduction:      247872
 
 The contributions to the second order correlation energy in atomic units.
-----------------------------------------------------------------------------------------------------------------------------
  IT.      VJTU        VJTI        ATVX        AIVX        VJAI        BVAT        BJAT        BJAI        TOTAL       RNORM  
-----------------------------------------------------------------------------------------------------------------------------
   1     0.000000    0.000000   -0.000682    0.000000    0.000000   -0.001826    0.000000    0.000000   -0.002507    0.000699
   2     0.000000    0.000000   -0.000689    0.000000    0.000000   -0.001828    0.000000    0.000000   -0.002516    0.000150
   3     0.000000    0.000000   -0.000690    0.000000    0.000000   -0.001828    0.000000    0.000000   -0.002519    0.000051
   4     0.000000    0.000000   -0.000690    0.000000    0.000000   -0.001828    0.000000    0.000000   -0.002518    0.000011
   5     0.000000    0.000000   -0.000690    0.000000    0.000000   -0.001828    0.000000    0.000000   -0.002518    0.000003
-------------------------------------------------------------------------------------------------------------------
 
  FINAL CASPT2 RESULT:
 
  Correlation energy /Case, /Symm, and sums:
 VJTU      0.00000000  0.00000000
 VJTIP     0.00000000  0.00000000
 VJTIM     0.00000000  0.00000000
 ATVX     -0.00068966 -0.00068966
 AIVX      0.00000000  0.00000000
 VJAIP     0.00000000  0.00000000
 VJAIM     0.00000000  0.00000000
 BVATP    -0.00159780 -0.00159780
 BVATM    -0.00023032 -0.00023032
 BJATP     0.00000000  0.00000000
 BJATM     0.00000000  0.00000000
 BJAIP     0.00000000  0.00000000
 BJAIM     0.00000000  0.00000000
 Summed:  -0.00251778 -0.00251778
 
      Reference energy:          -5.9906446520
      E2 (Non-variational):      -0.0025177831
      E2 (Variational):          -0.0025177825
      Total energy:              -5.9931624345
      Residual norm:              0.0000005865
      Reference weight:           0.99835
 
      Contributions to the CASPT2 correlation energy
      Active & Virtual Only:         -0.0025177831
      One Inactive Excited:           0.0000000000
      Two Inactive Excited:           0.0000000000
 
 
++ Denominators, etc.
----------------------------------------------------------------------------------------------------
 Report on small energy denominators, large coefficients, and large energy contributions.
CASE  SYMM ACTIVE-MIX  NON-ACTIVE INDICES          DENOMINATOR     RHS VALUE       COEFFICIENT     CONTRIBUTION
--
 
   (Skipping property calculation,
    use PROP keyword to activate)
--
 
  Total CASPT2 energies:
::    CASPT2 Root  1     Total energy:     -5.99316243
 
  A NEW JOBIPH FILE NAMED 'JOBMIX' IS PREPARED.
********************************************************************************
--- Stop Module: caspt2 at Tue Nov 19 09:44:50 2024 /rc=_RC_ALL_IS_WELL_ ---
*** files: xmldump
    saved to directory /home/grierjones/DDCASPT2/hydrogen_comps/H12_chain/H12_2.76
--- Module caspt2 spent 59 seconds ---

>>> EXPORT i = B

>>> EXPORT j = P

>>> IF (-FILE GMJ_e2_${i}_${j}.csv)
(Skipped)

>>> END FOREACH

>>> EXPORT j = M

>>> IF (-FILE GMJ_e2_${i}_${j}.csv)
(Skipped)

>>> END FOREACH

>>> END FOREACH

>>> EXPORT i = E

>>> EXPORT j = P

>>> IF (-FILE GMJ_e2_${i}_${j}.csv)
(Skipped)

>>> END FOREACH

>>> EXPORT j = M

>>> IF (-FILE GMJ_e2_${i}_${j}.csv)
(Skipped)

>>> END FOREACH

>>> END FOREACH

>>> EXPORT i = F

>>> EXPORT j = P

>>> IF (-FILE GMJ_e2_${i}_${j}.csv)

>>> COPY /tmp/H12_2.76/GMJ_RHS_F_P.csv /home/grierjones/DDCASPT2/hydrogen_comps/H12_chain/H12_2.76/GMJ_RHS_F_P.csv

>>> COPY /tmp/H12_2.76/GMJ_IVECW_F_P.csv /home/grierjones/DDCASPT2/hydrogen_comps/H12_chain/H12_2.76/GMJ_IVECW_F_P.csv

>>> COPY /tmp/H12_2.76/GMJ_IVECX_F_P.csv /home/grierjones/DDCASPT2/hydrogen_comps/H12_chain/H12_2.76/GMJ_IVECX_F_P.csv

>>> COPY /tmp/H12_2.76/GMJ_IVECC2_F_P.csv /home/grierjones/DDCASPT2/hydrogen_comps/H12_chain/H12_2.76/GMJ_IVECC2_F_P.csv

>>> COPY /tmp/H12_2.76/GMJ_e2_F_P.csv /home/grierjones/DDCASPT2/hydrogen_comps/H12_chain/H12_2.76/GMJ_e2_F_P.csv

>>> END FOREACH

>>> EXPORT j = M

>>> IF (-FILE GMJ_e2_${i}_${j}.csv)

>>> COPY /tmp/H12_2.76/GMJ_RHS_F_M.csv /home/grierjones/DDCASPT2/hydrogen_comps/H12_chain/H12_2.76/GMJ_RHS_F_M.csv

>>> COPY /tmp/H12_2.76/GMJ_IVECW_F_M.csv /home/grierjones/DDCASPT2/hydrogen_comps/H12_chain/H12_2.76/GMJ_IVECW_F_M.csv

>>> COPY /tmp/H12_2.76/GMJ_IVECX_F_M.csv /home/grierjones/DDCASPT2/hydrogen_comps/H12_chain/H12_2.76/GMJ_IVECX_F_M.csv

>>> COPY /tmp/H12_2.76/GMJ_IVECC2_F_M.csv /home/grierjones/DDCASPT2/hydrogen_comps/H12_chain/H12_2.76/GMJ_IVECC2_F_M.csv

>>> COPY /tmp/H12_2.76/GMJ_e2_F_M.csv /home/grierjones/DDCASPT2/hydrogen_comps/H12_chain/H12_2.76/GMJ_e2_F_M.csv

>>> END FOREACH

>>> END FOREACH

>>> EXPORT i = G

>>> EXPORT j = P

>>> IF (-FILE GMJ_e2_${i}_${j}.csv)
(Skipped)

>>> END FOREACH

>>> EXPORT j = M

>>> IF (-FILE GMJ_e2_${i}_${j}.csv)
(Skipped)

>>> END FOREACH

>>> END FOREACH

>>> EXPORT i = H

>>> EXPORT j = P

>>> IF (-FILE GMJ_e2_${i}_${j}.csv)
(Skipped)

>>> END FOREACH

>>> EXPORT j = M

>>> IF (-FILE GMJ_e2_${i}_${j}.csv)
(Skipped)

>>> END FOREACH

>>> END FOREACH

>>> EXPORT i = A

>>> IF (-FILE GMJ_e2_$i.csv)
(Skipped)

>>> END FOREACH

>>> EXPORT i = C

>>> IF (-FILE GMJ_e2_$i.csv)

>>> COPY /tmp/H12_2.76/GMJ_RHS_C.csv /home/grierjones/DDCASPT2/hydrogen_comps/H12_chain/H12_2.76/GMJ_RHS_C.csv

>>> COPY /tmp/H12_2.76/GMJ_IVECW_C.csv /home/grierjones/DDCASPT2/hydrogen_comps/H12_chain/H12_2.76/GMJ_IVECW_C.csv

>>> COPY /tmp/H12_2.76/GMJ_IVECX_C.csv /home/grierjones/DDCASPT2/hydrogen_comps/H12_chain/H12_2.76/GMJ_IVECX_C.csv

>>> COPY /tmp/H12_2.76/GMJ_IVECC2_C.csv /home/grierjones/DDCASPT2/hydrogen_comps/H12_chain/H12_2.76/GMJ_IVECC2_C.csv

>>> COPY /tmp/H12_2.76/GMJ_e2_C.csv /home/grierjones/DDCASPT2/hydrogen_comps/H12_chain/H12_2.76/GMJ_e2_C.csv

>>> END FOREACH

>>> EXPORT i = D

>>> IF (-FILE GMJ_e2_$i.csv)
(Skipped)

>>> END FOREACH

.########################.
.# Non-zero return code #.
.########################.

    Timing: Wall=651.38 User=645.83 System=5.51
****************************************
*** WorkDir at /tmp/H12_2.76 cleaned ***
****************************************
