[Molden Format]
[N_Atoms]
                     2
[Atoms] (AU)
C1          1      6           0.00000000      0.00000000      0.00000000
C2          2      6           0.00000000      0.00000000      3.96842486
[Charge] (Mulliken)
   1.00617848564421     
  0.993821514355754     
[GTO] (AU)
   1
   s  14
  5.055750100E+04  1.128874000E-04
  7.524785600E+03  5.295373000E-04
  1.694327600E+03  2.450038300E-03
  4.728227900E+02  1.005398470E-02
  1.517107500E+02  3.545398060E-02
  5.391874600E+01  1.044071086E-01
  2.065931100E+01  2.412894918E-01
  8.383976000E+00  3.834225483E-01
  3.577015000E+00  3.078514393E-01
  1.547118000E+00  6.872442990E-02
  6.130130000E-01  2.224445000E-04
  2.460680000E-01  1.976748900E-03
  9.908700000E-02  2.057859400E-03
  3.468000000E-02  4.182020000E-04
   s  14
  5.055750100E+04 -2.507420000E-05
  7.524785600E+03 -1.175945000E-04
  1.694327600E+03 -5.456275000E-04
  4.728227900E+02 -2.245077100E-03
  1.517107500E+02 -8.043471800E-03
  5.391874600E+01 -2.442588710E-02
  2.065931100E+01 -6.136791180E-02
  8.383976000E+00 -1.177767835E-01
  3.577015000E+00 -1.550487783E-01
  1.547118000E+00 -1.933316860E-02
  6.130130000E-01  3.996930678E-01
  2.460680000E-01  5.589420949E-01
  9.908700000E-02  1.711195023E-01
  3.468000000E-02  7.456244600E-03
   p   9
  8.333315500E+01  1.344656000E-03
  1.955761100E+01  1.023555500E-02
  6.080365000E+00  4.520067100E-02
  2.179317000E+00  1.410756198E-01
  8.651500000E-01  3.047388085E-01
  3.619440000E-01  3.995281011E-01
  1.547400000E-01  2.719163432E-01
  6.542900000E-02  5.857669330E-02
  2.290000000E-02 -1.263813000E-04
 
   2
   s  14
  5.055750100E+04  1.128874000E-04
  7.524785600E+03  5.295373000E-04
  1.694327600E+03  2.450038300E-03
  4.728227900E+02  1.005398470E-02
  1.517107500E+02  3.545398060E-02
  5.391874600E+01  1.044071086E-01
  2.065931100E+01  2.412894918E-01
  8.383976000E+00  3.834225483E-01
  3.577015000E+00  3.078514393E-01
  1.547118000E+00  6.872442990E-02
  6.130130000E-01  2.224445000E-04
  2.460680000E-01  1.976748900E-03
  9.908700000E-02  2.057859400E-03
  3.468000000E-02  4.182020000E-04
   s  14
  5.055750100E+04 -2.507420000E-05
  7.524785600E+03 -1.175945000E-04
  1.694327600E+03 -5.456275000E-04
  4.728227900E+02 -2.245077100E-03
  1.517107500E+02 -8.043471800E-03
  5.391874600E+01 -2.442588710E-02
  2.065931100E+01 -6.136791180E-02
  8.383976000E+00 -1.177767835E-01
  3.577015000E+00 -1.550487783E-01
  1.547118000E+00 -1.933316860E-02
  6.130130000E-01  3.996930678E-01
  2.460680000E-01  5.589420949E-01
  9.908700000E-02  1.711195023E-01
  3.468000000E-02  7.456244600E-03
   p   9
  8.333315500E+01  1.344656000E-03
  1.955761100E+01  1.023555500E-02
  6.080365000E+00  4.520067100E-02
  2.179317000E+00  1.410756198E-01
  8.651500000E-01  3.047388085E-01
  3.619440000E-01  3.995281011E-01
  1.547400000E-01  2.719163432E-01
  6.542900000E-02  5.857669330E-02
  2.290000000E-02 -1.263813000E-04
 
[MO]
Sym=     1a  
Ene=     0.0000
Spin= Alpha
Occup=    0.00000
   1         1.00026259
   2         0.00286398
   3         0.00000000
   4         0.00000000
   5         0.00322530
   6        -0.00017711
   7        -0.00599673
   8         0.00000000
   9         0.00000000
  10         0.01250798
Sym=     2a  
Ene=     0.0000
Spin= Alpha
Occup=    0.00000
   1         0.00286398
   2         1.03233313
   3         0.00000000
   4         0.00000000
   5         0.03750589
   6        -0.00599673
   7        -0.08989759
   8         0.00000000
   9         0.00000000
  10         0.12540978
Sym=     3a  
Ene=     0.0000
Spin= Alpha
Occup=    0.00000
   1         0.00000000
   2         0.00000000
   3         1.00403354
   4         0.00000000
   5         0.00000000
   6         0.00000000
   7         0.00000000
   8        -0.05200092
   9         0.00000000
  10         0.00000000
Sym=     4a  
Ene=     0.0000
Spin= Alpha
Occup=    0.00000
   1         0.00000000
   2         0.00000000
   3         0.00000000
   4         1.00403354
   5         0.00000000
   6         0.00000000
   7         0.00000000
   8         0.00000000
   9        -0.05200092
  10         0.00000000
Sym=     5a  
Ene=     0.0000
Spin= Alpha
Occup=    0.00000
   1         0.00322530
   2         0.03750589
   3         0.00000000
   4         0.00000000
   5         1.04456350
   6        -0.01250798
   7        -0.12540978
   8         0.00000000
   9         0.00000000
  10         0.13035329
Sym=     6a  
Ene=     0.0000
Spin= Alpha
Occup=    0.00000
   1        -0.00017711
   2        -0.00599673
   3         0.00000000
   4         0.00000000
   5        -0.01250798
   6         1.00026259
   7         0.00286398
   8         0.00000000
   9         0.00000000
  10        -0.00322530
Sym=     7a  
Ene=     0.0000
Spin= Alpha
Occup=    0.00000
   1        -0.00599673
   2        -0.08989759
   3         0.00000000
   4         0.00000000
   5        -0.12540978
   6         0.00286398
   7         1.03233313
   8         0.00000000
   9         0.00000000
  10        -0.03750589
Sym=     8a  
Ene=     0.0000
Spin= Alpha
Occup=    0.00000
   1         0.00000000
   2         0.00000000
   3        -0.05200092
   4         0.00000000
   5         0.00000000
   6         0.00000000
   7         0.00000000
   8         1.00403354
   9         0.00000000
  10         0.00000000
Sym=     9a  
Ene=     0.0000
Spin= Alpha
Occup=    0.00000
   1         0.00000000
   2         0.00000000
   3         0.00000000
   4        -0.05200092
   5         0.00000000
   6         0.00000000
   7         0.00000000
   8         0.00000000
   9         1.00403354
  10         0.00000000
Sym=    10a  
Ene=     0.0000
Spin= Alpha
Occup=    0.00000
   1         0.01250798
   2         0.12540978
   3         0.00000000
   4         0.00000000
   5         0.13035329
   6        -0.00322530
   7        -0.03750589
   8         0.00000000
   9         0.00000000
  10         1.04456350
