[Molden Format]
[N_Atoms]
                     2
[Atoms] (AU)
C1          1      6           0.00000000      0.00000000      0.00000000
C2          2      6           0.00000000      0.00000000      3.96842486
[Charge] (Mulliken)
 -3.641531520770513E-013
  3.623767952376511E-013
[GTO] (AU)
   1
   s  14
  5.055750100E+04  1.128874000E-04
  7.524785600E+03  5.295373000E-04
  1.694327600E+03  2.450038300E-03
  4.728227900E+02  1.005398470E-02
  1.517107500E+02  3.545398060E-02
  5.391874600E+01  1.044071086E-01
  2.065931100E+01  2.412894918E-01
  8.383976000E+00  3.834225483E-01
  3.577015000E+00  3.078514393E-01
  1.547118000E+00  6.872442990E-02
  6.130130000E-01  2.224445000E-04
  2.460680000E-01  1.976748900E-03
  9.908700000E-02  2.057859400E-03
  3.468000000E-02  4.182020000E-04
   s  14
  5.055750100E+04 -2.507420000E-05
  7.524785600E+03 -1.175945000E-04
  1.694327600E+03 -5.456275000E-04
  4.728227900E+02 -2.245077100E-03
  1.517107500E+02 -8.043471800E-03
  5.391874600E+01 -2.442588710E-02
  2.065931100E+01 -6.136791180E-02
  8.383976000E+00 -1.177767835E-01
  3.577015000E+00 -1.550487783E-01
  1.547118000E+00 -1.933316860E-02
  6.130130000E-01  3.996930678E-01
  2.460680000E-01  5.589420949E-01
  9.908700000E-02  1.711195023E-01
  3.468000000E-02  7.456244600E-03
   p   9
  8.333315500E+01  1.344656000E-03
  1.955761100E+01  1.023555500E-02
  6.080365000E+00  4.520067100E-02
  2.179317000E+00  1.410756198E-01
  8.651500000E-01  3.047388085E-01
  3.619440000E-01  3.995281011E-01
  1.547400000E-01  2.719163432E-01
  6.542900000E-02  5.857669330E-02
  2.290000000E-02 -1.263813000E-04
 
   2
   s  14
  5.055750100E+04  1.128874000E-04
  7.524785600E+03  5.295373000E-04
  1.694327600E+03  2.450038300E-03
  4.728227900E+02  1.005398470E-02
  1.517107500E+02  3.545398060E-02
  5.391874600E+01  1.044071086E-01
  2.065931100E+01  2.412894918E-01
  8.383976000E+00  3.834225483E-01
  3.577015000E+00  3.078514393E-01
  1.547118000E+00  6.872442990E-02
  6.130130000E-01  2.224445000E-04
  2.460680000E-01  1.976748900E-03
  9.908700000E-02  2.057859400E-03
  3.468000000E-02  4.182020000E-04
   s  14
  5.055750100E+04 -2.507420000E-05
  7.524785600E+03 -1.175945000E-04
  1.694327600E+03 -5.456275000E-04
  4.728227900E+02 -2.245077100E-03
  1.517107500E+02 -8.043471800E-03
  5.391874600E+01 -2.442588710E-02
  2.065931100E+01 -6.136791180E-02
  8.383976000E+00 -1.177767835E-01
  3.577015000E+00 -1.550487783E-01
  1.547118000E+00 -1.933316860E-02
  6.130130000E-01  3.996930678E-01
  2.460680000E-01  5.589420949E-01
  9.908700000E-02  1.711195023E-01
  3.468000000E-02  7.456244600E-03
   p   9
  8.333315500E+01  1.344656000E-03
  1.955761100E+01  1.023555500E-02
  6.080365000E+00  4.520067100E-02
  2.179317000E+00  1.410756198E-01
  8.651500000E-01  3.047388085E-01
  3.619440000E-01  3.995281011E-01
  1.547400000E-01  2.719163432E-01
  6.542900000E-02  5.857669330E-02
  2.290000000E-02 -1.263813000E-04
 
[MO]
Sym=     1a  
Ene=   -11.3100
Spin= Alpha
Occup=    2.00000
   1         0.70706042
   2        -0.00210906
   3         0.00000000
   4         0.00000000
   5        -0.00003065
   6         0.70706041
   7        -0.00210906
   8        -0.00000000
   9        -0.00000000
  10         0.00003065
Sym=     2a  
Ene=   -11.3100
Spin= Alpha
Occup=    2.00000
   1        -0.70709394
   2         0.00690849
   3         0.00000000
   4         0.00000000
   5        -0.00101659
   6         0.70709395
   7        -0.00690849
   8        -0.00000000
   9        -0.00000000
  10        -0.00101659
Sym=     3a  
Ene=    -0.7892
Spin= Alpha
Occup=    2.00000
   1        -0.00559665
   2         0.64201273
   3        -0.00000000
   4         0.00000000
   5         0.06334429
   6        -0.00559665
   7         0.64201273
   8        -0.00000000
   9        -0.00000000
  10        -0.06334429
Sym=     4a  
Ene=    -0.2755
Spin= Alpha
Occup=    2.00000
   1         0.00000000
   2         0.00000000
   3         0.66455045
   4         0.10749768
   5        -0.00000000
   6         0.00000000
   7         0.00000000
   8         0.66455045
   9         0.10749768
  10        -0.00000000
Sym=     5a  
Ene=    -0.2755
Spin= Alpha
Occup=    2.00000
   1         0.00000000
   2        -0.00000000
   3        -0.10749768
   4         0.66455045
   5         0.00000000
   6        -0.00000000
   7         0.00000000
   8        -0.10749768
   9         0.66455045
  10         0.00000000
Sym=     6a  
Ene=    -0.6258
Spin= Alpha
Occup=    1.96915
   1        -0.01238169
   2        -0.74657126
   3        -0.00000000
   4        -0.00000000
   5         0.07659705
   6         0.01238169
   7         0.74657126
   8         0.00000000
   9        -0.00000000
  10         0.07659705
Sym=     7a  
Ene=    -0.0000
Spin= Alpha
Occup=    0.03085
   1         0.01295097
   2         0.18914556
   3        -0.00000000
   4        -0.00000000
   5        -0.64636235
   6         0.01295097
   7         0.18914556
   8         0.00000000
   9        -0.00000000
  10         0.64636235
Sym=     8a  
Ene=     0.0427
Spin= Alpha
Occup=    0.00000
   1         0.00000000
   2        -0.00000000
   3         0.67483607
   4         0.31968839
   5        -0.00000000
   6        -0.00000000
   7        -0.00000000
   8        -0.67483607
   9        -0.31968839
  10         0.00000000
Sym=     9a  
Ene=     0.0427
Spin= Alpha
Occup=    0.00000
   1        -0.00000000
   2        -0.00000000
   3        -0.31968839
   4         0.67483607
   5        -0.00000000
   6         0.00000000
   7         0.00000000
   8         0.31968839
   9        -0.67483607
  10        -0.00000000
Sym=    10a  
Ene=     0.2893
Spin= Alpha
Occup=    0.00000
   1        -0.02162565
   2        -0.29256544
   3         0.00000000
   4        -0.00000000
   5        -0.83530899
   6         0.02162565
   7         0.29256544
   8        -0.00000000
   9         0.00000000
  10        -0.83530899
