[Molden Format]
[N_Atoms]
                     2
[Atoms] (AU)
C1          1      6           0.00000000      0.00000000      0.00000000
C2          2      6           0.00000000      0.00000000      3.96842486
[Charge] (Mulliken)
   1.00617848564421     
  0.993821514355754     
[GTO] (AU)
   1
   s  14
  5.055750100E+04  1.128874000E-04
  7.524785600E+03  5.295373000E-04
  1.694327600E+03  2.450038300E-03
  4.728227900E+02  1.005398470E-02
  1.517107500E+02  3.545398060E-02
  5.391874600E+01  1.044071086E-01
  2.065931100E+01  2.412894918E-01
  8.383976000E+00  3.834225483E-01
  3.577015000E+00  3.078514393E-01
  1.547118000E+00  6.872442990E-02
  6.130130000E-01  2.224445000E-04
  2.460680000E-01  1.976748900E-03
  9.908700000E-02  2.057859400E-03
  3.468000000E-02  4.182020000E-04
   s  14
  5.055750100E+04 -2.507420000E-05
  7.524785600E+03 -1.175945000E-04
  1.694327600E+03 -5.456275000E-04
  4.728227900E+02 -2.245077100E-03
  1.517107500E+02 -8.043471800E-03
  5.391874600E+01 -2.442588710E-02
  2.065931100E+01 -6.136791180E-02
  8.383976000E+00 -1.177767835E-01
  3.577015000E+00 -1.550487783E-01
  1.547118000E+00 -1.933316860E-02
  6.130130000E-01  3.996930678E-01
  2.460680000E-01  5.589420949E-01
  9.908700000E-02  1.711195023E-01
  3.468000000E-02  7.456244600E-03
   p   9
  8.333315500E+01  1.344656000E-03
  1.955761100E+01  1.023555500E-02
  6.080365000E+00  4.520067100E-02
  2.179317000E+00  1.410756198E-01
  8.651500000E-01  3.047388085E-01
  3.619440000E-01  3.995281011E-01
  1.547400000E-01  2.719163432E-01
  6.542900000E-02  5.857669330E-02
  2.290000000E-02 -1.263813000E-04
 
   2
   s  14
  5.055750100E+04  1.128874000E-04
  7.524785600E+03  5.295373000E-04
  1.694327600E+03  2.450038300E-03
  4.728227900E+02  1.005398470E-02
  1.517107500E+02  3.545398060E-02
  5.391874600E+01  1.044071086E-01
  2.065931100E+01  2.412894918E-01
  8.383976000E+00  3.834225483E-01
  3.577015000E+00  3.078514393E-01
  1.547118000E+00  6.872442990E-02
  6.130130000E-01  2.224445000E-04
  2.460680000E-01  1.976748900E-03
  9.908700000E-02  2.057859400E-03
  3.468000000E-02  4.182020000E-04
   s  14
  5.055750100E+04 -2.507420000E-05
  7.524785600E+03 -1.175945000E-04
  1.694327600E+03 -5.456275000E-04
  4.728227900E+02 -2.245077100E-03
  1.517107500E+02 -8.043471800E-03
  5.391874600E+01 -2.442588710E-02
  2.065931100E+01 -6.136791180E-02
  8.383976000E+00 -1.177767835E-01
  3.577015000E+00 -1.550487783E-01
  1.547118000E+00 -1.933316860E-02
  6.130130000E-01  3.996930678E-01
  2.460680000E-01  5.589420949E-01
  9.908700000E-02  1.711195023E-01
  3.468000000E-02  7.456244600E-03
   p   9
  8.333315500E+01  1.344656000E-03
  1.955761100E+01  1.023555500E-02
  6.080365000E+00  4.520067100E-02
  2.179317000E+00  1.410756198E-01
  8.651500000E-01  3.047388085E-01
  3.619440000E-01  3.995281011E-01
  1.547400000E-01  2.719163432E-01
  6.542900000E-02  5.857669330E-02
  2.290000000E-02 -1.263813000E-04
 
[MO]
Sym=     1a  
Ene=   -12.3010
Spin= Alpha
Occup=    2.00000
   1         0.99981074
   2        -0.01659777
   3        -0.00000000
   4         0.00000000
   5        -0.00086957
   6         0.00962058
   7         0.00198421
   8        -0.00000000
   9         0.00000000
  10         0.00061780
Sym=     2a  
Ene=   -12.2960
Spin= Alpha
Occup=    2.00000
   1        -0.00957583
   2        -0.00007644
   3        -0.00000000
   4         0.00000000
   5        -0.00003822
   6         0.99994641
   7        -0.00459507
   8        -0.00000000
   9         0.00000000
  10         0.00008504
Sym=     3a  
Ene=    -1.4586
Spin= Alpha
Occup=    2.00000
   1        -0.01065706
   2        -0.00595087
   3        -0.00000000
   4         0.00000000
   5         0.06877407
   6         0.00310716
   7         0.97836333
   8        -0.00000000
   9         0.00000000
  10        -0.08581173
Sym=     4a  
Ene=    -1.0041
Spin= Alpha
Occup=    2.00000
   1        -0.00000000
   2         0.00000000
   3        -0.25404036
   4         0.61813641
   5         0.00000000
   6        -0.00000000
   7        -0.00000000
   8        -0.25774373
   9         0.62714754
  10        -0.00000000
Sym=     5a  
Ene=    -0.6467
Spin= Alpha
Occup=    0.04861
   1        -0.00000000
   2         0.00000000
   3         0.92702767
   4         0.38098781
   5        -0.00000000
   6        -0.00000000
   7         0.00000000
   8        -0.02300555
   9        -0.00945477
  10         0.00000000
Sym=     6a  
Ene=    -0.0010
Spin= Alpha
Occup=    1.95139
   1        -0.01743123
   2        -1.00026610
   3        -0.00000000
   4         0.00000000
   5        -0.06915716
   6         0.01142725
   7         0.19417675
   8        -0.00000000
   9         0.00000000
  10         0.04542018
Sym=     7a  
Ene=    -0.7250
Spin= Alpha
Occup=    0.00000
   1         0.01263498
   2         0.21456149
   3        -0.00000000
   4         0.00000000
   5        -0.64620201
   6         0.01296553
   7         0.22843019
   8        -0.00000000
   9         0.00000000
  10         0.63836935
Sym=     8a  
Ene=    -0.7062
Spin= Alpha
Occup=    0.00000
   1        -0.00000000
   2        -0.00000000
   3         0.28551550
   4        -0.69472240
   5        -0.00000000
   6         0.00000000
   7         0.00000000
   8        -0.28217685
   9         0.68659872
  10        -0.00000000
Sym=     9a  
Ene=    -0.6296
Spin= Alpha
Occup=    0.00000
   1         0.00000000
   2         0.00000000
   3        -0.07315423
   4        -0.03006477
   5        -0.00000000
   6         0.00000000
   7         0.00000000
   8         0.92962497
   9         0.38205525
  10         0.00000000
Sym=    10a  
Ene=    -0.5013
Spin= Alpha
Occup=    0.00000
   1        -0.02111946
   2        -0.20998078
   3        -0.00000000
   4         0.00000000
   5        -0.83565283
   6         0.02103770
   7         0.20944432
   8         0.00000000
   9        -0.00000000
  10        -0.84170279
