[Molden Format]
[N_Atoms]
                     2
[Atoms] (AU)
C1          1      6           0.00000000      0.00000000      0.00000000
C2          2      6           0.00000000      0.00000000      3.96842486
[Charge] (Mulliken)
  0.000000000000000E+000
  0.000000000000000E+000
[GTO] (AU)
   1
   s  14
  5.055750100E+04  1.128874000E-04
  7.524785600E+03  5.295373000E-04
  1.694327600E+03  2.450038300E-03
  4.728227900E+02  1.005398470E-02
  1.517107500E+02  3.545398060E-02
  5.391874600E+01  1.044071086E-01
  2.065931100E+01  2.412894918E-01
  8.383976000E+00  3.834225483E-01
  3.577015000E+00  3.078514393E-01
  1.547118000E+00  6.872442990E-02
  6.130130000E-01  2.224445000E-04
  2.460680000E-01  1.976748900E-03
  9.908700000E-02  2.057859400E-03
  3.468000000E-02  4.182020000E-04
   s  14
  5.055750100E+04 -2.507420000E-05
  7.524785600E+03 -1.175945000E-04
  1.694327600E+03 -5.456275000E-04
  4.728227900E+02 -2.245077100E-03
  1.517107500E+02 -8.043471800E-03
  5.391874600E+01 -2.442588710E-02
  2.065931100E+01 -6.136791180E-02
  8.383976000E+00 -1.177767835E-01
  3.577015000E+00 -1.550487783E-01
  1.547118000E+00 -1.933316860E-02
  6.130130000E-01  3.996930678E-01
  2.460680000E-01  5.589420949E-01
  9.908700000E-02  1.711195023E-01
  3.468000000E-02  7.456244600E-03
   p   9
  8.333315500E+01  1.344656000E-03
  1.955761100E+01  1.023555500E-02
  6.080365000E+00  4.520067100E-02
  2.179317000E+00  1.410756198E-01
  8.651500000E-01  3.047388085E-01
  3.619440000E-01  3.995281011E-01
  1.547400000E-01  2.719163432E-01
  6.542900000E-02  5.857669330E-02
  2.290000000E-02 -1.263813000E-04
 
   2
   s  14
  5.055750100E+04  1.128874000E-04
  7.524785600E+03  5.295373000E-04
  1.694327600E+03  2.450038300E-03
  4.728227900E+02  1.005398470E-02
  1.517107500E+02  3.545398060E-02
  5.391874600E+01  1.044071086E-01
  2.065931100E+01  2.412894918E-01
  8.383976000E+00  3.834225483E-01
  3.577015000E+00  3.078514393E-01
  1.547118000E+00  6.872442990E-02
  6.130130000E-01  2.224445000E-04
  2.460680000E-01  1.976748900E-03
  9.908700000E-02  2.057859400E-03
  3.468000000E-02  4.182020000E-04
   s  14
  5.055750100E+04 -2.507420000E-05
  7.524785600E+03 -1.175945000E-04
  1.694327600E+03 -5.456275000E-04
  4.728227900E+02 -2.245077100E-03
  1.517107500E+02 -8.043471800E-03
  5.391874600E+01 -2.442588710E-02
  2.065931100E+01 -6.136791180E-02
  8.383976000E+00 -1.177767835E-01
  3.577015000E+00 -1.550487783E-01
  1.547118000E+00 -1.933316860E-02
  6.130130000E-01  3.996930678E-01
  2.460680000E-01  5.589420949E-01
  9.908700000E-02  1.711195023E-01
  3.468000000E-02  7.456244600E-03
   p   9
  8.333315500E+01  1.344656000E-03
  1.955761100E+01  1.023555500E-02
  6.080365000E+00  4.520067100E-02
  2.179317000E+00  1.410756198E-01
  8.651500000E-01  3.047388085E-01
  3.619440000E-01  3.995281011E-01
  1.547400000E-01  2.719163432E-01
  6.542900000E-02  5.857669330E-02
  2.290000000E-02 -1.263813000E-04
 
[MO]
Sym=     1a  
Ene=   -11.3300
Spin= Alpha
Occup=    2.00000
   1         0.70702199
   2         0.00048470
   3        -0.00000000
   4        -0.00000000
   5         0.00065111
   6         0.70702199
   7         0.00048470
   8        -0.00000000
   9        -0.00000000
  10        -0.00065111
Sym=     2a  
Ene=   -11.3260
Spin= Alpha
Occup=    2.00000
   1        -0.70715218
   2         0.00045609
   3        -0.00000000
   4         0.00000000
   5         0.00063130
   6         0.70715218
   7        -0.00045609
   8         0.00000000
   9        -0.00000000
  10         0.00063130
Sym=     3a  
Ene=    -0.8629
Spin= Alpha
Occup=    2.00000
   1        -0.01084047
   2         0.59796099
   3         0.00000000
   4        -0.00000000
   5         0.17766383
   6        -0.01084047
   7         0.59796099
   8        -0.00000000
   9         0.00000000
  10        -0.17766383
Sym=     4a  
Ene=    -0.6444
Spin= Alpha
Occup=    2.00000
   1        -0.00207358
   2        -0.68634125
   3         0.00000000
   4        -0.00000000
   5         0.21682356
   6         0.00207358
   7         0.68634125
   8        -0.00000000
   9        -0.00000000
  10         0.21682356
Sym=     5a  
Ene=    -0.4881
Spin= Alpha
Occup=    1.33333
   1         0.01165642
   2         0.30067133
   3        -0.00000000
   4         0.00000000
   5        -0.62468546
   6         0.01165642
   7         0.30067133
   8        -0.00000000
   9         0.00000000
  10         0.62468546
Sym=     6a  
Ene=    -0.4804
Spin= Alpha
Occup=    1.33333
   1         0.00000000
   2        -0.00000000
   3         0.34534954
   4         0.57785530
   5        -0.00000000
   6         0.00000000
   7         0.00000000
   8         0.34534954
   9         0.57785530
  10         0.00000000
Sym=     7a  
Ene=    -0.4804
Spin= Alpha
Occup=    1.33333
   1         0.00000000
   2         0.00000000
   3         0.57785530
   4        -0.34534954
   5        -0.00000000
   6         0.00000000
   7         0.00000000
   8         0.57785530
   9        -0.34534954
  10         0.00000000
Sym=     8a  
Ene=    -0.3904
Spin= Alpha
Occup=    0.00000
   1        -0.00000000
   2        -0.00000000
   3        -0.68919472
   4        -0.28742830
   5        -0.00000000
   6         0.00000000
   7         0.00000000
   8         0.68919472
   9         0.28742830
  10        -0.00000000
Sym=     9a  
Ene=    -0.3904
Spin= Alpha
Occup=    0.00000
   1        -0.00000000
   2        -0.00000000
   3         0.28742830
   4        -0.68919472
   5         0.00000000
   6         0.00000000
   7        -0.00000000
   8        -0.28742830
   9         0.68919472
  10         0.00000000
Sym=    10a  
Ene=    -0.2854
Spin= Alpha
Occup=    0.00000
   1         0.02311539
   2         0.41466419
   3        -0.00000000
   4        -0.00000000
   5         0.81030636
   6        -0.02311539
   7        -0.41466419
   8         0.00000000
   9         0.00000000
  10         0.81030636
