[Molden Format]
[N_Atoms]
                     2
[Atoms] (AU)
F1          1      9           0.00000000      0.00000000      0.00000000
H2          2      1           0.00000000      0.00000000      1.13383567
[Charge] (Mulliken)
  0.894590337473860     
   1.10540966252613     
[GTO] (AU)
   1
   s  14
  1.031094600E+05  1.713099991E-04
  1.528100700E+04  7.123999962E-04
  3.441539200E+03  2.990479984E-03
  9.670948300E+02  1.164036994E-02
  3.140353400E+02  3.968642979E-02
  1.134423000E+02  1.128546094E-01
  4.464472700E+01  2.473650687E-01
  1.894287400E+01  3.672702681E-01
  8.532743000E+00  2.896286985E-01
  3.919401000E+00  7.786681959E-02
  1.568157000E+00  4.562139976E-03
  6.232900000E-01  2.468879987E-03
  2.408610000E-01  1.106309994E-03
  8.430100000E-02  1.739699991E-04
   s  14
  1.031094600E+05 -4.044999995E-05
  1.528100700E+04 -1.682299998E-04
  3.441539200E+03 -7.084299991E-04
  9.670948300E+02 -2.767999996E-03
  3.140353400E+02 -9.611379987E-03
  1.134423000E+02 -2.833957996E-02
  4.464472700E+01 -6.839343991E-02
  1.894287400E+01 -1.237379298E-01
  8.532743000E+00 -1.512859698E-01
  3.919401000E+00 -9.099909988E-03
  1.568157000E+00  3.716257695E-01
  6.232900000E-01  5.500214393E-01
  2.408610000E-01  2.092318697E-01
  8.430100000E-02  8.074639989E-03
   p   9
  2.453302900E+02  1.024860004E-03
  5.691900500E+01  8.344290032E-03
  1.760456800E+01  4.078927016E-02
  6.274995000E+00  1.351370605E-01
  2.447030000E+00  2.798830811E-01
  9.950600000E-01  3.597966414E-01
  4.039730000E-01  3.055347412E-01
  1.548100000E-01  1.354703905E-01
  5.418400000E-02  2.804449011E-02
 
   2
   s   8
  1.886144500E+02  9.638500027E-04
  2.827659600E+01  7.491960021E-03
  6.424830000E+00  3.759541011E-02
  1.815041000E+00  1.433949804E-01
  5.910630000E-01  3.486363010E-01
  2.121490000E-01  4.382973612E-01
  7.989100000E-02  1.651066105E-01
  2.796200000E-02  2.102287006E-02
 
[MO]
Sym=     1a  
Ene=   -28.5030
Spin= Alpha
Occup=    2.00000
   1         1.00004632
   2        -0.00444913
   3         0.00000000
   4        -0.00000000
   5         0.00179043
   6        -0.00054457
Sym=     2a  
Ene=    -3.3141
Spin= Alpha
Occup=    2.00000
   1         0.01259392
   2         0.99479699
   3         0.00000000
   4        -0.00000000
   5         0.36811072
   6        -0.07907830
Sym=     3a  
Ene=    -2.3268
Spin= Alpha
Occup=    2.00000
   1        -0.00720818
   2        -0.36008294
   3         0.00000000
   4        -0.00000000
   5         0.92628065
   6         0.03801302
Sym=     4a  
Ene=    -1.8679
Spin= Alpha
Occup=    1.00000
   1        -0.00000000
   2        -0.00000000
   3        -0.74537043
   4         0.66665053
   5         0.00000000
   6         0.00000000
Sym=     5a  
Ene=     0.0000
Spin= Alpha
Occup=    1.00000
   1        -0.00000000
   2        -0.00000000
   3         0.66665053
   4         0.74537043
   5        -0.00000000
   6         0.00000000
Sym=     6a  
Ene=    -0.3606
Spin= Alpha
Occup=    0.00000
   1        -0.18275219
   2        -1.09436839
   3        -0.00000000
   4        -0.00000000
   5        -0.71222269
   6         1.68633074
