[Molden Format]
[N_Atoms]
                     2
[Atoms] (AU)
LI1         1      3           0.00000000      0.00000000      0.00000000
LI2         2      3           0.00000000      0.00000000      2.26767135
[Charge] (Mulliken)
   1.00423499682117     
  0.995765003178831     
[GTO] (AU)
   1
   s  14
  9.497934400E+03  9.668999974E-05
  1.416811200E+03  6.087099984E-04
  3.214599400E+02  3.101519992E-03
  9.112416300E+01  1.266904997E-02
  2.999989100E+01  4.248012989E-02
  1.101763100E+01  1.150183297E-01
  4.372801000E+00  2.398650094E-01
  1.831256000E+00  3.584300090E-01
  8.022610000E-01  3.048527792E-01
  3.626480000E-01  8.824261976E-02
  1.139950000E-01 -8.445899977E-04
  5.123700000E-02 -7.943959979E-03
  2.246800000E-02 -3.764419990E-03
  7.860000000E-03 -8.868999976E-05
   s  14
  9.497934400E+03 -1.244999993E-05
  1.416811200E+03 -7.838999954E-05
  3.214599400E+02 -4.007099976E-04
  9.112416300E+01 -1.645249990E-03
  2.999989100E+01 -5.634599967E-03
  1.101763100E+01 -1.590780991E-02
  4.372801000E+00 -3.612581979E-02
  1.831256000E+00 -6.459927962E-02
  8.022610000E-01 -1.008321794E-01
  3.626480000E-01 -9.757613942E-02
  1.139950000E-01  2.301215886E-01
  5.123700000E-02  6.102389764E-01
  2.246800000E-02  2.849406083E-01
  7.860000000E-03  4.026899976E-03
   p   9
  1.311950400E+01  1.524940000E-03
  3.077424200E+00  8.314830000E-03
  1.098800500E+00  1.933203000E-02
  4.357784000E-01  4.934293000E-02
  1.802432000E-01  1.623554000E-01
  7.613330000E-02  3.847505400E-01
  3.254650000E-02  4.336100400E-01
  1.401820000E-02  1.287005900E-01
  4.906400000E-03 -1.018520000E-03
 
   2
   s  14
  9.497934400E+03  9.668999974E-05
  1.416811200E+03  6.087099984E-04
  3.214599400E+02  3.101519992E-03
  9.112416300E+01  1.266904997E-02
  2.999989100E+01  4.248012989E-02
  1.101763100E+01  1.150183297E-01
  4.372801000E+00  2.398650094E-01
  1.831256000E+00  3.584300090E-01
  8.022610000E-01  3.048527792E-01
  3.626480000E-01  8.824261976E-02
  1.139950000E-01 -8.445899977E-04
  5.123700000E-02 -7.943959979E-03
  2.246800000E-02 -3.764419990E-03
  7.860000000E-03 -8.868999976E-05
   s  14
  9.497934400E+03 -1.244999993E-05
  1.416811200E+03 -7.838999954E-05
  3.214599400E+02 -4.007099976E-04
  9.112416300E+01 -1.645249990E-03
  2.999989100E+01 -5.634599967E-03
  1.101763100E+01 -1.590780991E-02
  4.372801000E+00 -3.612581979E-02
  1.831256000E+00 -6.459927962E-02
  8.022610000E-01 -1.008321794E-01
  3.626480000E-01 -9.757613942E-02
  1.139950000E-01  2.301215886E-01
  5.123700000E-02  6.102389764E-01
  2.246800000E-02  2.849406083E-01
  7.860000000E-03  4.026899976E-03
   p   9
  1.311950400E+01  1.524940000E-03
  3.077424200E+00  8.314830000E-03
  1.098800500E+00  1.933203000E-02
  4.357784000E-01  4.934293000E-02
  1.802432000E-01  1.623554000E-01
  7.613330000E-02  3.847505400E-01
  3.254650000E-02  4.336100400E-01
  1.401820000E-02  1.287005900E-01
  4.906400000E-03 -1.018520000E-03
 
[MO]
Sym=     1a  
Ene=    -3.2426
Spin= Alpha
Occup=    2.00000
   1         0.05725813
   2        -0.01383580
   3        -0.00000000
   4        -0.00000000
   5         0.00418041
   6         0.99629785
   7         0.02004411
   8         0.00000000
   9         0.00000000
  10        -0.01264859
Sym=     2a  
Ene=    -3.2193
Spin= Alpha
Occup=    1.99966
   1        -1.00057031
   2        -0.01725995
   3         0.00000000
   4        -0.00000000
   5        -0.01092090
   6         0.12103173
   7         0.01179609
   8        -0.00000000
   9         0.00000000
  10         0.00417495
Sym=     3a  
Ene=    -0.0035
Spin= Alpha
Occup=    0.00034
   1        -2.08650159
   2        -7.85995970
   3         0.00000000
   4         0.00000000
   5        -1.77626029
   6         1.83040764
   7         8.06853217
   8         0.00000000
   9         0.00000000
  10        -2.74167181
Sym=     4a  
Ene=    -0.3735
Spin= Alpha
Occup=    0.00000
   1        -0.00000000
   2        -0.00000000
   3        -0.00582895
   4         0.51865827
   5        -0.00000000
   6         0.00000000
   7        -0.00000000
   8        -0.00582249
   9         0.51808410
  10        -0.00000000
Sym=     5a  
Ene=    -0.3735
Spin= Alpha
Occup=    0.00000
   1         0.00000000
   2         0.00000000
   3        -0.51865827
   4        -0.00582895
   5         0.00000000
   6        -0.00000000
   7         0.00000000
   8        -0.51808410
   9        -0.00582249
  10         0.00000000
Sym=     6a  
Ene=    -0.3722
Spin= Alpha
Occup=    0.00000
   1         0.13722264
   2         0.66836525
   3         0.00000000
   4         0.00000000
   5         0.22860446
   6        -0.17727328
   7         0.15426498
   8         0.00000000
   9         0.00000000
  10         0.68575522
Sym=     7a  
Ene=    -0.2982
Spin= Alpha
Occup=    0.00000
   1        -0.26896499
   2        -1.28071697
   3        -0.00000000
   4        -0.00000000
   5         1.00934287
   6        -0.00552040
   7         0.50580861
   8        -0.00000000
   9        -0.00000000
  10        -0.79836328
Sym=     8a  
Ene=    -0.2252
Spin= Alpha
Occup=    0.00000
   1         0.00000000
   2         0.00000000
   3        -0.31382574
   4         1.86704568
   5        -0.00000000
   6         0.00000000
   7         0.00000000
   8         0.31385180
   9        -1.86720072
  10         0.00000000
Sym=     9a  
Ene=    -0.2252
Spin= Alpha
Occup=    0.00000
   1        -0.00000000
   2         0.00000000
   3        -1.86704568
   4        -0.31382574
   5         0.00000000
   6        -0.00000000
   7        -0.00000000
   8         1.86720072
   9         0.31385180
  10        -0.00000000
Sym=    10a  
Ene=     0.1105
Spin= Alpha
Occup=    0.00000
   1        -1.08493188
   2        -5.59366907
   3        -0.00000000
   4        -0.00000000
   5        -2.14229238
   6         1.49567752
   7         5.45656900
   8         0.00000000
   9        -0.00000000
  10        -0.43715124
