[Molden Format]
[N_Atoms]
                     2
[Atoms] (AU)
LI1         1      3           0.00000000      0.00000000      0.00000000
LI2         2      3           0.00000000      0.00000000      2.26767135
[Charge] (Mulliken)
  0.000000000000000E+000
  0.000000000000000E+000
[GTO] (AU)
   1
   s  14
  9.497934400E+03  9.668999974E-05
  1.416811200E+03  6.087099984E-04
  3.214599400E+02  3.101519992E-03
  9.112416300E+01  1.266904997E-02
  2.999989100E+01  4.248012989E-02
  1.101763100E+01  1.150183297E-01
  4.372801000E+00  2.398650094E-01
  1.831256000E+00  3.584300090E-01
  8.022610000E-01  3.048527792E-01
  3.626480000E-01  8.824261976E-02
  1.139950000E-01 -8.445899977E-04
  5.123700000E-02 -7.943959979E-03
  2.246800000E-02 -3.764419990E-03
  7.860000000E-03 -8.868999976E-05
   s  14
  9.497934400E+03 -1.244999993E-05
  1.416811200E+03 -7.838999954E-05
  3.214599400E+02 -4.007099976E-04
  9.112416300E+01 -1.645249990E-03
  2.999989100E+01 -5.634599967E-03
  1.101763100E+01 -1.590780991E-02
  4.372801000E+00 -3.612581979E-02
  1.831256000E+00 -6.459927962E-02
  8.022610000E-01 -1.008321794E-01
  3.626480000E-01 -9.757613942E-02
  1.139950000E-01  2.301215886E-01
  5.123700000E-02  6.102389764E-01
  2.246800000E-02  2.849406083E-01
  7.860000000E-03  4.026899976E-03
   p   9
  1.311950400E+01  1.524940000E-03
  3.077424200E+00  8.314830000E-03
  1.098800500E+00  1.933203000E-02
  4.357784000E-01  4.934293000E-02
  1.802432000E-01  1.623554000E-01
  7.613330000E-02  3.847505400E-01
  3.254650000E-02  4.336100400E-01
  1.401820000E-02  1.287005900E-01
  4.906400000E-03 -1.018520000E-03
 
   2
   s  14
  9.497934400E+03  9.668999974E-05
  1.416811200E+03  6.087099984E-04
  3.214599400E+02  3.101519992E-03
  9.112416300E+01  1.266904997E-02
  2.999989100E+01  4.248012989E-02
  1.101763100E+01  1.150183297E-01
  4.372801000E+00  2.398650094E-01
  1.831256000E+00  3.584300090E-01
  8.022610000E-01  3.048527792E-01
  3.626480000E-01  8.824261976E-02
  1.139950000E-01 -8.445899977E-04
  5.123700000E-02 -7.943959979E-03
  2.246800000E-02 -3.764419990E-03
  7.860000000E-03 -8.868999976E-05
   s  14
  9.497934400E+03 -1.244999993E-05
  1.416811200E+03 -7.838999954E-05
  3.214599400E+02 -4.007099976E-04
  9.112416300E+01 -1.645249990E-03
  2.999989100E+01 -5.634599967E-03
  1.101763100E+01 -1.590780991E-02
  4.372801000E+00 -3.612581979E-02
  1.831256000E+00 -6.459927962E-02
  8.022610000E-01 -1.008321794E-01
  3.626480000E-01 -9.757613942E-02
  1.139950000E-01  2.301215886E-01
  5.123700000E-02  6.102389764E-01
  2.246800000E-02  2.849406083E-01
  7.860000000E-03  4.026899976E-03
   p   9
  1.311950400E+01  1.524940000E-03
  3.077424200E+00  8.314830000E-03
  1.098800500E+00  1.933203000E-02
  4.357784000E-01  4.934293000E-02
  1.802432000E-01  1.623554000E-01
  7.613330000E-02  3.847505400E-01
  3.254650000E-02  4.336100400E-01
  1.401820000E-02  1.287005900E-01
  4.906400000E-03 -1.018520000E-03
 
[MO]
Sym=     1a  
Ene=    -2.6126
Spin= Alpha
Occup=    2.00000
   1         0.68769692
   2         0.01007317
   3         0.00000000
   4         0.00000000
   5         0.00000000
   6         0.68769692
   7         0.01007317
   8        -0.00000000
   9        -0.00000000
  10         0.00000000
Sym=     2a  
Ene=    -2.3550
Spin= Alpha
Occup=    2.00000
   1        -0.72439441
   2         0.01025277
   3         0.00000000
   4        -0.00000000
   5         0.00000000
   6         0.72439441
   7        -0.01025277
   8        -0.00000000
   9         0.00000000
  10         0.00000000
Sym=     3a  
Ene=    -0.3584
Spin= Alpha
Occup=    2.00000
   1        -0.09660766
   2         0.52277838
   3        -0.00000000
   4        -0.00000000
   5        -0.00000000
   6        -0.09660766
   7         0.52277838
   8         0.00000000
   9        -0.00000000
  10        -0.00000000
Sym=     4a  
Ene=    -0.0225
Spin= Alpha
Occup=    0.00000
   1        -0.37266217
   2        -2.08700992
   3         0.00000000
   4        -0.00000000
   5         0.00000000
   6         0.37266217
   7         2.08700992
   8        -0.00000000
   9        -0.00000000
  10         0.00000000
Sym=     5a  
Ene=     3.1423
Spin= Alpha
Occup=    0.00000
   1        -0.00000000
   2        -0.00000000
   3        -0.00000000
   4         0.51840393
   5         0.00000000
   6         0.00000000
   7         0.00000000
   8        -0.00000000
   9         0.51840393
  10        -0.00000000
Sym=     6a  
Ene=     3.1423
Spin= Alpha
Occup=    0.00000
   1        -0.00000000
   2        -0.00000000
   3         0.51840393
   4         0.00000000
   5         0.00000000
   6         0.00000000
   7         0.00000000
   8         0.51840393
   9         0.00000000
  10         0.00000000
Sym=     7a  
Ene=     3.3351
Spin= Alpha
Occup=    0.00000
   1        -0.00000000
   2        -0.00000000
   3        -0.00000000
   4        -1.89331558
   5         0.00000000
   6        -0.00000000
   7         0.00000000
   8         0.00000000
   9         1.89331558
  10        -0.00000000
Sym=     8a  
Ene=     3.3351
Spin= Alpha
Occup=    0.00000
   1         0.00000000
   2         0.00000000
   3        -1.89331558
   4         0.00000000
   5         0.00000000
   6        -0.00000000
   7        -0.00000000
   8         1.89331558
   9        -0.00000000
  10         0.00000000
Sym=     9a  
Ene=     3.6182
Spin= Alpha
Occup=    0.00000
   1         0.25776460
   2         0.24797981
   3        -0.00000000
   4        -0.00000000
   5        -1.35248153
   6         0.25776460
   7         0.24797981
   8         0.00000000
   9         0.00000000
  10         1.35248153
Sym=    10a  
Ene=     7.1337
Spin= Alpha
Occup=    0.00000
   1        -2.32676400
   2        -9.51130534
   3        -0.00000000
   4         0.00000000
   5        -2.64319518
   6         2.32676400
   7         9.51130534
   8         0.00000000
   9        -0.00000000
  10        -2.64319518
