[Molden Format]
[N_Atoms]
                     2
[Atoms] (AU)
LI1         1      3           0.00000000      0.00000000      0.00000000
LI2         2      3           0.00000000      0.00000000      2.26767135
[Charge] (Mulliken)
  1.075584066256852E-012
 -1.080913136775052E-012
[GTO] (AU)
   1
   s  14
  9.497934400E+03  9.668999974E-05
  1.416811200E+03  6.087099984E-04
  3.214599400E+02  3.101519992E-03
  9.112416300E+01  1.266904997E-02
  2.999989100E+01  4.248012989E-02
  1.101763100E+01  1.150183297E-01
  4.372801000E+00  2.398650094E-01
  1.831256000E+00  3.584300090E-01
  8.022610000E-01  3.048527792E-01
  3.626480000E-01  8.824261976E-02
  1.139950000E-01 -8.445899977E-04
  5.123700000E-02 -7.943959979E-03
  2.246800000E-02 -3.764419990E-03
  7.860000000E-03 -8.868999976E-05
   s  14
  9.497934400E+03 -1.244999993E-05
  1.416811200E+03 -7.838999954E-05
  3.214599400E+02 -4.007099976E-04
  9.112416300E+01 -1.645249990E-03
  2.999989100E+01 -5.634599967E-03
  1.101763100E+01 -1.590780991E-02
  4.372801000E+00 -3.612581979E-02
  1.831256000E+00 -6.459927962E-02
  8.022610000E-01 -1.008321794E-01
  3.626480000E-01 -9.757613942E-02
  1.139950000E-01  2.301215886E-01
  5.123700000E-02  6.102389764E-01
  2.246800000E-02  2.849406083E-01
  7.860000000E-03  4.026899976E-03
   p   9
  1.311950400E+01  1.524940000E-03
  3.077424200E+00  8.314830000E-03
  1.098800500E+00  1.933203000E-02
  4.357784000E-01  4.934293000E-02
  1.802432000E-01  1.623554000E-01
  7.613330000E-02  3.847505400E-01
  3.254650000E-02  4.336100400E-01
  1.401820000E-02  1.287005900E-01
  4.906400000E-03 -1.018520000E-03
 
   2
   s  14
  9.497934400E+03  9.668999974E-05
  1.416811200E+03  6.087099984E-04
  3.214599400E+02  3.101519992E-03
  9.112416300E+01  1.266904997E-02
  2.999989100E+01  4.248012989E-02
  1.101763100E+01  1.150183297E-01
  4.372801000E+00  2.398650094E-01
  1.831256000E+00  3.584300090E-01
  8.022610000E-01  3.048527792E-01
  3.626480000E-01  8.824261976E-02
  1.139950000E-01 -8.445899977E-04
  5.123700000E-02 -7.943959979E-03
  2.246800000E-02 -3.764419990E-03
  7.860000000E-03 -8.868999976E-05
   s  14
  9.497934400E+03 -1.244999993E-05
  1.416811200E+03 -7.838999954E-05
  3.214599400E+02 -4.007099976E-04
  9.112416300E+01 -1.645249990E-03
  2.999989100E+01 -5.634599967E-03
  1.101763100E+01 -1.590780991E-02
  4.372801000E+00 -3.612581979E-02
  1.831256000E+00 -6.459927962E-02
  8.022610000E-01 -1.008321794E-01
  3.626480000E-01 -9.757613942E-02
  1.139950000E-01  2.301215886E-01
  5.123700000E-02  6.102389764E-01
  2.246800000E-02  2.849406083E-01
  7.860000000E-03  4.026899976E-03
   p   9
  1.311950400E+01  1.524940000E-03
  3.077424200E+00  8.314830000E-03
  1.098800500E+00  1.933203000E-02
  4.357784000E-01  4.934293000E-02
  1.802432000E-01  1.623554000E-01
  7.613330000E-02  3.847505400E-01
  3.254650000E-02  4.336100400E-01
  1.401820000E-02  1.287005900E-01
  4.906400000E-03 -1.018520000E-03
 
[MO]
Sym=     1a  
Ene=    -2.6989
Spin= Alpha
Occup=    1.00000
   1         0.68635219
   2         0.00467726
   3         0.00000000
   4         0.00000000
   5         0.01027497
   6         0.68635219
   7         0.00467726
   8        -0.00000000
   9        -0.00000000
  10        -0.01027497
Sym=     1a  
Ene=    -2.6989
Spin= Beta
Occup=    1.00000
   1         0.68635219
   2         0.00467726
   3         0.00000000
   4         0.00000000
   5         0.01027497
   6         0.68635219
   7         0.00467726
   8        -0.00000000
   9        -0.00000000
  10        -0.01027497
Sym=     2a  
Ene=    -2.5659
Spin= Alpha
Occup=    1.00000
   1        -0.72856599
   2        -0.01101073
   3         0.00000000
   4        -0.00000000
   5        -0.00165877
   6         0.72856599
   7         0.01101073
   8        -0.00000000
   9         0.00000000
  10        -0.00165877
Sym=     2a  
Ene=    -2.5659
Spin= Beta
Occup=    1.00000
   1        -0.72856599
   2        -0.01101073
   3         0.00000000
   4        -0.00000000
   5        -0.00165877
   6         0.72856599
   7         0.01101073
   8        -0.00000000
   9         0.00000000
  10        -0.00165877
Sym=     3a  
Ene=    -0.2140
Spin= Alpha
Occup=    1.00000
   1        -0.10055776
   2         0.51442273
   3         0.00000000
   4        -0.00000000
   5         0.04433492
   6        -0.10055776
   7         0.51442273
   8        -0.00000000
   9        -0.00000000
  10        -0.04433492
Sym=     3a  
Ene=    -0.2140
Spin= Beta
Occup=    1.00000
   1        -0.10055776
   2         0.51442273
   3         0.00000000
   4        -0.00000000
   5         0.04433492
   6        -0.10055776
   7         0.51442273
   8        -0.00000000
   9        -0.00000000
  10        -0.04433492
Sym=     4a  
Ene=    -0.0015
Spin= Alpha
Occup=    0.00000
   1        -0.00000000
   2         0.00000000
   3         0.04818839
   4         0.51615938
   5        -0.00000000
   6         0.00000000
   7        -0.00000000
   8         0.04818839
   9         0.51615938
  10        -0.00000000
Sym=     4a  
Ene=    -0.0015
Spin= Beta
Occup=    0.00000
   1        -0.00000000
   2         0.00000000
   3         0.04818839
   4         0.51615938
   5        -0.00000000
   6         0.00000000
   7        -0.00000000
   8         0.04818839
   9         0.51615938
  10        -0.00000000
Sym=     5a  
Ene=    -0.0015
Spin= Alpha
Occup=    0.00000
   1         0.00000000
   2        -0.00000000
   3         0.51615938
   4        -0.04818839
   5         0.00000000
   6        -0.00000000
   7        -0.00000000
   8         0.51615938
   9        -0.04818839
  10         0.00000000
Sym=     5a  
Ene=    -0.0015
Spin= Beta
Occup=    0.00000
   1         0.00000000
   2        -0.00000000
   3         0.51615938
   4        -0.04818839
   5         0.00000000
   6        -0.00000000
   7        -0.00000000
   8         0.51615938
   9        -0.04818839
  10         0.00000000
Sym=     6a  
Ene=     0.0192
Spin= Alpha
Occup=    0.00000
   1         0.02827981
   2        -0.46119118
   3         0.00000000
   4         0.00000000
   5         0.44359498
   6        -0.02827981
   7         0.46119118
   8        -0.00000000
   9         0.00000000
  10         0.44359498
Sym=     6a  
Ene=     0.0192
Spin= Beta
Occup=    0.00000
   1         0.02827981
   2        -0.46119118
   3         0.00000000
   4         0.00000000
   5         0.44359498
   6        -0.02827981
   7         0.46119118
   8        -0.00000000
   9         0.00000000
  10         0.44359498
Sym=     7a  
Ene=     0.1537
Spin= Alpha
Occup=    0.00000
   1         0.25982971
   2         0.26502843
   3        -0.00000000
   4        -0.00000000
   5        -1.35171563
   6         0.25982971
   7         0.26502843
   8         0.00000000
   9         0.00000000
  10         1.35171563
Sym=     7a  
Ene=     0.1537
Spin= Beta
Occup=    0.00000
   1         0.25982971
   2         0.26502843
   3        -0.00000000
   4        -0.00000000
   5        -1.35171563
   6         0.25982971
   7         0.26502843
   8         0.00000000
   9         0.00000000
  10         1.35171563
Sym=     8a  
Ene=     0.1746
Spin= Alpha
Occup=    0.00000
   1        -0.00000000
   2         0.00000000
   3         0.44178875
   4        -1.84105041
   5         0.00000000
   6        -0.00000000
   7        -0.00000000
   8        -0.44178875
   9         1.84105041
  10        -0.00000000
Sym=     8a  
Ene=     0.1746
Spin= Beta
Occup=    0.00000
   1        -0.00000000
   2         0.00000000
   3         0.44178875
   4        -1.84105041
   5         0.00000000
   6        -0.00000000
   7        -0.00000000
   8        -0.44178875
   9         1.84105041
  10        -0.00000000
Sym=     9a  
Ene=     0.1746
Spin= Alpha
Occup=    0.00000
   1        -0.00000000
   2        -0.00000000
   3        -1.84105041
   4        -0.44178875
   5         0.00000000
   6        -0.00000000
   7         0.00000000
   8         1.84105041
   9         0.44178875
  10        -0.00000000
Sym=     9a  
Ene=     0.1746
Spin= Beta
Occup=    0.00000
   1        -0.00000000
   2        -0.00000000
   3        -1.84105041
   4        -0.44178875
   5         0.00000000
   6        -0.00000000
   7         0.00000000
   8         1.84105041
   9         0.44178875
  10        -0.00000000
Sym=    10a  
Ene=     1.6168
Spin= Alpha
Occup=    0.00000
   1        -2.35496219
   2        -9.72665545
   3         0.00000000
   4        -0.00000000
   5        -2.60570557
   6         2.35496219
   7         9.72665545
   8         0.00000000
   9         0.00000000
  10        -2.60570557
Sym=    10a  
Ene=     1.6168
Spin= Beta
Occup=    0.00000
   1        -2.35496219
   2        -9.72665545
   3         0.00000000
   4        -0.00000000
   5        -2.60570557
   6         2.35496219
   7         9.72665545
   8         0.00000000
   9         0.00000000
  10        -2.60570557
