[Molden Format]
[N_Atoms]
                     2
[Atoms] (AU)
O1          1      8           0.00000000      0.00000000      0.00000000
O2          2      8           0.00000000      0.00000000      2.45664396
[Charge] (Mulliken)
  0.000000000000000E+000
  0.000000000000000E+000
[GTO] (AU)
   1
   s  14
  1.053749500E+05  1.238600013E-04
  1.567924000E+04  5.120100053E-04
  3.534544700E+03  2.152910022E-03
  9.873651600E+02  8.528440089E-03
  3.159787500E+02  3.018049031E-02
  1.116542800E+02  9.099702095E-02
  4.269945100E+01  2.177936423E-01
  1.739559600E+01  3.686245738E-01
  7.438309000E+00  3.366707335E-01
  3.222862000E+00  9.657630101E-02
  1.253877000E+00  2.144520022E-03
  4.951550000E-01  1.194350012E-03
  1.916650000E-01  5.390200056E-04
  6.708300000E-02  2.103400022E-04
   s  14
  1.053749500E+05 -2.815000008E-05
  1.567924000E+04 -1.163000003E-04
  3.534544700E+03 -4.909200013E-04
  9.873651600E+02 -1.946160005E-03
  3.159787500E+02 -7.005300019E-03
  1.116542800E+02 -2.167814006E-02
  4.269945100E+01 -5.641213015E-02
  1.739559600E+01 -1.127053003E-01
  7.438309000E+00 -1.589119704E-01
  3.222862000E+00 -3.355083009E-02
  1.253877000E+00  3.531902810E-01
  4.951550000E-01  5.534199315E-01
  1.916650000E-01  2.301839106E-01
  6.708300000E-02  1.127267003E-02
   p   9
  2.000000000E+02  9.173000030E-04
  4.653336700E+01  7.377140024E-03
  1.462180900E+01  3.483515011E-02
  5.313064000E+00  1.144397004E-01
  2.102525000E+00  2.554966408E-01
  8.502230000E-01  3.722557412E-01
  3.375970000E-01  3.323314911E-01
  1.288920000E-01  1.400847905E-01
  4.511200000E-02  2.395784008E-02
 
   2
   s  14
  1.053749500E+05  1.238600013E-04
  1.567924000E+04  5.120100053E-04
  3.534544700E+03  2.152910022E-03
  9.873651600E+02  8.528440089E-03
  3.159787500E+02  3.018049031E-02
  1.116542800E+02  9.099702095E-02
  4.269945100E+01  2.177936423E-01
  1.739559600E+01  3.686245738E-01
  7.438309000E+00  3.366707335E-01
  3.222862000E+00  9.657630101E-02
  1.253877000E+00  2.144520022E-03
  4.951550000E-01  1.194350012E-03
  1.916650000E-01  5.390200056E-04
  6.708300000E-02  2.103400022E-04
   s  14
  1.053749500E+05 -2.815000008E-05
  1.567924000E+04 -1.163000003E-04
  3.534544700E+03 -4.909200013E-04
  9.873651600E+02 -1.946160005E-03
  3.159787500E+02 -7.005300019E-03
  1.116542800E+02 -2.167814006E-02
  4.269945100E+01 -5.641213015E-02
  1.739559600E+01 -1.127053003E-01
  7.438309000E+00 -1.589119704E-01
  3.222862000E+00 -3.355083009E-02
  1.253877000E+00  3.531902810E-01
  4.951550000E-01  5.534199315E-01
  1.916650000E-01  2.301839106E-01
  6.708300000E-02  1.127267003E-02
   p   9
  2.000000000E+02  9.173000030E-04
  4.653336700E+01  7.377140024E-03
  1.462180900E+01  3.483515011E-02
  5.313064000E+00  1.144397004E-01
  2.102525000E+00  2.554966408E-01
  8.502230000E-01  3.722557412E-01
  3.375970000E-01  3.323314911E-01
  1.288920000E-01  1.400847905E-01
  4.511200000E-02  2.395784008E-02
 
[MO]
Sym=     1a  
Ene=   -20.6880
Spin= Alpha
Occup=    2.00000
   1         0.70699695
   2         0.00098086
   3        -0.00000000
   4         0.00000000
   5         0.00104581
   6         0.70699695
   7         0.00098086
   8         0.00000000
   9        -0.00000000
  10        -0.00104581
Sym=     2a  
Ene=   -20.6840
Spin= Alpha
Occup=    2.00000
   1        -0.70708055
   2         0.00090396
   3         0.00000000
   4        -0.00000000
   5         0.00100985
   6         0.70708055
   7        -0.00090396
   8        -0.00000000
   9         0.00000000
  10         0.00100985
Sym=     3a  
Ene=    -1.6792
Spin= Alpha
Occup=    2.00000
   1        -0.02006378
   2         0.57631697
   3        -0.00000000
   4         0.00000000
   5         0.14153680
   6        -0.02006378
   7         0.57631697
   8         0.00000000
   9        -0.00000000
  10        -0.14153680
Sym=     4a  
Ene=    -1.0793
Spin= Alpha
Occup=    2.00000
   1        -0.00275337
   2        -0.67548399
   3        -0.00000000
   4        -0.00000000
   5         0.24906310
   6         0.00275337
   7         0.67548399
   8        -0.00000000
   9        -0.00000000
  10         0.24906310
Sym=     5a  
Ene=    -0.7654
Spin= Alpha
Occup=    2.00000
   1         0.00000000
   2         0.00000000
   3        -0.23053350
   4         0.60203528
   5         0.00000000
   6        -0.00000000
   7        -0.00000000
   8        -0.23053350
   9         0.60203528
  10         0.00000000
Sym=     6a  
Ene=    -0.7654
Spin= Alpha
Occup=    2.00000
   1        -0.00000000
   2        -0.00000000
   3         0.60203528
   4         0.23053350
   5        -0.00000000
   6         0.00000000
   7         0.00000000
   8         0.60203528
   9         0.23053350
  10        -0.00000000
Sym=     7a  
Ene=    -0.6822
Spin= Alpha
Occup=    2.00000
   1         0.02389957
   2         0.31099916
   3        -0.00000000
   4        -0.00000000
   5        -0.64570520
   6         0.02389957
   7         0.31099916
   8         0.00000000
   9         0.00000000
  10         0.64570520
Sym=     8a  
Ene=    -0.5070
Spin= Alpha
Occup=    1.00000
   1        -0.00000000
   2        -0.00000000
   3        -0.70823632
   4        -0.35473177
   5         0.00000000
   6        -0.00000000
   7        -0.00000000
   8         0.70823632
   9         0.35473177
  10        -0.00000000
Sym=     9a  
Ene=    -0.5070
Spin= Alpha
Occup=    1.00000
   1         0.00000000
   2         0.00000000
   3         0.35473177
   4        -0.70823632
   5         0.00000000
   6        -0.00000000
   7        -0.00000000
   8        -0.35473177
   9         0.70823632
  10         0.00000000
Sym=    10a  
Ene=    -0.3227
Spin= Alpha
Occup=    0.00000
   1         0.05447748
   2         0.63775408
   3         0.00000000
   4         0.00000000
   5         0.88210674
   6        -0.05447748
   7        -0.63775408
   8         0.00000000
   9         0.00000000
  10         0.88210674
