[Molden Format]
[N_Atoms]
                     2
[Atoms] (AU)
O1          1      8           0.00000000      0.00000000      0.00000000
O2          2      8           0.00000000      0.00000000      2.45664396
[Charge] (Mulliken)
  1.687538997430238E-013
 -1.811883976188255E-013
[GTO] (AU)
   1
   s  14
  1.053749500E+05  1.238600013E-04
  1.567924000E+04  5.120100053E-04
  3.534544700E+03  2.152910022E-03
  9.873651600E+02  8.528440089E-03
  3.159787500E+02  3.018049031E-02
  1.116542800E+02  9.099702095E-02
  4.269945100E+01  2.177936423E-01
  1.739559600E+01  3.686245738E-01
  7.438309000E+00  3.366707335E-01
  3.222862000E+00  9.657630101E-02
  1.253877000E+00  2.144520022E-03
  4.951550000E-01  1.194350012E-03
  1.916650000E-01  5.390200056E-04
  6.708300000E-02  2.103400022E-04
   s  14
  1.053749500E+05 -2.815000008E-05
  1.567924000E+04 -1.163000003E-04
  3.534544700E+03 -4.909200013E-04
  9.873651600E+02 -1.946160005E-03
  3.159787500E+02 -7.005300019E-03
  1.116542800E+02 -2.167814006E-02
  4.269945100E+01 -5.641213015E-02
  1.739559600E+01 -1.127053003E-01
  7.438309000E+00 -1.589119704E-01
  3.222862000E+00 -3.355083009E-02
  1.253877000E+00  3.531902810E-01
  4.951550000E-01  5.534199315E-01
  1.916650000E-01  2.301839106E-01
  6.708300000E-02  1.127267003E-02
   p   9
  2.000000000E+02  9.173000030E-04
  4.653336700E+01  7.377140024E-03
  1.462180900E+01  3.483515011E-02
  5.313064000E+00  1.144397004E-01
  2.102525000E+00  2.554966408E-01
  8.502230000E-01  3.722557412E-01
  3.375970000E-01  3.323314911E-01
  1.288920000E-01  1.400847905E-01
  4.511200000E-02  2.395784008E-02
 
   2
   s  14
  1.053749500E+05  1.238600013E-04
  1.567924000E+04  5.120100053E-04
  3.534544700E+03  2.152910022E-03
  9.873651600E+02  8.528440089E-03
  3.159787500E+02  3.018049031E-02
  1.116542800E+02  9.099702095E-02
  4.269945100E+01  2.177936423E-01
  1.739559600E+01  3.686245738E-01
  7.438309000E+00  3.366707335E-01
  3.222862000E+00  9.657630101E-02
  1.253877000E+00  2.144520022E-03
  4.951550000E-01  1.194350012E-03
  1.916650000E-01  5.390200056E-04
  6.708300000E-02  2.103400022E-04
   s  14
  1.053749500E+05 -2.815000008E-05
  1.567924000E+04 -1.163000003E-04
  3.534544700E+03 -4.909200013E-04
  9.873651600E+02 -1.946160005E-03
  3.159787500E+02 -7.005300019E-03
  1.116542800E+02 -2.167814006E-02
  4.269945100E+01 -5.641213015E-02
  1.739559600E+01 -1.127053003E-01
  7.438309000E+00 -1.589119704E-01
  3.222862000E+00 -3.355083009E-02
  1.253877000E+00  3.531902810E-01
  4.951550000E-01  5.534199315E-01
  1.916650000E-01  2.301839106E-01
  6.708300000E-02  1.127267003E-02
   p   9
  2.000000000E+02  9.173000030E-04
  4.653336700E+01  7.377140024E-03
  1.462180900E+01  3.483515011E-02
  5.313064000E+00  1.144397004E-01
  2.102525000E+00  2.554966408E-01
  8.502230000E-01  3.722557412E-01
  3.375970000E-01  3.323314911E-01
  1.288920000E-01  1.400847905E-01
  4.511200000E-02  2.395784008E-02
 
[MO]
Sym=     1a  
Ene=   -20.8590
Spin= Alpha
Occup=    2.00000
   1         0.70703532
   2        -0.00050481
   3        -0.00000000
   4        -0.00000000
   5         0.00091563
   6         0.70703530
   7        -0.00050481
   8        -0.00000000
   9        -0.00000000
  10        -0.00091563
Sym=     2a  
Ene=   -20.8580
Spin= Alpha
Occup=    2.00000
   1        -0.70721548
   2        -0.00046504
   3        -0.00000000
   4        -0.00000000
   5        -0.00132160
   6         0.70721551
   7         0.00046504
   8        -0.00000000
   9         0.00000000
  10        -0.00132160
Sym=     3a  
Ene=    -1.6416
Spin= Alpha
Occup=    2.00000
   1         0.01926481
   2        -0.56414060
   3        -0.00000000
   4         0.00000000
   5        -0.16586353
   6         0.01926481
   7        -0.56414060
   8         0.00000000
   9         0.00000000
  10         0.16586353
Sym=     4a  
Ene=    -1.1764
Spin= Alpha
Occup=    2.00000
   1        -0.00979446
   2        -0.75220038
   3         0.00000000
   4        -0.00000000
   5         0.13304050
   6         0.00979446
   7         0.75220038
   8         0.00000000
   9        -0.00000000
  10         0.13304050
Sym=     5a  
Ene=    -0.7278
Spin= Alpha
Occup=    2.00000
   1         0.02341738
   2         0.33257754
   3        -0.00000000
   4         0.00000000
   5        -0.63988860
   6         0.02341738
   7         0.33257754
   8        -0.00000000
   9         0.00000000
  10         0.63988860
Sym=     6a  
Ene=    -0.7193
Spin= Alpha
Occup=    2.00000
   1         0.00000000
   2         0.00000000
   3        -0.45938860
   4        -0.45227678
   5        -0.00000000
   6         0.00000000
   7         0.00000000
   8        -0.45938860
   9        -0.45227678
  10         0.00000000
Sym=     7a  
Ene=    -0.7193
Spin= Alpha
Occup=    2.00000
   1         0.00000000
   2         0.00000000
   3         0.45227678
   4        -0.45938860
   5        -0.00000000
   6         0.00000000
   7         0.00000000
   8         0.45227678
   9        -0.45938860
  10         0.00000000
Sym=     8a  
Ene=    -0.3072
Spin= Alpha
Occup=    1.00000
   1         0.00000000
   2        -0.00000000
   3         0.66989141
   4        -0.42270416
   5         0.00000000
   6        -0.00000000
   7        -0.00000000
   8        -0.66989141
   9         0.42270416
  10         0.00000000
Sym=     9a  
Ene=     0.0000
Spin= Alpha
Occup=    1.00000
   1         0.00000000
   2         0.00000000
   3        -0.42270416
   4        -0.66989141
   5        -0.00000000
   6        -0.00000000
   7         0.00000000
   8         0.42270416
   9         0.66989141
  10         0.00000000
Sym=    10a  
Ene=     0.3104
Spin= Alpha
Occup=    0.00000
   1         0.05185160
   2         0.54516427
   3        -0.00000000
   4         0.00000000
   5         0.90688711
   6        -0.05185160
   7        -0.54516427
   8        -0.00000000
   9        -0.00000000
  10         0.90688711
