[Molden Format]
[N_Atoms]
                     2
[Atoms] (AU)
C1          1      6           0.00000000      0.00000000      0.00000000
C2          2      6           0.00000000      0.00000000      4.53534270
[Charge] (Mulliken)
 -3.847588914140943E-012
  3.847588914140943E-012
[GTO] (AU)
   1
   s  14
  5.055750100E+04  1.128874000E-04
  7.524785600E+03  5.295373000E-04
  1.694327600E+03  2.450038300E-03
  4.728227900E+02  1.005398470E-02
  1.517107500E+02  3.545398060E-02
  5.391874600E+01  1.044071086E-01
  2.065931100E+01  2.412894918E-01
  8.383976000E+00  3.834225483E-01
  3.577015000E+00  3.078514393E-01
  1.547118000E+00  6.872442990E-02
  6.130130000E-01  2.224445000E-04
  2.460680000E-01  1.976748900E-03
  9.908700000E-02  2.057859400E-03
  3.468000000E-02  4.182020000E-04
   s  14
  5.055750100E+04 -2.507420000E-05
  7.524785600E+03 -1.175945000E-04
  1.694327600E+03 -5.456275000E-04
  4.728227900E+02 -2.245077100E-03
  1.517107500E+02 -8.043471800E-03
  5.391874600E+01 -2.442588710E-02
  2.065931100E+01 -6.136791180E-02
  8.383976000E+00 -1.177767835E-01
  3.577015000E+00 -1.550487783E-01
  1.547118000E+00 -1.933316860E-02
  6.130130000E-01  3.996930678E-01
  2.460680000E-01  5.589420949E-01
  9.908700000E-02  1.711195023E-01
  3.468000000E-02  7.456244600E-03
   p   9
  8.333315500E+01  1.344656000E-03
  1.955761100E+01  1.023555500E-02
  6.080365000E+00  4.520067100E-02
  2.179317000E+00  1.410756198E-01
  8.651500000E-01  3.047388085E-01
  3.619440000E-01  3.995281011E-01
  1.547400000E-01  2.719163432E-01
  6.542900000E-02  5.857669330E-02
  2.290000000E-02 -1.263813000E-04
 
   2
   s  14
  5.055750100E+04  1.128874000E-04
  7.524785600E+03  5.295373000E-04
  1.694327600E+03  2.450038300E-03
  4.728227900E+02  1.005398470E-02
  1.517107500E+02  3.545398060E-02
  5.391874600E+01  1.044071086E-01
  2.065931100E+01  2.412894918E-01
  8.383976000E+00  3.834225483E-01
  3.577015000E+00  3.078514393E-01
  1.547118000E+00  6.872442990E-02
  6.130130000E-01  2.224445000E-04
  2.460680000E-01  1.976748900E-03
  9.908700000E-02  2.057859400E-03
  3.468000000E-02  4.182020000E-04
   s  14
  5.055750100E+04 -2.507420000E-05
  7.524785600E+03 -1.175945000E-04
  1.694327600E+03 -5.456275000E-04
  4.728227900E+02 -2.245077100E-03
  1.517107500E+02 -8.043471800E-03
  5.391874600E+01 -2.442588710E-02
  2.065931100E+01 -6.136791180E-02
  8.383976000E+00 -1.177767835E-01
  3.577015000E+00 -1.550487783E-01
  1.547118000E+00 -1.933316860E-02
  6.130130000E-01  3.996930678E-01
  2.460680000E-01  5.589420949E-01
  9.908700000E-02  1.711195023E-01
  3.468000000E-02  7.456244600E-03
   p   9
  8.333315500E+01  1.344656000E-03
  1.955761100E+01  1.023555500E-02
  6.080365000E+00  4.520067100E-02
  2.179317000E+00  1.410756198E-01
  8.651500000E-01  3.047388085E-01
  3.619440000E-01  3.995281011E-01
  1.547400000E-01  2.719163432E-01
  6.542900000E-02  5.857669330E-02
  2.290000000E-02 -1.263813000E-04
 
[MO]
Sym=     1a  
Ene=   -11.2870
Spin= Alpha
Occup=    1.00000
   1         0.70706875
   2        -0.00214611
   3         0.00000000
   4         0.00000000
   5         0.00041870
   6         0.70706875
   7        -0.00214611
   8        -0.00000000
   9        -0.00000000
  10        -0.00041870
Sym=     1a  
Ene=   -11.2870
Spin= Beta
Occup=    1.00000
   1         0.70706875
   2        -0.00214611
   3         0.00000000
   4         0.00000000
   5         0.00041870
   6         0.70706875
   7        -0.00214611
   8        -0.00000000
   9        -0.00000000
  10        -0.00041870
Sym=     2a  
Ene=   -11.2870
Spin= Alpha
Occup=    1.00000
   1        -0.70714657
   2         0.00156429
   3         0.00000000
   4         0.00000000
   5        -0.00075057
   6         0.70714658
   7        -0.00156429
   8        -0.00000000
   9         0.00000000
  10        -0.00075057
Sym=     2a  
Ene=   -11.2870
Spin= Beta
Occup=    1.00000
   1        -0.70714657
   2         0.00156429
   3         0.00000000
   4         0.00000000
   5        -0.00075057
   6         0.70714658
   7        -0.00156429
   8        -0.00000000
   9         0.00000000
  10        -0.00075057
Sym=     3a  
Ene=    -0.7469
Spin= Alpha
Occup=    1.00000
   1        -0.00224039
   2         0.66176520
   3         0.00000000
   4        -0.00000000
   5         0.06568547
   6        -0.00224039
   7         0.66176520
   8         0.00000000
   9        -0.00000000
  10        -0.06568547
Sym=     3a  
Ene=    -0.7469
Spin= Beta
Occup=    1.00000
   1        -0.00224039
   2         0.66176520
   3         0.00000000
   4        -0.00000000
   5         0.06568547
   6        -0.00224039
   7         0.66176520
   8         0.00000000
   9        -0.00000000
  10        -0.06568547
Sym=     4a  
Ene=    -0.6519
Spin= Alpha
Occup=    1.00000
   1        -0.00441112
   2        -0.72608338
   3         0.00000000
   4        -0.00000000
   5         0.08526031
   6         0.00441112
   7         0.72608338
   8         0.00000000
   9        -0.00000000
  10         0.08526031
Sym=     4a  
Ene=    -0.6519
Spin= Beta
Occup=    1.00000
   1        -0.00441112
   2        -0.72608338
   3         0.00000000
   4        -0.00000000
   5         0.08526031
   6         0.00441112
   7         0.72608338
   8         0.00000000
   9        -0.00000000
  10         0.08526031
Sym=     5a  
Ene=    -0.2872
Spin= Alpha
Occup=    1.00000
   1         0.00836756
   2         0.15966631
   3        -0.00000000
   4         0.00000000
   5        -0.65386475
   6         0.00836756
   7         0.15966631
   8         0.00000000
   9        -0.00000000
  10         0.65386475
Sym=     5a  
Ene=    -0.2872
Spin= Beta
Occup=    1.00000
   1         0.00836756
   2         0.15966631
   3        -0.00000000
   4         0.00000000
   5        -0.65386475
   6         0.00836756
   7         0.15966631
   8         0.00000000
   9        -0.00000000
  10         0.65386475
Sym=     6a  
Ene=    -0.2348
Spin= Alpha
Occup=    1.00000
   1        -0.00000000
   2        -0.00000000
   3        -0.32993435
   4         0.60058834
   5        -0.00000000
   6         0.00000000
   7         0.00000000
   8        -0.32993435
   9         0.60058834
  10        -0.00000000
Sym=     6a  
Ene=    -0.2348
Spin= Beta
Occup=    1.00000
   1        -0.00000000
   2        -0.00000000
   3        -0.32993435
   4         0.60058834
   5        -0.00000000
   6         0.00000000
   7         0.00000000
   8        -0.32993435
   9         0.60058834
  10        -0.00000000
Sym=     7a  
Ene=     0.0265
Spin= Alpha
Occup=    0.00000
   1         0.00000000
   2         0.00000000
   3         0.35206101
   4        -0.64086610
   5        -0.00000000
   6         0.00000000
   7         0.00000000
   8        -0.35206101
   9         0.64086610
  10         0.00000000
Sym=     7a  
Ene=     0.0265
Spin= Beta
Occup=    0.00000
   1         0.00000000
   2         0.00000000
   3         0.35206101
   4        -0.64086610
   5        -0.00000000
   6         0.00000000
   7         0.00000000
   8        -0.35206101
   9         0.64086610
  10         0.00000000
Sym=     8a  
Ene=     0.0898
Spin= Alpha
Occup=    0.00000
   1         0.00000000
   2         0.00000000
   3         0.60058834
   4         0.32993435
   5         0.00000000
   6        -0.00000000
   7        -0.00000000
   8         0.60058834
   9         0.32993435
  10         0.00000000
Sym=     8a  
Ene=     0.0898
Spin= Beta
Occup=    0.00000
   1         0.00000000
   2         0.00000000
   3         0.60058834
   4         0.32993435
   5         0.00000000
   6        -0.00000000
   7        -0.00000000
   8         0.60058834
   9         0.32993435
  10         0.00000000
Sym=     9a  
Ene=     0.1295
Spin= Alpha
Occup=    0.00000
   1         0.01097758
   2         0.21607811
   3        -0.00000000
   4         0.00000000
   5         0.78935227
   6        -0.01097758
   7        -0.21607811
   8        -0.00000000
   9         0.00000000
  10         0.78935227
Sym=     9a  
Ene=     0.1295
Spin= Beta
Occup=    0.00000
   1         0.01097758
   2         0.21607811
   3        -0.00000000
   4         0.00000000
   5         0.78935227
   6        -0.01097758
   7        -0.21607811
   8        -0.00000000
   9         0.00000000
  10         0.78935227
Sym=    10a  
Ene=     0.1489
Spin= Alpha
Occup=    0.00000
   1         0.00000000
   2         0.00000000
   3        -0.64086610
   4        -0.35206101
   5         0.00000000
   6        -0.00000000
   7        -0.00000000
   8         0.64086610
   9         0.35206101
  10         0.00000000
Sym=    10a  
Ene=     0.1489
Spin= Beta
Occup=    0.00000
   1         0.00000000
   2         0.00000000
   3        -0.64086610
   4        -0.35206101
   5         0.00000000
   6        -0.00000000
   7        -0.00000000
   8         0.64086610
   9         0.35206101
  10         0.00000000
