[Molden Format]
[N_Atoms]
                     2
[Atoms] (AU)
C1          1      6           0.00000000      0.00000000      0.00000000
C2          2      6           0.00000000      0.00000000      4.53534270
[Charge] (Mulliken)
 -9.443507309470078E-009
  9.443491322258524E-009
[GTO] (AU)
   1
   s  14
  5.055750100E+04  1.128874000E-04
  7.524785600E+03  5.295373000E-04
  1.694327600E+03  2.450038300E-03
  4.728227900E+02  1.005398470E-02
  1.517107500E+02  3.545398060E-02
  5.391874600E+01  1.044071086E-01
  2.065931100E+01  2.412894918E-01
  8.383976000E+00  3.834225483E-01
  3.577015000E+00  3.078514393E-01
  1.547118000E+00  6.872442990E-02
  6.130130000E-01  2.224445000E-04
  2.460680000E-01  1.976748900E-03
  9.908700000E-02  2.057859400E-03
  3.468000000E-02  4.182020000E-04
   s  14
  5.055750100E+04 -2.507420000E-05
  7.524785600E+03 -1.175945000E-04
  1.694327600E+03 -5.456275000E-04
  4.728227900E+02 -2.245077100E-03
  1.517107500E+02 -8.043471800E-03
  5.391874600E+01 -2.442588710E-02
  2.065931100E+01 -6.136791180E-02
  8.383976000E+00 -1.177767835E-01
  3.577015000E+00 -1.550487783E-01
  1.547118000E+00 -1.933316860E-02
  6.130130000E-01  3.996930678E-01
  2.460680000E-01  5.589420949E-01
  9.908700000E-02  1.711195023E-01
  3.468000000E-02  7.456244600E-03
   p   9
  8.333315500E+01  1.344656000E-03
  1.955761100E+01  1.023555500E-02
  6.080365000E+00  4.520067100E-02
  2.179317000E+00  1.410756198E-01
  8.651500000E-01  3.047388085E-01
  3.619440000E-01  3.995281011E-01
  1.547400000E-01  2.719163432E-01
  6.542900000E-02  5.857669330E-02
  2.290000000E-02 -1.263813000E-04
 
   2
   s  14
  5.055750100E+04  1.128874000E-04
  7.524785600E+03  5.295373000E-04
  1.694327600E+03  2.450038300E-03
  4.728227900E+02  1.005398470E-02
  1.517107500E+02  3.545398060E-02
  5.391874600E+01  1.044071086E-01
  2.065931100E+01  2.412894918E-01
  8.383976000E+00  3.834225483E-01
  3.577015000E+00  3.078514393E-01
  1.547118000E+00  6.872442990E-02
  6.130130000E-01  2.224445000E-04
  2.460680000E-01  1.976748900E-03
  9.908700000E-02  2.057859400E-03
  3.468000000E-02  4.182020000E-04
   s  14
  5.055750100E+04 -2.507420000E-05
  7.524785600E+03 -1.175945000E-04
  1.694327600E+03 -5.456275000E-04
  4.728227900E+02 -2.245077100E-03
  1.517107500E+02 -8.043471800E-03
  5.391874600E+01 -2.442588710E-02
  2.065931100E+01 -6.136791180E-02
  8.383976000E+00 -1.177767835E-01
  3.577015000E+00 -1.550487783E-01
  1.547118000E+00 -1.933316860E-02
  6.130130000E-01  3.996930678E-01
  2.460680000E-01  5.589420949E-01
  9.908700000E-02  1.711195023E-01
  3.468000000E-02  7.456244600E-03
   p   9
  8.333315500E+01  1.344656000E-03
  1.955761100E+01  1.023555500E-02
  6.080365000E+00  4.520067100E-02
  2.179317000E+00  1.410756198E-01
  8.651500000E-01  3.047388085E-01
  3.619440000E-01  3.995281011E-01
  1.547400000E-01  2.719163432E-01
  6.542900000E-02  5.857669330E-02
  2.290000000E-02 -1.263813000E-04
 
[MO]
Sym=     1a  
Ene=   -11.2860
Spin= Alpha
Occup=    2.00000
   1         0.70707687
   2        -0.00204787
   3         0.00000000
   4         0.00000000
   5        -0.00011870
   6         0.70707405
   7        -0.00204793
   8        -0.00000000
   9        -0.00000000
  10         0.00011870
Sym=     2a  
Ene=   -11.2850
Spin= Alpha
Occup=    2.00000
   1        -0.70704627
   2         0.00949318
   3         0.00000000
   4         0.00000000
   5        -0.00078607
   6         0.70704908
   7        -0.00949324
   8        -0.00000000
   9         0.00000000
  10        -0.00078606
Sym=     3a  
Ene=    -0.7467
Spin= Alpha
Occup=    2.00000
   1        -0.00186711
   2         0.66805146
   3         0.00000000
   4         0.00000000
   5         0.03735732
   6        -0.00186715
   7         0.66804634
   8         0.00000000
   9        -0.00000000
  10        -0.03735761
Sym=     4a  
Ene=    -0.2391
Spin= Alpha
Occup=    2.00000
   1         0.00000000
   2        -0.00000000
   3         0.02862476
   4         0.68464856
   5         0.00000000
   6        -0.00000000
   7         0.00000000
   8         0.02862476
   9         0.68464856
  10         0.00000000
Sym=     5a  
Ene=    -0.2391
Spin= Alpha
Occup=    2.00000
   1         0.00000000
   2        -0.00000000
   3         0.68464856
   4        -0.02862476
   5        -0.00000000
   6        -0.00000000
   7        -0.00000000
   8         0.68464856
   9        -0.02862476
  10        -0.00000000
Sym=     6a  
Ene=    -0.6499
Spin= Alpha
Occup=    1.98458
   1        -0.01253359
   2        -0.73686174
   3        -0.00000000
   4        -0.00000000
   5         0.04146414
   6         0.01253368
   7         0.73686637
   8         0.00000000
   9        -0.00000000
  10         0.04146388
Sym=     7a  
Ene=     0.0000
Spin= Alpha
Occup=    0.01542
   1         0.00787800
   2         0.13091120
   3        -0.00000000
   4        -0.00000000
   5        -0.65609058
   6         0.00787793
   7         0.13091005
   8         0.00000000
   9        -0.00000000
  10         0.65609580
Sym=     8a  
Ene=     0.0213
Spin= Alpha
Occup=    0.00000
   1        -0.00000000
   2        -0.00000000
   3         0.17638457
   4         0.70960890
   5        -0.00000000
   6        -0.00000000
   7        -0.00000000
   8        -0.17638457
   9        -0.70960890
  10        -0.00000000
Sym=     9a  
Ene=     0.0213
Spin= Alpha
Occup=    0.00000
   1         0.00000000
   2        -0.00000000
   3         0.70960890
   4        -0.17638457
   5         0.00000000
   6        -0.00000000
   7        -0.00000000
   8        -0.70960890
   9         0.17638457
  10         0.00000000
Sym=    10a  
Ene=     0.2311
Spin= Alpha
Occup=    0.00000
   1        -0.01107855
   2        -0.17558576
   3        -0.00000000
   4        -0.00000000
   5        -0.79286218
   6         0.01107860
   7         0.17558663
   8        -0.00000000
   9         0.00000000
  10        -0.79285786
