   This run of MOLCAS is using the pymolcas driver

                             OPE
                             OPE          NMOL  CASOP  ENMOLC A   SO
                 OPE        NMOLC        AS  OP EN  MO LC     AS  OP
                OPENM       OL CA        SO  PE NM  OL CA     SOP EN
                OP EN      MO   LC       AS  OP ENMOL  CASO   PENMOL
                OP  EN     MO   LC       AS  OP EN     MO     LC ASO
               OP   E  NMOL  C  AS       OP  EN MO     LC     AS  OP
               OP  E   NMO   LC AS        OPEN  MO     LCASOP EN   M
               O  PEN   MO  LCA  SO
            OPE   NMO   L   CAS    OP
        OPENMOL  CASOP     ENMOL   CASOPE
     OPENMOLCA   SOPENMOLCASOPEN   MOLCASOPE
    OPENMOLCAS   OP           EN   MOL    CAS
    OPENMOLCAS       OP  ENM        O     LCA
    OPENMOLCAS    OPEN  MOLCASO     P  E  NMO
    OPENMOLCAS     OP               E  N  MOL
    OPENMOLCA   SO           PENM   O  L  CAS    OPEN    MO    LCAS
    OPENMOLCA   SOP           ENM   O  L  CAS   OP  EN  MOLC  AS   O
    OPENMOLCA   SOPE           NM      O  LCA   S      OP  EN MO
    OPENMOLC                AS         O  PEN   M      OL  CA  SOPE
    OPENMO        LCASOPE  NMOL        C  ASO   P      ENMOLC     AS
    OPE     NMO      LCA  SO     P     E   NM   OL  CA SO  PE N   MO
          OPENMOLCA            SOPE   NMO        LCAS  O    P  ENMO
     OPENMOLCASOPENMOLCASOPENMOLCASOPENMOLCA
        OPENMOLCASOPENMOLCASOPENMOLCASOPE
            OPENMOLCASOPENMOLCASOPENM
               OPENMOLCASOPENMOLCA        version: 1d1d16313-dirty
                   OPENMOLCASO
                       OPE                tag:

 OpenMolcas is free software; you can redistribute it and/or modify it
 under the terms of the GNU Lesser General Public License version 2.1.
 OpenMolcas is distributed in the hope that it will be useful, but it
 is provided "as is" and without any express or implied warranties.
 For more details see the full text of the license in the file
 LICENSE or in <http://www.gnu.org/licenses/>.

                 Copyright (C) The OpenMolcas Authors
           For the author list and the recommended citation,
                   consult the file CONTRIBUTORS.md

           *************************************************
           * pymolcas version py2.28                       *
           *   build c4a6d18ded8cb6cad61d2372a9abd97c      *
           *   (after the EMIL interpreter by V. Veryazov) *
           *************************************************

configuration info
------------------
C Compiler ID: IntelLLVM
C flags: -std=gnu99
Fortran Compiler ID: IntelLLVM
Fortran flags: -standard-semantics -fltconsistency -fpp -i8 -heap-arrays
Definitions: _MOLCAS_;_I8_;_LINUX_
Parallel: OFF (GA=OFF)


   --------------------------------------------------------------------------------
  |
  |              Project: ozone_142.25
  |       Submitted from: /home/grierjones/DDCASPT2/ozone/ANO-RCC-VDZP/ozone_142.25
  |         Scratch area: /tmp/ozone_142.25
  |      Save outputs to: /home/grierjones/DDCASPT2/ozone/ANO-RCC-VDZP/ozone_142.25
  |               Molcas: /home/grierjones/Test/build
  |
  | Scratch area is empty
  |
  |       MOLCAS_DRIVER = /usr/local/pymolcas
  | MOLCAS_KEEP_WORKDIR = NO
  |  MOLCAS_NEW_WORKDIR = YES
  |       MOLCAS_NPROCS = 1
  |        MOLCAS_PRINT = NORMAL
  |       MOLCAS_SOURCE = /home/grierjones/Test
  |    MOLCAS_STRUCTURE = 0
  |
   --------------------------------------------------------------------------------

++ ---------   Input file   ---------

&GATEWAY
coord=ozone_142.25.xyz
Basis = ANO-RCC-VDZP
Group = nosymm
Expert
End of Input

&SEWARD
End of Input

&SCF

>>> COPY $WorkDir/ozone_142.25.scf.h5 $CurrDir/

&RASSCF
Title= RASSCF
FileOrb
/home/grierjones/DDCASPT2/ozone/ANO-RCC-VDZP/ozone_142.00/ozone_142.00.RasOrb
NACTEL
4 0 0
Inactive
10
RAS2
3
Symmetry
1
Spin
1
orblisting
all
ITERation
300 200

>>> COPY $WorkDir/ozone_142.25.rasscf.h5 $CurrDir/

>>> COPY $WorkDir/GMJ_Fock_MO.csv $CurrDir/ozone_142.25.GMJ_Fock_MO.csv

>>> COPY $WorkDir/GMJ_PT2_Fock_MO.csv $CurrDir/ozone_142.25.GMJ_PT2_Fock_MO.csv

&MOTRA
Frozen=0
LUMORB

>>> COPY $WorkDir/GMJ_one_int_indx.csv $CurrDir/ozone_142.25.GMJ_one_int_indx.csv

>>> COPY $WorkDir/GMJ_one_int.csv $CurrDir/ozone_142.25.GMJ_one_int.csv

>>> COPY $WorkDir/GMJ_two_int_indx.csv $CurrDir/ozone_142.25.GMJ_two_int_indx.csv

>>> COPY $WorkDir/GMJ_two_int.csv $CurrDir/ozone_142.25.GMJ_two_int.csv

&CASPT2
Frozen
0
MAXITER
50

>>> FOREACH i IN (B,E,F,G,H)

  >>> FOREACH j IN (P,M)

    >>> IF (-FILE GMJ_e2_${i}_${j}.csv)

      >>> COPY $WorkDir/GMJ_RHS_${i}_${j}.csv $CurrDir/GMJ_RHS_${i}_${j}.csv

      >>> COPY $WorkDir/GMJ_IVECW_${i}_${j}.csv $CurrDir/GMJ_IVECW_${i}_${j}.csv

      >>> COPY $WorkDir/GMJ_IVECX_${i}_${j}.csv $CurrDir/GMJ_IVECX_${i}_${j}.csv

      >>> COPY $WorkDir/GMJ_IVECC2_${i}_${j}.csv $CurrDir/GMJ_IVECC2_${i}_${j}.csv

      >>> COPY $WorkDir/GMJ_e2_${i}_${j}.csv $CurrDir/GMJ_e2_${i}_${j}.csv

    >>> END IF

  >>> END FOREACH

>>> END FOREACH

>>> FOREACH i IN (A,C,D)

  >>> IF (-FILE GMJ_e2_$i.csv)

    >>> COPY $WorkDir/GMJ_RHS_$i.csv $CurrDir/GMJ_RHS_$i.csv

    >>> COPY $WorkDir/GMJ_IVECW_$i.csv $CurrDir/GMJ_IVECW_$i.csv

    >>> COPY $WorkDir/GMJ_IVECX_$i.csv $CurrDir/GMJ_IVECX_$i.csv

    >>> COPY $WorkDir/GMJ_IVECC2_$i.csv $CurrDir/GMJ_IVECC2_$i.csv

    >>> COPY $WorkDir/GMJ_e2_$i.csv $CurrDir/GMJ_e2_$i.csv

  >>> END IF

>>> END FOREACH

-- ----------------------------------

--- Start Module: gateway at Fri Jan 24 16:29:39 2025 ---
 
()()()()()()()()()()()()()()()()()()()()()()()()()()()()()()()()()()()()()()()()()()()()()()()()()()

                                              &GATEWAY

                                   only a single process is used
                       available to each process: 2.0 GB of memory, 1 thread?
()()()()()()()()()()()()()()()()()()()()()()()()()()()()()()()()()()()()()()()()()()()()()()()()()()
 
 ###############################################################################
 ###############################################################################
 ###                                                                         ###
 ###                                                                         ###
 ###                                                                         ###
 ###    WARNING: EXPERT option is ON!                                        ###
 ###                                                                         ###
 ###                                                                         ###
 ###############################################################################
 ###############################################################################
 
++    Symmetry information:
      ---------------------
 
                    Character Table for C1 
 
                             E  
                    a        1  x, y, xy, Rz, z, xz, Ry, yz, Rx, I
--
 
 
++    Basis set information:
      ----------------------
 
 
      Basis set label: O.ANO-RCC...3S2P1D.
 
      Electronic valence basis set:
      ------------------
      Associated Effective Charge   8.000000 au
      Associated Actual Charge      8.000000 au
      Nuclear Model: Point charge
 
      Shell  nPrim  nBasis  Cartesian Spherical Contaminant
         s      14       3        X                  
         p       9       2        X                  
         d       4       1                 X         
--
 
 
++    Molecular structure info:
      -------------------------
 
                    ************************************************ 
                    **** Cartesian Coordinates / Bohr, Angstrom **** 
                    ************************************************ 
 
     Center  Label                x              y              z                     x              y              z
        1      O1               0.781286       2.285204       0.000000              0.413439       1.209278       0.000000
        2      O2               0.000000       0.000000       0.000000              0.000000       0.000000       0.000000
        3      O3               0.781286      -2.285204       0.000000              0.413439      -1.209278       0.000000
 
                    *************************************** 
                    *    InterNuclear Distances / Bohr    * 
                    *************************************** 
 
               1 O1            2 O2            3 O3    
    1 O1       0.000000
    2 O2       2.415071        0.000000
    3 O3       4.570408        2.415071        0.000000
 
                    ******************************************* 
                    *    InterNuclear Distances / Angstrom    * 
                    ******************************************* 
 
               1 O1            2 O2            3 O3    
    1 O1       0.000000
    2 O2       1.278000        0.000000
    3 O3       2.418556        1.278000        0.000000
 
                    ************************************** 
                    *    Valence Bond Angles / Degree    * 
                    ************************************** 
                          Atom centers                 Phi
                      1 O1       2 O2       3 O3       142.25
--
 
 
            Nuclear Potential Energy             67.00364154 au
 
 ###############################################################################
 ###############################################################################
 ###                                                                         ###
 ###                                                                         ###
 ###    There were warnings during the execution                             ###
 ###    Please, check the output with care!                                  ###
 ###                                                                         ###
 ###                                                                         ###
 ###############################################################################
 ###############################################################################
--- Stop Module: gateway at Fri Jan 24 16:29:39 2025 /rc=_RC_ALL_IS_WELL_ ---
*** files: xmldump
    saved to directory /home/grierjones/DDCASPT2/ozone/ANO-RCC-VDZP/ozone_142.25

--- Start Module: seward at Fri Jan 24 16:29:39 2025 ---
 
()()()()()()()()()()()()()()()()()()()()()()()()()()()()()()()()()()()()()()()()()()()()()()()()()()

                                              &SEWARD

                                   only a single process is used
                       available to each process: 2.0 GB of memory, 1 thread?
()()()()()()()()()()()()()()()()()()()()()()()()()()()()()()()()()()()()()()()()()()()()()()()()()()
 
 ###############################################################################
 ###############################################################################
 ###                                                                         ###
 ###                                                                         ###
 ###                                                                         ###
 ###    WARNING: EXPERT option is ON!                                        ###
 ###                                                                         ###
 ###                                                                         ###
 ###############################################################################
 ###############################################################################
               SEWARD will generate:
                  Multipole Moment integrals up to order  2
                  Kinetic Energy integrals
                  Nuclear Attraction integrals (point charge)
                  One-Electron Hamiltonian integrals
                  Velocity integrals
                  Relativistic Douglas-Kroll-Hess integrals:
                    - Parametrization         : EXP
                    - DKH order of Hamiltonian: 2
                    - DKH order of Properties : 0
                         - multipole moment operators
                         - electric potential operators
                         - contact operators
                  Atomic mean-field integrals
                  Two-Electron Repulsion integrals
 
                   Integrals are discarded if absolute value <: 0.10E-13
                   Integral cutoff threshold is set to       <: 0.10E-15
 
            Nuclear Potential Energy             67.00364154 au
 
 
      Basis set specifications :
      Symmetry species         a  
      Basis functions           42
 
 
  Input file to MOLDEN was generated!
 
 ###############################################################################
 ###############################################################################
 ###                                                                         ###
 ###                                                                         ###
 ###    There were warnings during the execution                             ###
 ###    Please, check the output with care!                                  ###
 ###                                                                         ###
 ###                                                                         ###
 ###############################################################################
 ###############################################################################
forrtl: warning (525): IEEE_DIVIDE_BY_ZERO is signaling
forrtl: warning (526): IEEE_INVALID is signaling
forrtl: warning (528): IEEE_UNDERFLOW is signaling
--- Stop Module: seward at Fri Jan 24 16:29:40 2025 /rc=_RC_ALL_IS_WELL_ ---
*** files: ozone_142.25.GssOrb ozone_142.25.guessorb.h5 ozone_142.25.guessorb.molden xmldump
    saved to directory /home/grierjones/DDCASPT2/ozone/ANO-RCC-VDZP/ozone_142.25

*** symbolic link created: INPORB -> ozone_142.25.GssOrb
--- Start Module: scf at Fri Jan 24 16:29:40 2025 ---
 
()()()()()()()()()()()()()()()()()()()()()()()()()()()()()()()()()()()()()()()()()()()()()()()()()()

                                                &SCF

                                   only a single process is used
                       available to each process: 2.0 GB of memory, 1 thread?
()()()()()()()()()()()()()()()()()()()()()()()()()()()()()()()()()()()()()()()()()()()()()()()()()()
 
++    Input section:
      --------------
 
      Header of the integral files:
      
       Integrals generated by seward 4.2.0  , Fri Jan 24 16:29:39 2025
 
 
      Cartesian coordinates in Angstrom:
      -----------------------------------------------------
      No.  Label        X            Y            Z        
      -----------------------------------------------------
       1   O1         0.41343900   1.20927800   0.00000000
       2   O2         0.00000000   0.00000000   0.00000000
       3   O3         0.41343900  -1.20927800   0.00000000
      -----------------------------------------------------
      Nuclear repulsion energy =   67.00364154
--
 
++    Orbital specifications:
      -----------------------
 
      Symmetry species               1
                                     a
      Frozen orbitals                0
      Occupied orbitals             12
      Secondary orbitals            30
      Deleted orbitals               0
      Total number of orbitals      42
      Number of basis functions     42
--
 
      Molecular charge                           0.000
 
++    Optimization specifications:
      ----------------------------
 
      SCF Algorithm: Conventional
      Minimized density differences are used
      Number of density matrices in core                5
      Maximum number of NDDO SCF iterations           400
      Maximum number of HF SCF iterations             400
      Threshold for SCF energy change            0.10E-08
      Threshold for density matrix               0.10E-03
      Threshold for Fock matrix                  0.15E-03
      Threshold for linear dependence            0.10E-08
      Threshold at which DIIS is turned on       0.15E+00
      Threshold at which QNR/C2DIIS is turned on 0.75E-01
      Threshold for Norm(delta) (QNR/C2DIIS)     0.20E-04
      DIIS extrapolation of the SCF procedure
      All orbitals punched on: SCFORB
--
 
      Input vectors read from INPORB
      Orbital file label: *Guess orbitals
 
 
++ Convergence information
                                   SCF        iterations: Energy and convergence statistics
 
Iter     Tot. SCF        One-elec.       Two-elec.     Energy      Max Dij or  Max Fij      DNorm      TNorm      AccCon     Time
         Energy          Energy          Energy        Change      Delta Norm                                                in Sec.
   1  -223.915528516  -437.713005668   146.793835611   0.00E+00    0.60E+00*   0.26E+00*    0.73E+01   0.75E+02   None         0.
   2  -224.131651589  -443.739940787   152.604647658  -0.22E+00*   0.26E+00*   0.17E+00*    0.23E+01   0.77E+02   EDIIS        0.
   3  -224.414391816  -441.212336372   149.794303016  -0.28E+00*   0.23E+00*   0.96E-01*    0.77E+00   0.76E+02   EDIIS        0.
   4  -224.416580726  -441.996355285   150.576133019  -0.22E-02*   0.19E-01*   0.48E-01*    0.22E+00   0.76E+02   EDIIS        0.
   5  -224.455591247  -441.562438363   150.103205576  -0.39E-01*   0.11E-01*   0.41E-02*    0.42E-01   0.76E+02   c2DIIS       0.
   6  -224.455813954  -441.587966619   150.128511125  -0.22E-03*   0.48E-02*   0.27E-02*    0.10E-01   0.76E+02   QNRc2DIIS    0.
   7  -224.455881329  -441.590239437   150.130716567  -0.67E-04*   0.10E-01*   0.22E-02*    0.43E-02   0.76E+02   QNRc2DIIS    0.
   8  -224.455928459  -441.583527809   150.123957810  -0.47E-04*   0.13E-02*   0.63E-03*    0.19E-02   0.76E+02   QNRc2DIIS    0.
   9  -224.455933468  -441.590081889   150.130506880  -0.50E-05*   0.73E-03*   0.21E-03*    0.87E-03   0.76E+02   QNRc2DIIS    0.
  10  -224.455934212  -441.587897412   150.128321660  -0.74E-06*   0.12E-03*   0.43E-04     0.78E-03   0.76E+02   QNRc2DIIS    0.
  11  -224.455934239  -441.589199639   150.129623860  -0.27E-07*   0.50E-04*   0.16E-04     0.12E-03   0.76E+02   QNRc2DIIS    0.
  12  -224.455934243  -441.589075464   150.129499680  -0.45E-08*   0.28E-04*   0.64E-05     0.30E-04   0.76E+02   QNRc2DIIS    0.
  13  -224.455934244  -441.589020780   150.129444995  -0.79E-09    0.60E-05    0.16E-05     0.11E-03   0.76E+02   QNRc2DIIS    0.
 
       Convergence after 13 Macro Iterations
--
 
 *****************************************************************************************************************************
 *                                                                                                                           *
 *                                             SCF/KS-DFT Program, Final results                                             *
 *                                                                                                                           *
 *                                                                                                                           *
 *                                                                                                                           *
 *                                                       Final Results                                                       *
 *                                                                                                                           *
 *****************************************************************************************************************************
 
::    Total SCF energy                               -224.4559342442
      One-electron energy                            -441.5890207798
      Two-electron energy                             150.1294449952
      Nuclear repulsion energy                         67.0036415403
      Kinetic energy (interpolated)                   225.4411694344
      Virial theorem                                    0.9956297459
      Total spin, S(S+1)                                0.0000000000
      Total spin, S                                     0.0000000000
      Max non-diagonal density matrix element           0.0000063914
      Max non-diagonal Fock matrix element              0.0000013108
 
 
      All orbitals with orbital energies smaller than  E(LUMO)+0.5 are printed
 
++    Molecular orbitals:
      -------------------
 
      Title: SCF orbitals

      Molecular orbitals for symmetry species 1: a  
 
          Orbital            1         2         3         4         5         6         7         8         9        10    
          Energy          -20.8936  -20.7310  -20.7310   -1.7327   -1.4646   -1.0802   -0.8356   -0.8059   -0.7712   -0.5972
          Occ. No.          2.0000    2.0000    2.0000    2.0000    2.0000    2.0000    2.0000    2.0000    2.0000    2.0000
 
        1 O1     1s         0.0021   -0.7072    0.7072   -0.0151    0.0104    0.0119   -0.0083   -0.0188    0.0000    0.0057
        2 O1     2s        -0.0001   -0.0007    0.0005    0.3219   -0.5715    0.6278   -0.1769   -0.4058    0.0000    0.0674
        3 O1     3s        -0.0001   -0.0001   -0.0001   -0.0228    0.0132    0.0155   -0.0158   -0.0268    0.0000    0.0070
        4 O1     2px        0.0001    0.0003   -0.0002   -0.0305    0.0451    0.0810    0.2613   -0.2664    0.0000   -0.6280
        5 O1     3px        0.0003    0.0001    0.0001    0.0098   -0.0061   -0.0135   -0.0239    0.0162    0.0000   -0.0064
        6 O1     2py        0.0000    0.0008   -0.0010   -0.1055    0.0865    0.1401   -0.2448   -0.3484    0.0000    0.3333
        7 O1     3py        0.0001   -0.0005    0.0003    0.0247   -0.0175   -0.0209    0.0230    0.0286   -0.0000    0.0010
        8 O1     2pz        0.0000   -0.0000    0.0000    0.0000   -0.0000   -0.0000   -0.0000    0.0000    0.3899    0.0000
        9 O1     3pz        0.0000    0.0000    0.0000   -0.0000   -0.0000    0.0000    0.0000    0.0000   -0.0243   -0.0000
       10 O1     3d2-      -0.0000   -0.0000    0.0000    0.0089   -0.0107   -0.0090   -0.0100    0.0224    0.0000    0.0083
       11 O1     3d1-      -0.0000   -0.0000   -0.0000   -0.0000   -0.0000    0.0000    0.0000    0.0000   -0.0291   -0.0000
       12 O1     3d0        0.0001    0.0001   -0.0001   -0.0092    0.0088    0.0053   -0.0072   -0.0159   -0.0000    0.0050
       13 O1     3d1+      -0.0000    0.0000    0.0000   -0.0000    0.0000    0.0000   -0.0000   -0.0000   -0.0096   -0.0000
       14 O1     3d2+       0.0000   -0.0002    0.0001   -0.0164    0.0107    0.0090   -0.0229   -0.0203    0.0000    0.0164
       15 O2     1s         1.0001    0.0000   -0.0031   -0.0214    0.0000   -0.0157   -0.0053    0.0000   -0.0000   -0.0000
       16 O2     2s         0.0004    0.0000   -0.0008    0.6642   -0.0000   -0.6371   -0.0629    0.0000   -0.0000   -0.0000
       17 O2     3s        -0.0004    0.0000   -0.0006   -0.0422    0.0000   -0.0090   -0.0078    0.0000   -0.0000   -0.0000
       18 O2     2px        0.0007    0.0000   -0.0002    0.0836   -0.0000    0.1681    0.7168    0.0000   -0.0000    0.0000
       19 O2     3px       -0.0009    0.0000   -0.0003   -0.0201    0.0000   -0.0192   -0.0582   -0.0000   -0.0000    0.0000
       20 O2     2py       -0.0000    0.0009    0.0000   -0.0000   -0.3307    0.0000   -0.0000    0.5218   -0.0000   -0.1303
       21 O2     3py       -0.0000    0.0011    0.0000   -0.0000    0.0785   -0.0000    0.0000   -0.0814   -0.0000    0.0046
       22 O2     2pz       -0.0000   -0.0000   -0.0000    0.0000    0.0000   -0.0000    0.0000   -0.0000    0.6807    0.0000
       23 O2     3pz       -0.0000    0.0000   -0.0000   -0.0000    0.0000    0.0000   -0.0000   -0.0000   -0.0234   -0.0000
       24 O2     3d2-       0.0000    0.0002    0.0000   -0.0000   -0.0308    0.0000   -0.0000    0.0205   -0.0000   -0.0409
       25 O2     3d1-      -0.0000   -0.0000   -0.0000   -0.0000   -0.0000   -0.0000   -0.0000   -0.0000    0.0000    0.0000
       26 O2     3d0       -0.0003   -0.0000    0.0003   -0.0178    0.0000   -0.0037   -0.0136    0.0000    0.0000   -0.0000
       27 O2     3d1+       0.0000   -0.0000   -0.0000   -0.0000   -0.0000   -0.0000    0.0000   -0.0000    0.0255    0.0000
       28 O2     3d2+      -0.0000   -0.0000    0.0003   -0.0227    0.0000   -0.0017    0.0170    0.0000    0.0000   -0.0000
       29 O3     1s         0.0021    0.7072    0.7072   -0.0151   -0.0104    0.0119   -0.0083    0.0188    0.0000   -0.0057
       30 O3     2s        -0.0001    0.0007    0.0005    0.3219    0.5715    0.6278   -0.1769    0.4058    0.0000   -0.0674
       31 O3     3s        -0.0001    0.0001   -0.0001   -0.0228   -0.0132    0.0155   -0.0158    0.0268    0.0000   -0.0070
       32 O3     2px        0.0001   -0.0003   -0.0002   -0.0305   -0.0451    0.0810    0.2613    0.2664   -0.0000    0.6280
       33 O3     3px        0.0003   -0.0001    0.0001    0.0098    0.0061   -0.0135   -0.0239   -0.0162   -0.0000    0.0064
       34 O3     2py       -0.0000    0.0008    0.0010    0.1055    0.0865   -0.1401    0.2448   -0.3484   -0.0000    0.3333
       35 O3     3py       -0.0001   -0.0005   -0.0003   -0.0247   -0.0175    0.0209   -0.0230    0.0286    0.0000    0.0010
       36 O3     2pz       -0.0000    0.0000    0.0000   -0.0000   -0.0000    0.0000    0.0000    0.0000    0.3899    0.0000
       37 O3     3pz        0.0000   -0.0000   -0.0000    0.0000    0.0000   -0.0000    0.0000   -0.0000   -0.0243    0.0000
       38 O3     3d2-       0.0000   -0.0000   -0.0000   -0.0089   -0.0107    0.0090    0.0100    0.0224   -0.0000    0.0083
       39 O3     3d1-       0.0000   -0.0000   -0.0000   -0.0000    0.0000    0.0000    0.0000    0.0000    0.0291   -0.0000
       40 O3     3d0        0.0001   -0.0001   -0.0001   -0.0092   -0.0088    0.0053   -0.0072    0.0159   -0.0000   -0.0050
       41 O3     3d1+      -0.0000    0.0000    0.0000    0.0000   -0.0000    0.0000   -0.0000   -0.0000   -0.0096    0.0000
       42 O3     3d2+       0.0000    0.0002    0.0001   -0.0164   -0.0107    0.0090   -0.0229    0.0203    0.0000   -0.0164
 
          Orbital           11        12        13        14        15        16    
          Energy           -0.5165   -0.5055   -0.0439    0.1989    0.2860    0.4488
          Occ. No.          2.0000    2.0000    0.0000    0.0000    0.0000    0.0000
 
        1 O1     1s         0.0042    0.0000    0.0000    0.0388   -0.1509   -0.0360
        2 O1     2s         0.0207    0.0000    0.0000    0.4154   -1.1168   -0.2283
        3 O1     3s         0.0190   -0.0000    0.0000    0.0570   -0.3828   -0.1507
        4 O1     2px        0.6703    0.0000   -0.0000   -0.0629    0.3201   -0.0506
        5 O1     3px        0.0238   -0.0000    0.0000   -0.0269    0.2327    0.4120
        6 O1     2py        0.0171    0.0000   -0.0000   -0.8174    0.5577    0.0898
        7 O1     3py       -0.0221   -0.0000    0.0000   -0.2626    0.5812    0.2788
        8 O1     2pz        0.0000   -0.7068    0.6602   -0.0000   -0.0000    0.0000
        9 O1     3pz        0.0000   -0.0412    0.1291    0.0000    0.0000   -0.0000
       10 O1     3d2-      -0.0075   -0.0000    0.0000    0.0064   -0.0175    0.0116
       11 O1     3d1-      -0.0000    0.0240    0.0102    0.0000    0.0000   -0.0000
       12 O1     3d0        0.0044    0.0000   -0.0000    0.0013    0.0160    0.0141
       13 O1     3d1+       0.0000    0.0073    0.0043    0.0000    0.0000    0.0000
       14 O1     3d2+       0.0063    0.0000    0.0000    0.0124    0.0226    0.0442
       15 O2     1s         0.0195    0.0000   -0.0000   -0.1372   -0.0000    0.0947
       16 O2     2s         0.2492    0.0000   -0.0000   -1.2018   -0.0000    0.5606
       17 O2     3s         0.0354    0.0000   -0.0000   -0.2820   -0.0000    0.2473
       18 O2     2px       -0.5854   -0.0000    0.0000   -0.5551   -0.0000   -0.0291
       19 O2     3px       -0.0251    0.0000    0.0000   -0.1659   -0.0000    0.5546
       20 O2     2py       -0.0000   -0.0000   -0.0000   -0.0000    1.3031    0.0000
       21 O2     3py       -0.0000   -0.0000    0.0000   -0.0000    1.0054   -0.0000
       22 O2     2pz       -0.0000    0.0000   -0.8623    0.0000    0.0000    0.0000
       23 O2     3pz        0.0000    0.0000   -0.1458    0.0000    0.0000   -0.0000
       24 O2     3d2-      -0.0000    0.0000   -0.0000    0.0000    0.0394   -0.0000
       25 O2     3d1-       0.0000   -0.0539   -0.0000   -0.0000   -0.0000    0.0000
       26 O2     3d0        0.0192    0.0000   -0.0000   -0.0292   -0.0000   -0.0529
       27 O2     3d1+      -0.0000    0.0000   -0.0015   -0.0000   -0.0000    0.0000
       28 O2     3d2+       0.0326    0.0000   -0.0000   -0.0454   -0.0000   -0.1107
       29 O3     1s         0.0042    0.0000    0.0000    0.0388    0.1509   -0.0360
       30 O3     2s         0.0207   -0.0000   -0.0000    0.4154    1.1168   -0.2283
       31 O3     3s         0.0190    0.0000   -0.0000    0.0570    0.3828   -0.1507
       32 O3     2px        0.6703    0.0000   -0.0000   -0.0629   -0.3201   -0.0506
       33 O3     3px        0.0238    0.0000   -0.0000   -0.0269   -0.2327    0.4120
       34 O3     2py       -0.0171   -0.0000    0.0000    0.8174    0.5577   -0.0898
       35 O3     3py        0.0221    0.0000    0.0000    0.2626    0.5812   -0.2788
       36 O3     2pz       -0.0000    0.7068    0.6602   -0.0000   -0.0000    0.0000
       37 O3     3pz       -0.0000    0.0412    0.1291   -0.0000   -0.0000   -0.0000
       38 O3     3d2-       0.0075    0.0000   -0.0000   -0.0064   -0.0175   -0.0116
       39 O3     3d1-      -0.0000    0.0240   -0.0102   -0.0000   -0.0000    0.0000
       40 O3     3d0        0.0044    0.0000    0.0000    0.0013   -0.0160    0.0141
       41 O3     3d1+       0.0000   -0.0073    0.0043   -0.0000    0.0000   -0.0000
       42 O3     3d2+       0.0063    0.0000   -0.0000    0.0124   -0.0226    0.0442
--
 
 
++    Molecular charges:
      ------------------
 
      Mulliken charges per centre and basis function type
      ---------------------------------------------------
 
                O1      O2      O3    
      1s       2.0003  2.0002  2.0003
      2s       1.9281  1.7385  1.9281
      2px      1.9235  1.7219  1.9235
      2pz      1.4006  1.1535  1.4006
      2py      0.8889  1.0013  0.8889
      3s      -0.0093 -0.0183 -0.0093
      3px     -0.0172 -0.0303 -0.0172
      3pz     -0.0123 -0.0081 -0.0123
      3py     -0.0053  0.0233 -0.0053
      3d2+     0.0180  0.0324  0.0180
      3d1+     0.0014  0.0048  0.0014
      3d0      0.0056  0.0077  0.0056
      3d1-     0.0126  0.0450  0.0126
      3d2-     0.0104  0.0373  0.0104
      Total    8.1454  7.7092  8.1454
 
      N-E     -0.1454  0.2908 -0.1454
 
      Total electronic charge=   24.000000
 
      Total            charge=   -0.000000
--
 
 
  Input file to MOLDEN was generated!
 
 
++    Static properties:
      ------------------
 
 
      LoProp Charges per center
 

                   O1       O2       O3    
      Nuclear      8.0000   8.0000   8.0000
      Electronic  -8.1900  -7.6200  -8.1900
 
      Total       -0.1900   0.3800  -0.1900
--
 
 
++    Natural Bond Order analysis
      ---------------------------
      Based on LoProp computed density
      -------------------------------------------------------------------------------------
      Atom A       Atom B       Bond Order | Atom A       Atom B       Bond Order
        O1           O2             2.000  |   O2           O3             2.000
      -------------------------------------------------------------------------------------
      NBO located     12.000 core electrons.
      NBO located      3.961 lone pair electrons.
      NBO located      8.000 electrons involved in    2 bonds.
      The remaining    0.039 electrons are to be considered as diffuse
--
 
 
++    Molecular properties:
      ---------------------
 
      Charge (e):
                      =   -0.0000
      Dipole Moment (Debye):
      Origin of the operator (Ang)=    0.0000    0.0000    0.0000
                   X= -3.1194E-01               Y=  4.0150E-11               Z= -2.4754E-14           Total=  3.1194E-01
      Quadrupole Moment (Debye*Ang):
      Origin of the operator (Ang)=    0.2756    0.0000    0.0000
                  XX= -1.6434E+01              XY=  1.9960E-11              XZ= -2.4004E-13              YY= -1.7366E+01
                  YZ=  9.8178E-14              ZZ= -1.5179E+01
      In traceless form (Debye*Ang)
                  XX= -1.6125E-01              XY=  2.9940E-11              XZ= -3.6006E-13              YY= -1.5598E+00
                  YZ=  1.4727E-13              ZZ=  1.7211E+00
--
 
 
  Input file to MOLDEN was generated!
 
 ###############################################################################
 ###############################################################################
 ###                                                                         ###
 ###                                                                         ###
 ###    RunFile label nBas                                                   ###
 ###    was used       78 times                                              ###
 ###                                                                         ###
 ###                                                                         ###
 ###############################################################################
 ###############################################################################
forrtl: warning (528): IEEE_UNDERFLOW is signaling
--- Stop Module: scf at Fri Jan 24 16:29:41 2025 /rc=_RC_ALL_IS_WELL_ ---
*** files: ozone_142.25.LprOrb ozone_142.25.LoProp.molden ozone_142.25.scf.molden ozone_142.25.ScfOrb ozone_142.25.scf.h5 xmldump
    saved to directory /home/grierjones/DDCASPT2/ozone/ANO-RCC-VDZP/ozone_142.25

>>> COPY /tmp/ozone_142.25/ozone_142.25.scf.h5 /home/grierjones/DDCASPT2/ozone/ANO-RCC-VDZP/ozone_142.25/

*** symbolic link created: INPORB -> ozone_142.25.ScfOrb
--- Start Module: rasscf at Fri Jan 24 16:29:41 2025 ---
 
()()()()()()()()()()()()()()()()()()()()()()()()()()()()()()()()()()()()()()()()()()()()()()()()()()

                                              &RASSCF

                                   only a single process is used
                       available to each process: 2.0 GB of memory, 1 thread?
()()()()()()()()()()()()()()()()()()()()()()()()()()()()()()()()()()()()()()()()()()()()()()()()()()
 
 
 *************** WARNING ****************
 ###############################################################################
 ###############################################################################
 ###                                                                         ###
 ###                                                                         ###
 ###    Too many macro-iterations.                                           ###
 ###                                                                         ###
 ###                                                                         ###
 ###############################################################################
 ###############################################################################
 Too many macro-iterations requested.
 Reset to maximum, new MAXIT=     200
 ****************************************
 
 *************** WARNING ****************
 ###############################################################################
 ###############################################################################
 ###                                                                         ###
 ###                                                                         ###
 ###    Too many SX-iterations.                                              ###
 ###                                                                         ###
 ###                                                                         ###
 ###############################################################################
 ###############################################################################
 Too many SX-iterations requested.
 Reset to maximum, new ITMAX=     100
 ****************************************
 
      Header of the ONEINT file:
      --------------------------
      
      Integrals generated by seward 4.2.0  , Fri Jan 24 16:29:39 2025
 
 
      OrdInt status: non-squared
 
 
      Cartesian coordinates in Angstrom:
      -----------------------------------------------------
      No.  Label        X            Y            Z        
      -----------------------------------------------------
       1   O1         0.41343900   1.20927800   0.00000000
       2   O2         0.00000000   0.00000000   0.00000000
       3   O3         0.41343900  -1.20927800   0.00000000
      -----------------------------------------------------
      Nuclear repulsion energy =   67.00364154
 
++    Wave function specifications:
      -----------------------------
 
      Number of closed shell electrons          20
      Number of electrons in active shells       4
      Max number of holes in RAS1 space          0
      Max nr of electrons in RAS3 space          0
      Number of inactive orbitals               10
      Number of active orbitals                  3
      Number of secondary orbitals              29
      Spin quantum number                      0.0
      State symmetry                             1
--
 
++    Orbital specifications:
      -----------------------
 
      Symmetry species                           1
                                                 a
      Frozen orbitals                            0
      Inactive orbitals                         10
      Active orbitals                            3
      RAS1 orbitals                              0
      RAS2 orbitals                              3
      RAS3 orbitals                              0
      Secondary orbitals                        29
      Deleted orbitals                           0
      Number of basis functions                 42
--
 
++    CI expansion specifications:
      ----------------------------
 
      Number of CSFs                             6
      Number of determinants                     6
      Number of root(s) required                 1
      Root chosen for geometry opt.              1
      CI root used                               1
         
      highest root included in the CI            1
      max. size of the explicit Hamiltonian      6
--
 
++    Optimization specifications:
      ----------------------------
 
      RASSCF algorithm: Conventional
      Maximum number of macro iterations       200
      Maximum number of SX iterations          100
      Threshold for RASSCF energy            0.100E-07
      Threshold for max MO rotation          0.100E+00
      Threshold for max BLB element          0.100E-03
      Level shift parameter                  0.500E+00
      Make Quasi-Newton update
--
 
      The MO-coefficients are taken from the file:
      /home/grierjones/DDCASPT2/ozone/ANO-RCC-VDZP/ozone_142.00/ozone_142.00.RasOrb                                                   
      Title: RASSCF average (pseudo-natural) orbitals                                      
 
      Total molecular charge    0.00
 
      ************************************************************************************************************************
      *                                                                                                                      *
      *                                            Wave function control section                                             *
      *                                                                                                                      *
      ************************************************************************************************************************
 
 
                                         RASSCF iterations: Energy and convergence statistics
                                         ----------------------------------------------------
 
      Iter CI   SX   CI       RASSCF       Energy    max ROT     max BLB   max BLB  Level Ln srch  Step   QN   Walltime
          iter iter root      energy       change     param      element    value   shift minimum  type update hh:mm:ss
 Nr of preliminary CI iterations:   1
        1   1    3    1  -224.54308648    0.00E+00   0.59E-03    9  19 1 -0.14E-02*  0.19   0.00    SX    NO    0:00:00
        2   1    3    1  -224.54309159   -0.51E-05*  0.32E-03    7  14 1 -0.77E-03*  0.19   0.00    SX    NO    0:00:00
        3   1    3    1  -224.54309270   -0.11E-05*  0.22E-03    7  14 1 -0.53E-03*  0.19   0.00    SX    NO    0:00:00
        4   1    3    1  -224.54309309   -0.39E-06*  0.10E-03    7  14 1 -0.24E-03*  0.19   0.00    SX    NO    0:00:00
        5   1    3    1  -224.54309321   -0.12E-06*  0.15E-03    7  14 1 -0.20E-03*  0.19   2.50    LS   YES    0:00:00
        6   1    3    1  -224.54309326   -0.48E-07* -0.45E-04    8  19 1  0.16E-03*  0.19   0.82    QN   YES    0:00:00
        7   1    3    1  -224.54309329   -0.35E-07*  0.15E-04    8  19 1 -0.52E-04   0.19   0.85    QN   YES    0:00:00
        8   1    2    1  -224.54309329    0.17E-08   0.59E-05    8  19 1  0.64E-04   0.19   0.31    QN   YES    0:00:00
      Convergence after  8 iterations
 
  Dmat in MO in SXCTL bf call to SXHAM                                                                                    
  mat. size =     3x    3
 
        1.9902192932323537
        0.0000000000004101      1.6822252760150214
        0.0009419872019135      0.0000000000007655      0.3275554307526254
        9   1    2    1  -224.54309329   -0.16E-08   0.59E-05    8  19 1  0.27E-04   0.19   0.31    QN   YES    0:00:00
 
      ************************************************************************************************************************
                                                      Wave function printout:
                       occupation of active orbitals, and spin coupling of open shells (u,d: Spin up or down)
      ************************************************************************************************************************
 
      Note: transformation to natural orbitals
      has been made, which may change the order of the CSFs.
 
      printout of CI-coefficients larger than  0.05 for root  1
      energy=    -224.543093
      conf/sym  111     Coeff  Weight
             1  220  -0.91445 0.83622
             3  202   0.39861 0.15889
             6  022   0.06993 0.00489
 
      Natural orbitals and occupation numbers for root  1
      sym 1:   1.990220   1.682225   0.327555
 
      ************************************************************************************************************************
      *                                                                                                                      *
      *                                                    Final results                                                     *
      *                                                                                                                      *
      ************************************************************************************************************************
 
 
++    Wave function specifications:
      -----------------------------
 
      Number of closed shell electrons          20
      Number of electrons in active shells       4
      Max number of holes in RAS1 space          0
      Max nr of electrons in RAS3 space          0
      Number of inactive orbitals               10
      Number of active orbitals                  3
      Number of secondary orbitals              29
      Spin quantum number                      0.0
      State symmetry                             1
--
 
++    Orbital specifications:
      -----------------------
 
      Symmetry species                           1
                                                 a
      Frozen orbitals                            0
      Inactive orbitals                         10
      Active orbitals                            3
      RAS1 orbitals                              0
      RAS2 orbitals                              3
      RAS3 orbitals                              0
      Secondary orbitals                        29
      Deleted orbitals                           0
      Number of basis functions                 42
--
 
++    CI expansion specifications:
      ----------------------------
 
      Number of CSFs                             6
      Number of determinants                     6
      Number of root(s) required                 1
      CI root used                               1
      highest root included in the CI            1
      Root passed to geometry opt.               1
--
 
++    Final optimization conditions:
      ------------------------------
 
      Average CI energy                            -224.54309329
      RASSCF energy for state  1                   -224.54309329
      Super-CI energy                                -0.00000001
      RASSCF energy change                           -0.00000000
      Max change in MO coefficients               0.467E-05
      Max non-diagonal density matrix element     0.587E-05
      Maximum BLB matrix element                  0.275E-04
      (orbital pair   8,  19 in symmetry   1)
      Norm of electronic gradient            0.751E-04
--
 
 
      Final state energy(ies):
      ------------------------
 
::    RASSCF root number  1 Total energy:   -224.54309329
 
++    Molecular orbitals:
      -------------------
 
      Pseudonatural active orbitals and approximate occupation numbers
 
 
 
 
      Molecular orbitals for symmetry species 1: a  
 
 
      Orbital                1         2         3         4         5         6         7         8         9        10
      Energy          -20.7969  -20.7266  -20.7266   -1.6971   -1.4464   -1.0650   -0.7957   -0.7909   -0.5967   -0.4974
      Occ. No.          2.0000    2.0000    2.0000    2.0000    2.0000    2.0000    2.0000    2.0000    2.0000    2.0000
 
    1 O1     1s         0.0045   -0.7072    0.7072   -0.0148    0.0092    0.0129   -0.0070   -0.0178    0.0060    0.0038
    2 O1     2s         0.0000   -0.0007    0.0005    0.3422   -0.5898    0.6247   -0.1366   -0.3735    0.0695    0.0096
    3 O1     3s        -0.0001    0.0000   -0.0001   -0.0235    0.0120    0.0169   -0.0137   -0.0256    0.0076    0.0217
    4 O1     2px        0.0002    0.0003   -0.0002   -0.0309    0.0436    0.0837    0.3189   -0.2862   -0.6232    0.6492
    5 O1     3px        0.0004    0.0001    0.0001    0.0097   -0.0057   -0.0125   -0.0257    0.0159   -0.0067    0.0291
    6 O1     2py       -0.0000    0.0008   -0.0009   -0.1089    0.0847    0.1645   -0.2566   -0.3709    0.3436    0.0628
    7 O1     3py        0.0001   -0.0005    0.0003    0.0250   -0.0165   -0.0226    0.0193    0.0267    0.0018   -0.0236
    8 O1     2pz        0.0000    0.0000    0.0000    0.0000   -0.0000    0.0000   -0.0000    0.0000   -0.0000   -0.0000
    9 O1     3pz        0.0000    0.0000   -0.0000    0.0000    0.0000   -0.0000   -0.0000    0.0000    0.0000   -0.0000
   10 O1     3d2-      -0.0000   -0.0000    0.0000    0.0085   -0.0100   -0.0091   -0.0115    0.0219    0.0078   -0.0051
   11 O1     3d1-       0.0000   -0.0000    0.0000   -0.0000   -0.0000    0.0000   -0.0000    0.0000   -0.0000    0.0000
   12 O1     3d0        0.0001    0.0001   -0.0002   -0.0101    0.0094    0.0059   -0.0070   -0.0160    0.0055    0.0047
   13 O1     3d1+       0.0000    0.0000    0.0000   -0.0000    0.0000   -0.0000   -0.0000    0.0000    0.0000    0.0000
   14 O1     3d2+       0.0000   -0.0001    0.0001   -0.0166    0.0105    0.0106   -0.0222   -0.0207    0.0159    0.0088
   15 O2     1s         1.0000    0.0000   -0.0066   -0.0227    0.0000   -0.0133   -0.0069   -0.0000   -0.0000    0.0234
   16 O2     2s         0.0006    0.0000   -0.0007    0.6365   -0.0000   -0.6383   -0.0983   -0.0000   -0.0000    0.3070
   17 O2     3s        -0.0006    0.0000   -0.0006   -0.0362    0.0000   -0.0138   -0.0093    0.0000   -0.0000    0.0437
   18 O2     2px        0.0007    0.0000   -0.0002    0.0847   -0.0000    0.1218    0.6552    0.0000   -0.0000   -0.6354
   19 O2     3px       -0.0011    0.0000   -0.0003   -0.0191    0.0000   -0.0133   -0.0424   -0.0000    0.0000   -0.0407
   20 O2     2py        0.0000    0.0008    0.0000   -0.0000   -0.2993    0.0000   -0.0000    0.4907   -0.1324   -0.0000
   21 O2     3py       -0.0000    0.0010    0.0000   -0.0000    0.0748   -0.0000    0.0000   -0.0748   -0.0003   -0.0000
   22 O2     2pz       -0.0000    0.0000    0.0000    0.0000    0.0000    0.0000    0.0000    0.0000   -0.0000   -0.0000
   23 O2     3pz       -0.0000   -0.0000   -0.0000   -0.0000    0.0000   -0.0000    0.0000   -0.0000   -0.0000   -0.0000
   24 O2     3d2-       0.0000    0.0002    0.0000   -0.0000   -0.0306    0.0000   -0.0000    0.0231   -0.0396   -0.0000
   25 O2     3d1-      -0.0000   -0.0000    0.0000   -0.0000   -0.0000    0.0000    0.0000    0.0000   -0.0000   -0.0000
   26 O2     3d0       -0.0001   -0.0000    0.0003   -0.0173    0.0000   -0.0035   -0.0145   -0.0000   -0.0000    0.0229
   27 O2     3d1+      -0.0000    0.0000    0.0000   -0.0000   -0.0000   -0.0000    0.0000    0.0000    0.0000   -0.0000
   28 O2     3d2+      -0.0000   -0.0000    0.0003   -0.0222    0.0000    0.0002    0.0196    0.0000   -0.0000    0.0293
   29 O3     1s         0.0045    0.7072    0.7072   -0.0148   -0.0092    0.0129   -0.0070    0.0178   -0.0060    0.0038
   30 O3     2s         0.0000    0.0007    0.0005    0.3422    0.5898    0.6247   -0.1366    0.3735   -0.0695    0.0096
   31 O3     3s        -0.0001   -0.0000   -0.0001   -0.0235   -0.0120    0.0169   -0.0137    0.0256   -0.0076    0.0217
   32 O3     2px        0.0002   -0.0003   -0.0002   -0.0309   -0.0436    0.0837    0.3189    0.2862    0.6232    0.6492
   33 O3     3px        0.0004   -0.0001    0.0001    0.0097    0.0057   -0.0125   -0.0257   -0.0159    0.0067    0.0291
   34 O3     2py        0.0000    0.0008    0.0009    0.1089    0.0847   -0.1645    0.2566   -0.3709    0.3436   -0.0628
   35 O3     3py       -0.0001   -0.0005   -0.0003   -0.0250   -0.0165    0.0226   -0.0193    0.0267    0.0018    0.0236
   36 O3     2pz        0.0000   -0.0000    0.0000    0.0000    0.0000   -0.0000    0.0000    0.0000    0.0000    0.0000
   37 O3     3pz        0.0000    0.0000   -0.0000    0.0000   -0.0000    0.0000   -0.0000   -0.0000    0.0000    0.0000
   38 O3     3d2-       0.0000   -0.0000   -0.0000   -0.0085   -0.0100    0.0091    0.0115    0.0219    0.0078    0.0051
   39 O3     3d1-       0.0000    0.0000   -0.0000    0.0000    0.0000    0.0000   -0.0000    0.0000    0.0000   -0.0000
   40 O3     3d0        0.0001   -0.0001   -0.0002   -0.0101   -0.0094    0.0059   -0.0070    0.0160   -0.0055    0.0047
   41 O3     3d1+      -0.0000    0.0000    0.0000    0.0000    0.0000    0.0000   -0.0000   -0.0000   -0.0000    0.0000
   42 O3     3d2+       0.0000    0.0001    0.0001   -0.0166   -0.0105    0.0106   -0.0222    0.0207   -0.0159    0.0088
 
 
      Orbital               11        12        13        14        15        16        17        18        19        20
      Energy            0.0000    0.0000    0.0000    0.2106    0.2903    0.4627    0.4644    0.5527    0.6076    0.6896
      Occ. No.          1.9902    1.6822    0.3276    0.0000    0.0000    0.0000    0.0000    0.0000    0.0000    0.0000
 
    1 O1     1s        -0.0000   -0.0000   -0.0000   -0.0414   -0.1524   -0.0336   -0.0000    0.0242   -0.0326    0.0042
    2 O1     2s         0.0000    0.0000   -0.0000   -0.4358   -1.1214   -0.2126   -0.0000    0.1606   -0.0869    0.0039
    3 O1     3s        -0.0000    0.0000    0.0000   -0.0601   -0.3873   -0.1350   -0.0000    0.2090   -0.1151    0.0465
    4 O1     2px        0.0000   -0.0000   -0.0000    0.0425    0.3099   -0.0307   -0.0000   -0.1032   -0.1640   -0.0371
    5 O1     3px       -0.0000    0.0000    0.0000    0.0240    0.2388    0.4525    0.0000    0.1567   -0.1517   -0.8108
    6 O1     2py        0.0000   -0.0000    0.0000    0.8099    0.5343    0.0764    0.0000   -0.1412   -0.4031    0.0916
    7 O1     3py       -0.0000    0.0000   -0.0000    0.2692    0.5911    0.2554    0.0000   -0.7676    0.1750   -0.0877
    8 O1     2pz        0.2840   -0.7077    0.6849   -0.0000   -0.0000   -0.0000    0.0068   -0.0000    0.0000   -0.0000
    9 O1     3pz       -0.0297   -0.0085   -0.0507   -0.0000   -0.0000   -0.0000    0.4800    0.0000    0.0000   -0.0000
   10 O1     3d2-      -0.0000    0.0000   -0.0000   -0.0062   -0.0188    0.0113    0.0000   -0.0129   -0.0883   -0.0015
   11 O1     3d1-      -0.0279    0.0187    0.0062   -0.0000    0.0000   -0.0000    0.0305    0.0000    0.0000   -0.0000
   12 O1     3d0        0.0000    0.0000   -0.0000   -0.0019    0.0164    0.0145    0.0000    0.0034    0.0561   -0.0138
   13 O1     3d1+      -0.0087    0.0051    0.0015   -0.0000    0.0000   -0.0000    0.0129    0.0000    0.0000   -0.0000
   14 O1     3d2+       0.0000   -0.0000    0.0000   -0.0144    0.0231    0.0459    0.0000   -0.0041    0.0538   -0.0104
   15 O2     1s         0.0000   -0.0000    0.0000    0.1374   -0.0000    0.0908    0.0000   -0.1426   -0.0000    0.0000
   16 O2     2s        -0.0000   -0.0000    0.0000    1.2172   -0.0000    0.5336    0.0000   -0.8156   -0.0000    0.0000
   17 O2     3s         0.0000   -0.0000    0.0000    0.2981   -0.0000    0.2511    0.0000   -0.2820   -0.0000    0.0000
   18 O2     2px       -0.0000    0.0000    0.0000    0.6035   -0.0000   -0.0875   -0.0000   -0.0990   -0.0000    0.0000
   19 O2     3px       -0.0000    0.0000   -0.0000    0.1918   -0.0000    0.4882    0.0000   -0.1450   -0.0000    0.0000
   20 O2     2py       -0.0000   -0.0000    0.0000    0.0000    1.2931    0.0000    0.0000    0.0000   -0.4448    0.1225
   21 O2     3py        0.0000   -0.0000   -0.0000    0.0000    1.0270   -0.0000    0.0000   -0.0000    0.6625   -0.0994
   22 O2     2pz        0.8016   -0.0000   -0.6458    0.0000    0.0000    0.0000   -0.2515    0.0000   -0.0000    0.0000
   23 O2     3pz       -0.0127    0.0000   -0.0713    0.0000    0.0000   -0.0000    0.3565    0.0000   -0.0000    0.0000
   24 O2     3d2-       0.0000   -0.0000   -0.0000    0.0000    0.0454   -0.0000   -0.0000   -0.0000    0.0864   -0.0159
   25 O2     3d1-       0.0000   -0.0430    0.0000    0.0000   -0.0000   -0.0000   -0.0000    0.0000    0.0000    0.0000
   26 O2     3d0       -0.0000   -0.0000   -0.0000    0.0261   -0.0000   -0.0497   -0.0000    0.0980    0.0000    0.0000
   27 O2     3d1+       0.0265    0.0000   -0.0120    0.0000    0.0000    0.0000   -0.0275   -0.0000   -0.0000   -0.0000
   28 O2     3d2+      -0.0000   -0.0000    0.0000    0.0423   -0.0000   -0.1077   -0.0000    0.0992    0.0000    0.0000
   29 O3     1s        -0.0000   -0.0000   -0.0000   -0.0414    0.1524   -0.0336   -0.0000    0.0242    0.0326   -0.0042
   30 O3     2s        -0.0000    0.0000   -0.0000   -0.4358    1.1214   -0.2126   -0.0000    0.1606    0.0869   -0.0039
   31 O3     3s         0.0000   -0.0000   -0.0000   -0.0601    0.3873   -0.1350   -0.0000    0.2090    0.1151   -0.0465
   32 O3     2px       -0.0000   -0.0000   -0.0000    0.0425   -0.3099   -0.0307   -0.0000   -0.1032    0.1640    0.0371
   33 O3     3px       -0.0000    0.0000    0.0000    0.0240   -0.2388    0.4525    0.0000    0.1567    0.1517    0.8108
   34 O3     2py        0.0000   -0.0000   -0.0000   -0.8099    0.5343   -0.0764   -0.0000    0.1412   -0.4031    0.0916
   35 O3     3py       -0.0000   -0.0000    0.0000   -0.2692    0.5911   -0.2554   -0.0000    0.7676    0.1750   -0.0877
   36 O3     2pz        0.2840    0.7077    0.6849   -0.0000   -0.0000   -0.0000    0.0068   -0.0000    0.0000    0.0000
   37 O3     3pz       -0.0297    0.0085   -0.0507   -0.0000   -0.0000   -0.0000    0.4800    0.0000    0.0000    0.0000
   38 O3     3d2-       0.0000   -0.0000    0.0000    0.0062   -0.0188   -0.0113   -0.0000    0.0129   -0.0883   -0.0015
   39 O3     3d1-       0.0279    0.0187   -0.0062    0.0000    0.0000    0.0000   -0.0305   -0.0000   -0.0000   -0.0000
   40 O3     3d0       -0.0000    0.0000    0.0000   -0.0019   -0.0164    0.0145    0.0000    0.0034   -0.0561    0.0138
   41 O3     3d1+      -0.0087   -0.0051    0.0015   -0.0000   -0.0000   -0.0000    0.0129   -0.0000    0.0000   -0.0000
   42 O3     3d2+       0.0000    0.0000   -0.0000   -0.0144   -0.0231    0.0459    0.0000   -0.0041   -0.0538    0.0104
 
 
      Orbital               21        22        23        24        25        26        27        28        29        30
      Energy            0.6975    0.8520    0.9458    0.9762    1.0066    1.6911    1.7150    1.7194    1.7809    1.9563
      Occ. No.          0.0000    0.0000    0.0000    0.0000    0.0000    0.0000    0.0000    0.0000    0.0000    0.0000
 
    1 O1     1s        -0.0000   -0.0171   -0.0379   -0.0000    0.0890   -0.0000   -0.0085    0.0000   -0.1320   -0.0903
    2 O1     2s        -0.0000   -0.0934   -0.2039    0.0000    0.5049   -0.0000   -0.0642   -0.0000   -0.9601   -0.6937
    3 O1     3s        -0.0000    0.4647   -0.0315   -0.0000    0.0222   -0.0000   -0.0613   -0.0000   -1.2145   -0.8317
    4 O1     2px        0.0000    0.0040   -0.4141    0.0000   -0.2317   -0.0000    0.0948    0.0000    0.2560    0.0957
    5 O1     3px        0.0000    0.0859   -0.8255   -0.0000   -0.2791    0.0000    0.0483    0.0000    0.2137    0.1885
    6 O1     2py       -0.0000   -0.0238    0.0676    0.0000    0.1083    0.0000    0.0224    0.0000    0.2930    0.4563
    7 O1     3py        0.0000    0.3118    0.0136    0.0000    0.6853    0.0000    0.0325    0.0000    0.2969    0.4976
    8 O1     2pz       -0.0966   -0.0000    0.0000    0.4760   -0.0000   -0.1712    0.0000   -0.0813    0.0000    0.0000
    9 O1     3pz       -0.8402    0.0000    0.0000    0.8795   -0.0000    0.0240    0.0000   -0.0573   -0.0000    0.0000
   10 O1     3d2-      -0.0000   -0.0579   -0.0466    0.0000    0.0035    0.0000    0.2839    0.0000    0.2067   -0.1632
   11 O1     3d1-      -0.0292    0.0000    0.0000    0.0077    0.0000   -0.3796    0.0000   -0.3067   -0.0000    0.0000
   12 O1     3d0        0.0000    0.0433    0.0582   -0.0000   -0.0687    0.0000    0.3400    0.0000   -0.1344    0.0850
   13 O1     3d1+      -0.0013    0.0000    0.0000    0.0321   -0.0000   -0.2477   -0.0000    0.3246    0.0000    0.0000
   14 O1     3d2+       0.0000    0.0493    0.0249   -0.0000   -0.1408   -0.0000   -0.0475   -0.0000    0.1592   -0.2207
   15 O2     1s         0.0000    0.0134   -0.0217   -0.0000    0.0000    0.0000    0.0192    0.0000   -0.0000    0.2359
   16 O2     2s         0.0000    0.0706   -0.0729   -0.0000    0.0000    0.0000    0.1412    0.0000   -0.0000    1.6648
   17 O2     3s         0.0000    0.5558    0.0008   -0.0000    0.0000    0.0000    0.1563    0.0000   -0.0000    1.6308
   18 O2     2px        0.0000   -0.0283    0.6180    0.0000    0.0000   -0.0000    0.0929    0.0000   -0.0000    0.1152
   19 O2     3px        0.0000   -0.1112    1.5240   -0.0000    0.0000   -0.0000   -0.0776   -0.0000   -0.0000    0.1655
   20 O2     2py       -0.0000   -0.0000   -0.0000   -0.0000   -0.7324    0.0000   -0.0000   -0.0000    0.9446   -0.0000
   21 O2     3py        0.0000    0.0000    0.0000   -0.0000   -1.1459    0.0000   -0.0000   -0.0000    1.1366   -0.0000
   22 O2     2pz        0.0000   -0.0000   -0.0000   -0.6606    0.0000    0.0000    0.0000   -0.0679   -0.0000    0.0000
   23 O2     3pz        0.0000   -0.0000   -0.0000   -1.6099    0.0000   -0.0000   -0.0000    0.1272    0.0000    0.0000
   24 O2     3d2-       0.0000    0.0000    0.0000    0.0000    0.1870    0.0000    0.0000    0.0000   -0.2109   -0.0000
   25 O2     3d1-       0.0735   -0.0000   -0.0000   -0.0000   -0.0000    0.5817   -0.0000    0.0000    0.0000   -0.0000
   26 O2     3d0       -0.0000    0.0472    0.0883   -0.0000    0.0000    0.0000    0.5196    0.0000   -0.0000    0.1267
   27 O2     3d1+      -0.0000   -0.0000   -0.0000    0.0520   -0.0000   -0.0000   -0.0000    0.6411   -0.0000   -0.0000
   28 O2     3d2+       0.0000    0.0651    0.0435    0.0000    0.0000   -0.0000   -0.3690   -0.0000   -0.0000    0.2641
   29 O3     1s         0.0000   -0.0171   -0.0379   -0.0000   -0.0890   -0.0000   -0.0085   -0.0000    0.1320   -0.0903
   30 O3     2s         0.0000   -0.0934   -0.2039   -0.0000   -0.5049   -0.0000   -0.0642   -0.0000    0.9601   -0.6937
   31 O3     3s         0.0000    0.4647   -0.0315    0.0000   -0.0222   -0.0000   -0.0613   -0.0000    1.2145   -0.8317
   32 O3     2px       -0.0000    0.0040   -0.4141   -0.0000    0.2317    0.0000    0.0948    0.0000   -0.2560    0.0957
   33 O3     3px       -0.0000    0.0859   -0.8255    0.0000    0.2791    0.0000    0.0483    0.0000   -0.2137    0.1885
   34 O3     2py       -0.0000    0.0238   -0.0676    0.0000    0.1083   -0.0000   -0.0224   -0.0000    0.2930   -0.4563
   35 O3     3py        0.0000   -0.3118   -0.0136    0.0000    0.6853   -0.0000   -0.0325   -0.0000    0.2969   -0.4976
   36 O3     2pz        0.0966    0.0000    0.0000    0.4760   -0.0000    0.1712    0.0000   -0.0813    0.0000   -0.0000
   37 O3     3pz        0.8402   -0.0000    0.0000    0.8795   -0.0000   -0.0240    0.0000   -0.0573   -0.0000   -0.0000
   38 O3     3d2-       0.0000    0.0579    0.0466   -0.0000    0.0035   -0.0000   -0.2839   -0.0000    0.2067    0.1632
   39 O3     3d1-      -0.0292   -0.0000    0.0000   -0.0077    0.0000   -0.3796   -0.0000    0.3067   -0.0000   -0.0000
   40 O3     3d0       -0.0000    0.0433    0.0582    0.0000    0.0687    0.0000    0.3400    0.0000    0.1344    0.0850
   41 O3     3d1+       0.0013   -0.0000   -0.0000    0.0321   -0.0000    0.2477   -0.0000    0.3246   -0.0000   -0.0000
   42 O3     3d2+      -0.0000    0.0493    0.0249    0.0000    0.1408   -0.0000   -0.0475   -0.0000   -0.1592   -0.2207
 
 
      Orbital               31        32        33        34        35        36        37        38        39        40
      Energy            2.0752    2.1189    2.1965    2.3284    2.3300    2.6732    2.9167    2.9356    2.9507    3.4977
      Occ. No.          0.0000    0.0000    0.0000    0.0000    0.0000    0.0000    0.0000    0.0000    0.0000    0.0000
 
    1 O1     1s        -0.1489   -0.0000    0.1614    0.0849    0.0000    0.0483   -0.0000    0.0363   -0.1025   -0.0801
    2 O1     2s        -0.9946   -0.0000    1.0531    0.5767    0.0000    0.2111    0.0000    0.3928   -0.7481   -0.5211
    3 O1     3s        -0.7966   -0.0000    0.7252    0.4120    0.0000   -0.0930    0.0000    0.5076   -0.5662   -0.2435
    4 O1     2px        0.1799   -0.0000   -0.2077   -0.0058    0.0000    0.0894   -0.0000   -0.1803   -0.1246   -0.1320
    5 O1     3px        0.1880    0.0000   -0.2735    0.1484    0.0000    0.2373   -0.0000   -0.1551   -0.2193   -0.1443
    6 O1     2py        0.3249    0.0000   -0.3212   -0.3396   -0.0000   -0.0195   -0.0000   -0.3674    0.5733    0.4221
    7 O1     3py       -0.0259    0.0000    0.1377   -0.2139   -0.0000    0.2002   -0.0000   -0.3996    0.4108    0.1261
    8 O1     2pz        0.0000    0.0031    0.0000    0.0000   -0.0961   -0.0000   -0.3415    0.0000   -0.0000    0.0000
    9 O1     3pz       -0.0000   -0.0486   -0.0000    0.0000   -0.1972    0.0000   -0.4203    0.0000    0.0000    0.0000
   10 O1     3d2-       0.0361   -0.0000    0.4624   -0.1446   -0.0000   -0.4359    0.0000    0.5496    0.3082    0.2542
   11 O1     3d1-      -0.0000    0.3508    0.0000   -0.0000    0.2162   -0.0000    0.7225   -0.0000   -0.0000   -0.0000
   12 O1     3d0        0.4729   -0.0000    0.3629    0.4937    0.0000    0.0981   -0.0000   -0.4075    0.3564    0.1035
   13 O1     3d1+      -0.0000   -0.6198    0.0000   -0.0000    0.6471    0.0000    0.0025   -0.0000    0.0000   -0.0000
   14 O1     3d2+      -0.3520   -0.0000    0.0927   -0.3322   -0.0000    0.4147   -0.0000   -0.3845    0.5764    0.6032
   15 O2     1s         0.0000    0.0000   -0.0000   -0.1090   -0.0000    0.1147    0.0000    0.0000    0.2403   -0.0000
   16 O2     2s         0.0000    0.0000   -0.0000   -0.8874   -0.0000    0.5038    0.0000    0.0000    1.6444   -0.0000
   17 O2     3s         0.0000    0.0000   -0.0000   -0.9888   -0.0000   -0.2666    0.0000    0.0000    1.0572   -0.0000
   18 O2     2px       -0.0000    0.0000    0.0000   -0.5181   -0.0000   -0.1562   -0.0000    0.0000    0.9231   -0.0000
   19 O2     3px        0.0000    0.0000    0.0000   -0.4868   -0.0000   -0.4263    0.0000    0.0000    0.7182    0.0000
   20 O2     2py        1.0846    0.0000   -1.2112   -0.0000    0.0000    0.0000   -0.0000   -0.7923    0.0000    0.4999
   21 O2     3py        1.1857    0.0000   -1.2916   -0.0000    0.0000    0.0000    0.0000    0.1345   -0.0000    0.1365
   22 O2     2pz       -0.0000   -0.0000    0.0000   -0.0000    0.3939   -0.0000    0.7407   -0.0000   -0.0000   -0.0000
   23 O2     3pz        0.0000   -0.0000    0.0000   -0.0000    0.3071   -0.0000    0.7435   -0.0000   -0.0000   -0.0000
   24 O2     3d2-       0.3181    0.0000   -0.4078   -0.0000    0.0000    0.0000    0.0000    0.2147   -0.0000    1.1078
   25 O2     3d1-      -0.0000   -0.0502    0.0000   -0.0000   -0.0000   -0.0000   -0.0000    0.0000    0.0000   -0.0000
   26 O2     3d0        0.0000   -0.0000   -0.0000   -0.2661   -0.0000    0.5764    0.0000   -0.0000   -0.5147    0.0000
   27 O2     3d1+       0.0000    0.0000   -0.0000    0.0000   -0.4413   -0.0000    0.7180   -0.0000   -0.0000   -0.0000
   28 O2     3d2+       0.0000    0.0000   -0.0000    0.3058    0.0000    0.1723    0.0000    0.0000    0.3779    0.0000
   29 O3     1s         0.1489    0.0000   -0.1614    0.0849    0.0000    0.0483   -0.0000   -0.0363   -0.1025    0.0801
   30 O3     2s         0.9946    0.0000   -1.0531    0.5767    0.0000    0.2111   -0.0000   -0.3928   -0.7481    0.5211
   31 O3     3s         0.7966    0.0000   -0.7252    0.4120    0.0000   -0.0930   -0.0000   -0.5076   -0.5662    0.2435
   32 O3     2px       -0.1799   -0.0000    0.2077   -0.0058   -0.0000    0.0894    0.0000    0.1803   -0.1246    0.1320
   33 O3     3px       -0.1880   -0.0000    0.2735    0.1484    0.0000    0.2373    0.0000    0.1551   -0.2193    0.1443
   34 O3     2py        0.3249    0.0000   -0.3212    0.3396    0.0000    0.0195   -0.0000   -0.3674   -0.5733    0.4221
   35 O3     3py       -0.0259   -0.0000    0.1377    0.2139    0.0000   -0.2002   -0.0000   -0.3996   -0.4108    0.1261
   36 O3     2pz        0.0000   -0.0031   -0.0000    0.0000   -0.0961   -0.0000   -0.3415    0.0000   -0.0000   -0.0000
   37 O3     3pz       -0.0000    0.0486   -0.0000    0.0000   -0.1972    0.0000   -0.4203    0.0000    0.0000   -0.0000
   38 O3     3d2-       0.0361   -0.0000    0.4624    0.1446    0.0000    0.4359    0.0000    0.5496   -0.3082    0.2542
   39 O3     3d1-      -0.0000    0.3508   -0.0000    0.0000   -0.2162    0.0000   -0.7225    0.0000    0.0000   -0.0000
   40 O3     3d0       -0.4729    0.0000   -0.3629    0.4937    0.0000    0.0981    0.0000    0.4075    0.3564   -0.1035
   41 O3     3d1+      -0.0000    0.6198    0.0000   -0.0000    0.6471    0.0000    0.0025    0.0000   -0.0000    0.0000
   42 O3     3d2+       0.3520    0.0000   -0.0927   -0.3322   -0.0000    0.4147    0.0000    0.3845    0.5764   -0.6032
 
 
      Orbital               41        42
      Energy            3.5009    4.1691
      Occ. No.          0.0000    0.0000
 
    1 O1     1s        -0.0000    0.1967
    2 O1     2s        -0.0000    1.3134
    3 O1     3s        -0.0000    0.6850
    4 O1     2px       -0.0000   -0.5093
    5 O1     3px       -0.0000   -0.2438
    6 O1     2py        0.0000   -0.8767
    7 O1     3py        0.0000   -0.3794
    8 O1     2pz       -0.3177    0.0000
    9 O1     3pz       -0.2101   -0.0000
   10 O1     3d2-       0.0000    0.5967
   11 O1     3d1-       0.6115    0.0000
   12 O1     3d0        0.0000   -0.3233
   13 O1     3d1+       0.2926   -0.0000
   14 O1     3d2+       0.0000   -0.2071
   15 O2     1s        -0.0000   -0.3703
   16 O2     2s         0.0000   -2.5963
   17 O2     3s        -0.0000   -1.6377
   18 O2     2px       -0.0000   -0.2535
   19 O2     3px       -0.0000    0.0393
   20 O2     2py        0.0000   -0.0000
   21 O2     3py        0.0000   -0.0000
   22 O2     2pz        0.0000   -0.0000
   23 O2     3pz        0.0000   -0.0000
   24 O2     3d2-       0.0000   -0.0000
   25 O2     3d1-       1.0748   -0.0000
   26 O2     3d0        0.0000    0.6166
   27 O2     3d1+       0.0000    0.0000
   28 O2     3d2+       0.0000    1.1500
   29 O3     1s         0.0000    0.1967
   30 O3     2s         0.0000    1.3134
   31 O3     3s         0.0000    0.6850
   32 O3     2px        0.0000   -0.5093
   33 O3     3px        0.0000   -0.2438
   34 O3     2py        0.0000    0.8767
   35 O3     3py        0.0000    0.3794
   36 O3     2pz        0.3177    0.0000
   37 O3     3pz        0.2101   -0.0000
   38 O3     3d2-       0.0000   -0.5967
   39 O3     3d1-       0.6115   -0.0000
   40 O3     3d0       -0.0000   -0.3233
   41 O3     3d1+      -0.2926    0.0000
   42 O3     3d2+      -0.0000   -0.2071
--
 
      Von Neumann Entropy (Root  1) =  0.64449
 

      Mulliken population analysis for root number:  1
      -----------------------------------------------
 
 
++    Molecular charges:
      ------------------
 
      Mulliken charges per centre and basis function type
      ---------------------------------------------------
 
                O1      O2      O3    
      1s       2.0003  2.0001  2.0003
      2s       1.9252  1.7325  1.9252
      2px      1.9354  1.6665  1.9354
      2pz      1.2084  1.5496  1.2084
      2py      0.9679  0.9184  0.9679
      3s      -0.0082 -0.0217 -0.0082
      3px     -0.0198 -0.0413 -0.0198
      3pz     -0.0097 -0.0090 -0.0097
      3py     -0.0051  0.0105 -0.0051
      3d2+     0.0177  0.0309  0.0177
      3d1+     0.0014  0.0037  0.0014
      3d0      0.0055  0.0089  0.0055
      3d1-     0.0134  0.0288  0.0134
      3d2-     0.0103  0.0367  0.0103
      Total    8.0426  7.9148  8.0426
 
      N-E     -0.0426  0.0852 -0.0426
 
      Total electronic charge=   24.000000
 
      Total            charge=   -0.000000
--
 
 

      Expectation values of various properties for root number:  1
      -----------------------------------------------------------
 
 
++    Molecular properties:
      ---------------------
 
      Charge (e):
                      =   -0.0000
      Dipole Moment (Debye):
      Origin of the operator (Ang)=    0.0000    0.0000    0.0000
                   X=  1.2641E-01               Y=  4.5403E-11               Z=  2.6104E-13           Total=  1.2641E-01
      Quadrupole Moment (Debye*Ang):
      Origin of the operator (Ang)=    0.2756    0.0000    0.0000
                  XX= -1.6509E+01              XY=  2.1092E-11              XZ= -7.2361E-13              YY= -1.6278E+01
                  YZ= -3.3337E-13              ZZ= -1.4693E+01
      In traceless form (Debye*Ang)
                  XX= -1.0236E+00              XY=  3.1638E-11              XZ= -1.0854E-12              YY= -6.7743E-01
                  YZ= -5.0006E-13              ZZ=  1.7011E+00
--
 

      LoProp population analysis for root number:  1
      -----------------------------------------------
 
 
++    LoProp analysis:
      ----------------
 
 
 
  Input file to MOLDEN was generated!
 
 
++    Static properties:
      ------------------
 
 
      LoProp Charges per center
 

                   O1       O2       O3    
      Nuclear      8.0000   8.0000   8.0000
      Electronic  -8.0720  -7.8561  -8.0720
 
      Total       -0.0720   0.1439  -0.0720
--
 
 
      Natural Bond Order analysis for root number:  1
 
++    Natural Bond Order analysis
      ---------------------------
      Based on LoProp computed density
      -------------------------------------------------------------------------------------
      Atom A       Atom B       Bond Order | Atom A       Atom B       Bond Order
        O1           O2             1.967  |   O2           O3             1.967
      -------------------------------------------------------------------------------------
      NBO located     12.000 core electrons.
      NBO located      3.965 lone pair electrons.
      NBO located      7.870 electrons involved in    2 bonds.
      The remaining    0.166 electrons are to be considered as diffuse
--
 
--
 
 
  Input file to MOLDEN was generated!
 
      Average orbitals are written to the RASORB file
      Natural orbitals for root   1 are written to the RASORB.1 file
      Spin density orbitals for root   1 are written to the SPDORB.1 file
 
forrtl: warning (525): IEEE_DIVIDE_BY_ZERO is signaling
forrtl: warning (526): IEEE_INVALID is signaling
forrtl: warning (528): IEEE_UNDERFLOW is signaling
--- Stop Module: rasscf at Fri Jan 24 16:29:41 2025 /rc=_RC_ALL_IS_WELL_ ---
*** files: ozone_142.25.LprOrb ozone_142.25.rasscf.molden ozone_142.25.LoProp.molden ozone_142.25.RasOrb ozone_142.25.RasOrb.1 ozone_142.25.rasscf.h5 ozone_142.25.SpdOrb.1 xmldump
    saved to directory /home/grierjones/DDCASPT2/ozone/ANO-RCC-VDZP/ozone_142.25

>>> COPY /tmp/ozone_142.25/ozone_142.25.rasscf.h5 /home/grierjones/DDCASPT2/ozone/ANO-RCC-VDZP/ozone_142.25/

>>> COPY /tmp/ozone_142.25/GMJ_Fock_MO.csv /home/grierjones/DDCASPT2/ozone/ANO-RCC-VDZP/ozone_142.25/ozone_142.25.GMJ_Fock_MO.csv

>>> COPY /tmp/ozone_142.25/GMJ_PT2_Fock_MO.csv /home/grierjones/DDCASPT2/ozone/ANO-RCC-VDZP/ozone_142.25/ozone_142.25.GMJ_PT2_Fock_MO.csv

*** symbolic link created: INPORB -> ozone_142.25.RasOrb
--- Start Module: motra at Fri Jan 24 16:29:41 2025 ---
 
()()()()()()()()()()()()()()()()()()()()()()()()()()()()()()()()()()()()()()()()()()()()()()()()()()

                                               &MOTRA

                                   only a single process is used
                       available to each process: 2.0 GB of memory, 1 thread?
()()()()()()()()()()()()()()()()()()()()()()()()()()()()()()()()()()()()()()()()()()()()()()()()()()
 
 
      *** WARNING: Default frozen orbitals is overwritten by user input.
      *** Default values:   3
 
      Header of the integral files:
      
       Integrals generated by seward 4.2.0  , Fri Jan 24 16:29:39 2025
 
 
      Header of MO coefficients source file:
      * RASSCF average (pseudo-natural) orbitals                                      
 
 
      Cartesian coordinates in Angstrom:
      -----------------------------------------------------
      No.  Label        X            Y            Z        
      -----------------------------------------------------
       1   O1         0.41343900   1.20927800   0.00000000
       2   O2         0.00000000   0.00000000   0.00000000
       3   O3         0.41343900  -1.20927800   0.00000000
      -----------------------------------------------------
      Nuclear repulsion energy =   67.00364154
 
      Orbital specifications:
      -----------------------
 
      Symmetry species:              1
      Number of basis functions:    42
      Frozen orbitals:               0
      Deleted orbitals:              0
      Number of orbitals used:      42

       SYMMETRY  BASIS FUNCTIONS       ORBITALS      INTEGRALS   CPU(SEC)  I/O(SEC)
 
        1 1 1 1   42  42  42  42    42  42  42  42      408156       0.00      0.00

       TOTAL CPU TIME(SEC)    0.38TOTAL I/O TIME(SEC)    0.77
 
--- Stop Module: motra at Fri Jan 24 16:29:42 2025 /rc=_RC_ALL_IS_WELL_ ---
*** files: xmldump
    saved to directory /home/grierjones/DDCASPT2/ozone/ANO-RCC-VDZP/ozone_142.25

>>> COPY /tmp/ozone_142.25/GMJ_one_int_indx.csv /home/grierjones/DDCASPT2/ozone/ANO-RCC-VDZP/ozone_142.25/ozone_142.25.GMJ_one_int_indx.csv

>>> COPY /tmp/ozone_142.25/GMJ_one_int.csv /home/grierjones/DDCASPT2/ozone/ANO-RCC-VDZP/ozone_142.25/ozone_142.25.GMJ_one_int.csv

>>> COPY /tmp/ozone_142.25/GMJ_two_int_indx.csv /home/grierjones/DDCASPT2/ozone/ANO-RCC-VDZP/ozone_142.25/ozone_142.25.GMJ_two_int_indx.csv

>>> COPY /tmp/ozone_142.25/GMJ_two_int.csv /home/grierjones/DDCASPT2/ozone/ANO-RCC-VDZP/ozone_142.25/ozone_142.25.GMJ_two_int.csv

*** symbolic link created: INPORB -> ozone_142.25.RasOrb
--- Start Module: caspt2 at Fri Jan 24 16:29:42 2025 ---
 
()()()()()()()()()()()()()()()()()()()()()()()()()()()()()()()()()()()()()()()()()()()()()()()()()()

                                              &CASPT2

                                   only a single process is used
                       available to each process: 2.0 GB of memory, 1 thread?
()()()()()()()()()()()()()()()()()()()()()()()()()()()()()()()()()()()()()()()()()()()()()()()()()()
 
 Cholesky algorithm in CASPT2 =    1
 
 ###############################################################################
 ###############################################################################
 ###                                                                         ###
 ###                                                                         ###
 ###    User changed nr of frozen orbitals.                                  ###
 ###                                                                         ###
 ###                                                                         ###
 ###############################################################################
 ###############################################################################
 
++    Wave function specifications:
      -----------------------------
 
      Number of closed shell electrons          20
      Number of electrons in active shells       4
      Max number of holes in RAS1 space          0
      Max number of electrons in RAS3 space      0
      Number of inactive orbitals               10
      Number of active orbitals                  3
      Number of secondary orbitals              29
      Spin quantum number                      0.0
      State symmetry                             1
      Number of CSFs                             6
      Number of root(s) available                1
      Root passed to geometry opt.               1
      A file JOBMIX will be created.
      This is a CASSCF or RASSCF reference function
--
 
++    Orbital specifications:
      -----------------------
 
      Symmetry species                           1
                                                 a
      Frozen orbitals                            0
      Inactive orbitals                         10
      Active orbitals                            3
      Secondary orbitals                        29
      Deleted orbitals                           0
      Number of basis functions                 42
--
 
      Type of Fock operator: STANDARD
      Type of 0-order Hamiltonian: STANDARD WITH DEFAULT IPEA
        "IP-EA" denominator shift =      0.25
      The input orbitals and the CI vector will be transformed.
 
--------------------------------------------------------------------------------
 Estimated memory requirements:
  POLY3 :                   250202
  RHS:                      279634
  SIGMA :                   302200
  PRPCTL:                        0
 Available workspace:    230396563
 
++ CASPT2 computation for group   1
 
********************************************************************************
 Multi-State initialization phase begins for group   1
--------------------------------------------------------------------------------
********************************************************************************
 Compute H0 matrices for state    1
--------------------------------------------------------------------------------
--------------------------------------------------------------------------------
 H0 matrices have been computed.
 
********************************************************************************
  CASPT2 EQUATION SOLUTION
--------------------------------------------------------------------------------
 
  Total nr of CASPT2 parameters:
   Before reduction:       86691
   After  reduction:       82880
 
 The contributions to the second order correlation energy in atomic units.
-----------------------------------------------------------------------------------------------------------------------------
  IT.      VJTU        VJTI        ATVX        AIVX        VJAI        BVAT        BJAT        BJAI        TOTAL       RNORM  
-----------------------------------------------------------------------------------------------------------------------------
   1    -0.000000   -0.001371   -0.013434   -0.097471   -0.017284   -0.016853   -0.124008   -0.270327   -0.540747    0.002154
   2    -0.000000   -0.001389   -0.013482   -0.097804   -0.017300   -0.016858   -0.124035   -0.270329   -0.541197    0.000171
   3    -0.000000   -0.001389   -0.013483   -0.097807   -0.017301   -0.016858   -0.124036   -0.270330   -0.541202    0.000022
   4    -0.000000   -0.001389   -0.013482   -0.097805   -0.017300   -0.016858   -0.124035   -0.270330   -0.541200    0.000003
-------------------------------------------------------------------------------------------------------------------
 
  FINAL CASPT2 RESULT:
 
  Correlation energy /Case, /Symm, and sums:
 VJTU     -0.00000000 -0.00000000
 VJTIP    -0.00138884 -0.00138884
 VJTIM     0.00000000  0.00000000
 ATVX     -0.01348227 -0.01348227
 AIVX     -0.09780537 -0.09780537
 VJAIP    -0.01206157 -0.01206157
 VJAIM    -0.00523887 -0.00523887
 BVATP    -0.01592271 -0.01592271
 BVATM    -0.00093502 -0.00093502
 BJATP    -0.04581628 -0.04581628
 BJATM    -0.07821919 -0.07821919
 BJAIP    -0.18175782 -0.18175782
 BJAIM    -0.08857188 -0.08857188
 Summed:  -0.54119981 -0.54119981
 
      Reference energy:        -224.5430932912
      E2 (Non-variational):      -0.5411998077
      E2 (Variational):          -0.5411998338
      Total energy:            -225.0842931249
      Residual norm:              0.0000002692
      Reference weight:           0.85398
 
      Contributions to the CASPT2 correlation energy
      Active & Virtual Only:         -0.0303400028
      One Inactive Excited:          -0.2218408384
      Two Inactive Excited:          -0.2890189665
 
 
++ Denominators, etc.
----------------------------------------------------------------------------------------------------
 Report on small energy denominators, large coefficients, and large energy contributions.
CASE  SYMM ACTIVE-MIX  NON-ACTIVE INDICES          DENOMINATOR     RHS VALUE       COEFFICIENT     CONTRIBUTION
ATVX     1  Mu1.0006  Se1.017                       1.88784478      0.06540457     -0.03532394     -0.00231035
ATVX     1  Mu1.0005  Se1.021                       1.83011116      0.09875793     -0.05291900     -0.00522617
ATVX     1  Mu1.0006  Se1.024                       2.39960771     -0.06110845      0.02554719     -0.00156115
AIVX     1  Mu1.0006  In1.004 Se1.014               2.68066817      0.07557209     -0.02813856     -0.00212649
AIVX     1  Mu1.0003  In1.005 Se1.014               2.05993706     -0.06423220      0.03077510     -0.00197675
AIVX     1  Mu1.0004  In1.007 Se1.014               1.61435995     -0.06925964      0.04337946     -0.00300445
AIVX     1  Mu1.0002  In1.008 Se1.014               1.31484058      0.07854818     -0.05918122     -0.00464858
AIVX     1  Mu1.0003  In1.008 Se1.014               1.40444092      0.03871329     -0.02734798     -0.00105873
AIVX     1  Mu1.0002  In1.009 Se1.014               1.12065229     -0.05980382      0.05263474     -0.00314776
AIVX     1  Mu1.0003  In1.009 Se1.014               1.21025264     -0.04018059      0.03286952     -0.00132072
AIVX     1  Mu1.0002  In1.008 Se1.016               1.56694148     -0.04272206      0.02662364     -0.00113742
AIVX     1  Mu1.0004  In1.010 Se1.016               1.56812981     -0.05476992      0.03491063     -0.00191205
AIVX     1  Mu1.0002  In1.009 Se1.018               1.46280591     -0.06296854      0.04192919     -0.00264022
AIVX     1  Mu1.0003  In1.009 Se1.018               1.55240626     -0.04394797      0.02759791     -0.00121287
AIVX     1  Mu1.0004  In1.008 Se1.019               2.00651873      0.11585090     -0.05819315     -0.00674173
AIVX     1  Mu1.0006  In1.008 Se1.019               2.17145988     -0.06770192      0.03134136     -0.00212187
AIVX     1  Mu1.0002  In1.010 Se1.019               1.41830595      0.03814927     -0.02668654     -0.00101807
AIVX     1  Mu1.0002  In1.010 Se1.020               1.50036237     -0.07555916      0.04904403     -0.00370573
AIVX     1  Mu1.0003  In1.010 Se1.020               1.58996272     -0.05019879      0.03064285     -0.00153823
BJAIP    1  Se1.014 In1.007 Se1.014 In1.007         2.01266353      0.05052928     -0.02510564     -0.00126857
BJAIP    1  Se1.014 In1.006 Se1.019 In1.008         2.67403544      0.06956867     -0.02601634     -0.00180992
BJAIP    1  Se1.014 In1.007 Se1.019 In1.008         2.40482232     -0.06368822      0.02648351     -0.00168669
BJAIP    1  Se1.014 In1.008 Se1.014 In1.008         2.00302591      0.05370686     -0.02681286     -0.00144003
BJAIP    1  Se1.019 In1.008 Se1.019 In1.008         2.79698110      0.10533038     -0.03765855     -0.00396659
BJAIP    1  Se1.014 In1.009 Se1.014 In1.009         1.61464933      0.04140333     -0.02564230     -0.00106168
BJAIM    1  Se1.014 In1.009 Se1.019 In1.010         1.99435941      0.05085174     -0.02549777     -0.00129661
--
 
   (Skipping property calculation,
    use PROP keyword to activate)
--
 
  Total CASPT2 energies:
::    CASPT2 Root  1     Total energy:   -225.08429312
 
  A NEW JOBIPH FILE NAMED 'JOBMIX' IS PREPARED.
********************************************************************************
forrtl: warning (528): IEEE_UNDERFLOW is signaling
--- Stop Module: caspt2 at Fri Jan 24 16:29:42 2025 /rc=_RC_ALL_IS_WELL_ ---
*** files: xmldump
    saved to directory /home/grierjones/DDCASPT2/ozone/ANO-RCC-VDZP/ozone_142.25

>>> EXPORT i = B

>>> EXPORT j = P

>>> IF (-FILE GMJ_e2_${i}_${j}.csv)

>>> COPY /tmp/ozone_142.25/GMJ_RHS_B_P.csv /home/grierjones/DDCASPT2/ozone/ANO-RCC-VDZP/ozone_142.25/GMJ_RHS_B_P.csv

>>> COPY /tmp/ozone_142.25/GMJ_IVECW_B_P.csv /home/grierjones/DDCASPT2/ozone/ANO-RCC-VDZP/ozone_142.25/GMJ_IVECW_B_P.csv

>>> COPY /tmp/ozone_142.25/GMJ_IVECX_B_P.csv /home/grierjones/DDCASPT2/ozone/ANO-RCC-VDZP/ozone_142.25/GMJ_IVECX_B_P.csv

>>> COPY /tmp/ozone_142.25/GMJ_IVECC2_B_P.csv /home/grierjones/DDCASPT2/ozone/ANO-RCC-VDZP/ozone_142.25/GMJ_IVECC2_B_P.csv

>>> COPY /tmp/ozone_142.25/GMJ_e2_B_P.csv /home/grierjones/DDCASPT2/ozone/ANO-RCC-VDZP/ozone_142.25/GMJ_e2_B_P.csv

>>> END FOREACH

>>> EXPORT j = M

>>> IF (-FILE GMJ_e2_${i}_${j}.csv)
(Skipped)

>>> END FOREACH

>>> END FOREACH

>>> EXPORT i = E

>>> EXPORT j = P

>>> IF (-FILE GMJ_e2_${i}_${j}.csv)

>>> COPY /tmp/ozone_142.25/GMJ_RHS_E_P.csv /home/grierjones/DDCASPT2/ozone/ANO-RCC-VDZP/ozone_142.25/GMJ_RHS_E_P.csv

>>> COPY /tmp/ozone_142.25/GMJ_IVECW_E_P.csv /home/grierjones/DDCASPT2/ozone/ANO-RCC-VDZP/ozone_142.25/GMJ_IVECW_E_P.csv

>>> COPY /tmp/ozone_142.25/GMJ_IVECX_E_P.csv /home/grierjones/DDCASPT2/ozone/ANO-RCC-VDZP/ozone_142.25/GMJ_IVECX_E_P.csv

>>> COPY /tmp/ozone_142.25/GMJ_IVECC2_E_P.csv /home/grierjones/DDCASPT2/ozone/ANO-RCC-VDZP/ozone_142.25/GMJ_IVECC2_E_P.csv

>>> COPY /tmp/ozone_142.25/GMJ_e2_E_P.csv /home/grierjones/DDCASPT2/ozone/ANO-RCC-VDZP/ozone_142.25/GMJ_e2_E_P.csv

>>> END FOREACH

>>> EXPORT j = M

>>> IF (-FILE GMJ_e2_${i}_${j}.csv)

>>> COPY /tmp/ozone_142.25/GMJ_RHS_E_M.csv /home/grierjones/DDCASPT2/ozone/ANO-RCC-VDZP/ozone_142.25/GMJ_RHS_E_M.csv

>>> COPY /tmp/ozone_142.25/GMJ_IVECW_E_M.csv /home/grierjones/DDCASPT2/ozone/ANO-RCC-VDZP/ozone_142.25/GMJ_IVECW_E_M.csv

>>> COPY /tmp/ozone_142.25/GMJ_IVECX_E_M.csv /home/grierjones/DDCASPT2/ozone/ANO-RCC-VDZP/ozone_142.25/GMJ_IVECX_E_M.csv

>>> COPY /tmp/ozone_142.25/GMJ_IVECC2_E_M.csv /home/grierjones/DDCASPT2/ozone/ANO-RCC-VDZP/ozone_142.25/GMJ_IVECC2_E_M.csv

>>> COPY /tmp/ozone_142.25/GMJ_e2_E_M.csv /home/grierjones/DDCASPT2/ozone/ANO-RCC-VDZP/ozone_142.25/GMJ_e2_E_M.csv

>>> END FOREACH

>>> END FOREACH

>>> EXPORT i = F

>>> EXPORT j = P

>>> IF (-FILE GMJ_e2_${i}_${j}.csv)

>>> COPY /tmp/ozone_142.25/GMJ_RHS_F_P.csv /home/grierjones/DDCASPT2/ozone/ANO-RCC-VDZP/ozone_142.25/GMJ_RHS_F_P.csv

>>> COPY /tmp/ozone_142.25/GMJ_IVECW_F_P.csv /home/grierjones/DDCASPT2/ozone/ANO-RCC-VDZP/ozone_142.25/GMJ_IVECW_F_P.csv

>>> COPY /tmp/ozone_142.25/GMJ_IVECX_F_P.csv /home/grierjones/DDCASPT2/ozone/ANO-RCC-VDZP/ozone_142.25/GMJ_IVECX_F_P.csv

>>> COPY /tmp/ozone_142.25/GMJ_IVECC2_F_P.csv /home/grierjones/DDCASPT2/ozone/ANO-RCC-VDZP/ozone_142.25/GMJ_IVECC2_F_P.csv

>>> COPY /tmp/ozone_142.25/GMJ_e2_F_P.csv /home/grierjones/DDCASPT2/ozone/ANO-RCC-VDZP/ozone_142.25/GMJ_e2_F_P.csv

>>> END FOREACH

>>> EXPORT j = M

>>> IF (-FILE GMJ_e2_${i}_${j}.csv)

>>> COPY /tmp/ozone_142.25/GMJ_RHS_F_M.csv /home/grierjones/DDCASPT2/ozone/ANO-RCC-VDZP/ozone_142.25/GMJ_RHS_F_M.csv

>>> COPY /tmp/ozone_142.25/GMJ_IVECW_F_M.csv /home/grierjones/DDCASPT2/ozone/ANO-RCC-VDZP/ozone_142.25/GMJ_IVECW_F_M.csv

>>> COPY /tmp/ozone_142.25/GMJ_IVECX_F_M.csv /home/grierjones/DDCASPT2/ozone/ANO-RCC-VDZP/ozone_142.25/GMJ_IVECX_F_M.csv

>>> COPY /tmp/ozone_142.25/GMJ_IVECC2_F_M.csv /home/grierjones/DDCASPT2/ozone/ANO-RCC-VDZP/ozone_142.25/GMJ_IVECC2_F_M.csv

>>> COPY /tmp/ozone_142.25/GMJ_e2_F_M.csv /home/grierjones/DDCASPT2/ozone/ANO-RCC-VDZP/ozone_142.25/GMJ_e2_F_M.csv

>>> END FOREACH

>>> END FOREACH

>>> EXPORT i = G

>>> EXPORT j = P

>>> IF (-FILE GMJ_e2_${i}_${j}.csv)

>>> COPY /tmp/ozone_142.25/GMJ_RHS_G_P.csv /home/grierjones/DDCASPT2/ozone/ANO-RCC-VDZP/ozone_142.25/GMJ_RHS_G_P.csv

>>> COPY /tmp/ozone_142.25/GMJ_IVECW_G_P.csv /home/grierjones/DDCASPT2/ozone/ANO-RCC-VDZP/ozone_142.25/GMJ_IVECW_G_P.csv

>>> COPY /tmp/ozone_142.25/GMJ_IVECX_G_P.csv /home/grierjones/DDCASPT2/ozone/ANO-RCC-VDZP/ozone_142.25/GMJ_IVECX_G_P.csv

>>> COPY /tmp/ozone_142.25/GMJ_IVECC2_G_P.csv /home/grierjones/DDCASPT2/ozone/ANO-RCC-VDZP/ozone_142.25/GMJ_IVECC2_G_P.csv

>>> COPY /tmp/ozone_142.25/GMJ_e2_G_P.csv /home/grierjones/DDCASPT2/ozone/ANO-RCC-VDZP/ozone_142.25/GMJ_e2_G_P.csv

>>> END FOREACH

>>> EXPORT j = M

>>> IF (-FILE GMJ_e2_${i}_${j}.csv)

>>> COPY /tmp/ozone_142.25/GMJ_RHS_G_M.csv /home/grierjones/DDCASPT2/ozone/ANO-RCC-VDZP/ozone_142.25/GMJ_RHS_G_M.csv

>>> COPY /tmp/ozone_142.25/GMJ_IVECW_G_M.csv /home/grierjones/DDCASPT2/ozone/ANO-RCC-VDZP/ozone_142.25/GMJ_IVECW_G_M.csv

>>> COPY /tmp/ozone_142.25/GMJ_IVECX_G_M.csv /home/grierjones/DDCASPT2/ozone/ANO-RCC-VDZP/ozone_142.25/GMJ_IVECX_G_M.csv

>>> COPY /tmp/ozone_142.25/GMJ_IVECC2_G_M.csv /home/grierjones/DDCASPT2/ozone/ANO-RCC-VDZP/ozone_142.25/GMJ_IVECC2_G_M.csv

>>> COPY /tmp/ozone_142.25/GMJ_e2_G_M.csv /home/grierjones/DDCASPT2/ozone/ANO-RCC-VDZP/ozone_142.25/GMJ_e2_G_M.csv

>>> END FOREACH

>>> END FOREACH

>>> EXPORT i = H

>>> EXPORT j = P

>>> IF (-FILE GMJ_e2_${i}_${j}.csv)

>>> COPY /tmp/ozone_142.25/GMJ_RHS_H_P.csv /home/grierjones/DDCASPT2/ozone/ANO-RCC-VDZP/ozone_142.25/GMJ_RHS_H_P.csv

>>> COPY /tmp/ozone_142.25/GMJ_IVECW_H_P.csv /home/grierjones/DDCASPT2/ozone/ANO-RCC-VDZP/ozone_142.25/GMJ_IVECW_H_P.csv

>>> COPY /tmp/ozone_142.25/GMJ_IVECX_H_P.csv /home/grierjones/DDCASPT2/ozone/ANO-RCC-VDZP/ozone_142.25/GMJ_IVECX_H_P.csv

>>> COPY /tmp/ozone_142.25/GMJ_IVECC2_H_P.csv /home/grierjones/DDCASPT2/ozone/ANO-RCC-VDZP/ozone_142.25/GMJ_IVECC2_H_P.csv

>>> COPY /tmp/ozone_142.25/GMJ_e2_H_P.csv /home/grierjones/DDCASPT2/ozone/ANO-RCC-VDZP/ozone_142.25/GMJ_e2_H_P.csv

>>> END FOREACH

>>> EXPORT j = M

>>> IF (-FILE GMJ_e2_${i}_${j}.csv)

>>> COPY /tmp/ozone_142.25/GMJ_RHS_H_M.csv /home/grierjones/DDCASPT2/ozone/ANO-RCC-VDZP/ozone_142.25/GMJ_RHS_H_M.csv

>>> COPY /tmp/ozone_142.25/GMJ_IVECW_H_M.csv /home/grierjones/DDCASPT2/ozone/ANO-RCC-VDZP/ozone_142.25/GMJ_IVECW_H_M.csv

>>> COPY /tmp/ozone_142.25/GMJ_IVECX_H_M.csv /home/grierjones/DDCASPT2/ozone/ANO-RCC-VDZP/ozone_142.25/GMJ_IVECX_H_M.csv

>>> COPY /tmp/ozone_142.25/GMJ_IVECC2_H_M.csv /home/grierjones/DDCASPT2/ozone/ANO-RCC-VDZP/ozone_142.25/GMJ_IVECC2_H_M.csv

>>> COPY /tmp/ozone_142.25/GMJ_e2_H_M.csv /home/grierjones/DDCASPT2/ozone/ANO-RCC-VDZP/ozone_142.25/GMJ_e2_H_M.csv

>>> END FOREACH

>>> END FOREACH

>>> EXPORT i = A

>>> IF (-FILE GMJ_e2_$i.csv)

>>> COPY /tmp/ozone_142.25/GMJ_RHS_A.csv /home/grierjones/DDCASPT2/ozone/ANO-RCC-VDZP/ozone_142.25/GMJ_RHS_A.csv

>>> COPY /tmp/ozone_142.25/GMJ_IVECW_A.csv /home/grierjones/DDCASPT2/ozone/ANO-RCC-VDZP/ozone_142.25/GMJ_IVECW_A.csv

>>> COPY /tmp/ozone_142.25/GMJ_IVECX_A.csv /home/grierjones/DDCASPT2/ozone/ANO-RCC-VDZP/ozone_142.25/GMJ_IVECX_A.csv

>>> COPY /tmp/ozone_142.25/GMJ_IVECC2_A.csv /home/grierjones/DDCASPT2/ozone/ANO-RCC-VDZP/ozone_142.25/GMJ_IVECC2_A.csv

>>> COPY /tmp/ozone_142.25/GMJ_e2_A.csv /home/grierjones/DDCASPT2/ozone/ANO-RCC-VDZP/ozone_142.25/GMJ_e2_A.csv

>>> END FOREACH

>>> EXPORT i = C

>>> IF (-FILE GMJ_e2_$i.csv)

>>> COPY /tmp/ozone_142.25/GMJ_RHS_C.csv /home/grierjones/DDCASPT2/ozone/ANO-RCC-VDZP/ozone_142.25/GMJ_RHS_C.csv

>>> COPY /tmp/ozone_142.25/GMJ_IVECW_C.csv /home/grierjones/DDCASPT2/ozone/ANO-RCC-VDZP/ozone_142.25/GMJ_IVECW_C.csv

>>> COPY /tmp/ozone_142.25/GMJ_IVECX_C.csv /home/grierjones/DDCASPT2/ozone/ANO-RCC-VDZP/ozone_142.25/GMJ_IVECX_C.csv

>>> COPY /tmp/ozone_142.25/GMJ_IVECC2_C.csv /home/grierjones/DDCASPT2/ozone/ANO-RCC-VDZP/ozone_142.25/GMJ_IVECC2_C.csv

>>> COPY /tmp/ozone_142.25/GMJ_e2_C.csv /home/grierjones/DDCASPT2/ozone/ANO-RCC-VDZP/ozone_142.25/GMJ_e2_C.csv

>>> END FOREACH

>>> EXPORT i = D

>>> IF (-FILE GMJ_e2_$i.csv)

>>> COPY /tmp/ozone_142.25/GMJ_RHS_D.csv /home/grierjones/DDCASPT2/ozone/ANO-RCC-VDZP/ozone_142.25/GMJ_RHS_D.csv

>>> COPY /tmp/ozone_142.25/GMJ_IVECW_D.csv /home/grierjones/DDCASPT2/ozone/ANO-RCC-VDZP/ozone_142.25/GMJ_IVECW_D.csv

>>> COPY /tmp/ozone_142.25/GMJ_IVECX_D.csv /home/grierjones/DDCASPT2/ozone/ANO-RCC-VDZP/ozone_142.25/GMJ_IVECX_D.csv

>>> COPY /tmp/ozone_142.25/GMJ_IVECC2_D.csv /home/grierjones/DDCASPT2/ozone/ANO-RCC-VDZP/ozone_142.25/GMJ_IVECC2_D.csv

>>> COPY /tmp/ozone_142.25/GMJ_e2_D.csv /home/grierjones/DDCASPT2/ozone/ANO-RCC-VDZP/ozone_142.25/GMJ_e2_D.csv

>>> END FOREACH

.########################.
.# Non-zero return code #.
.########################.

    Timing: Wall=3.15 User=2.27 System=0.85
********************************************
*** WorkDir at /tmp/ozone_142.25 cleaned ***
********************************************
