   This run of MOLCAS is using the pymolcas driver

                             OPE
                             OPE          NMOL  CASOP  ENMOLC A   SO
                 OPE        NMOLC        AS  OP EN  MO LC     AS  OP
                OPENM       OL CA        SO  PE NM  OL CA     SOP EN
                OP EN      MO   LC       AS  OP ENMOL  CASO   PENMOL
                OP  EN     MO   LC       AS  OP EN     MO     LC ASO
               OP   E  NMOL  C  AS       OP  EN MO     LC     AS  OP
               OP  E   NMO   LC AS        OPEN  MO     LCASOP EN   M
               O  PEN   MO  LCA  SO
            OPE   NMO   L   CAS    OP
        OPENMOL  CASOP     ENMOL   CASOPE
     OPENMOLCA   SOPENMOLCASOPEN   MOLCASOPE
    OPENMOLCAS   OP           EN   MOL    CAS
    OPENMOLCAS       OP  ENM        O     LCA
    OPENMOLCAS    OPEN  MOLCASO     P  E  NMO
    OPENMOLCAS     OP               E  N  MOL
    OPENMOLCA   SO           PENM   O  L  CAS    OPEN    MO    LCAS
    OPENMOLCA   SOP           ENM   O  L  CAS   OP  EN  MOLC  AS   O
    OPENMOLCA   SOPE           NM      O  LCA   S      OP  EN MO
    OPENMOLC                AS         O  PEN   M      OL  CA  SOPE
    OPENMO        LCASOPE  NMOL        C  ASO   P      ENMOLC     AS
    OPE     NMO      LCA  SO     P     E   NM   OL  CA SO  PE N   MO
          OPENMOLCA            SOPE   NMO        LCAS  O    P  ENMO
     OPENMOLCASOPENMOLCASOPENMOLCASOPENMOLCA
        OPENMOLCASOPENMOLCASOPENMOLCASOPE
            OPENMOLCASOPENMOLCASOPENM
               OPENMOLCASOPENMOLCA        version: ea724fe96-dirty
                   OPENMOLCASO
                       OPE                tag:

 OpenMolcas is free software; you can redistribute it and/or modify it
 under the terms of the GNU Lesser General Public License version 2.1.
 OpenMolcas is distributed in the hope that it will be useful, but it
 is provided "as is" and without any express or implied warranties.
 For more details see the full text of the license in the file
 LICENSE or in <http://www.gnu.org/licenses/>.

                 Copyright (C) The OpenMolcas Authors
           For the author list and the recommended citation,
                   consult the file CONTRIBUTORS.md

           *************************************************
           * pymolcas version py2.28                       *
           *   build c4a6d18ded8cb6cad61d2372a9abd97c      *
           *   (after the EMIL interpreter by V. Veryazov) *
           *************************************************

configuration info
------------------
C Compiler ID: Intel
C flags: -std=gnu99
Fortran Compiler ID: Intel
Fortran flags: -fpp -i8 -r8 -heap-arrays
Definitions: _MOLCAS_;_I8_;_LINUX_
Parallel: OFF (GA=OFF)


   -------------------------------------------------------------------------------
  |
  |              Project: 1.61
  |       Submitted from: /home/grierjones/DDCASPT2/iron_oxo_DDCASPT2/cluster/1.61
  |         Scratch area: /tmp/1.61
  |      Save outputs to: /home/grierjones/DDCASPT2/iron_oxo_DDCASPT2/cluster/1.61
  |               Molcas: /home/grierjones/Test/build
  |
  | Scratch area is empty
  |
  |       MOLCAS_DRIVER = /usr/local/pymolcas
  | MOLCAS_KEEP_WORKDIR = NO
  |  MOLCAS_NEW_WORKDIR = YES
  |       MOLCAS_NPROCS = 1
  |        MOLCAS_PRINT = NORMAL
  |       MOLCAS_SOURCE = /home/grierjones/Test/build
  |    MOLCAS_STRUCTURE = 0
  |
   -------------------------------------------------------------------------------

++ ---------   Input file   ---------

&GATEWAY
coord=1.61.xyz
Basis = ANO-RCC-VDZP
Group = nosymm
Expert
End of Input

&SEWARD
End of Input

&SCF
UHF
charge
2
spin
5

>>> COPY $WorkDir/1.61.scf.h5 $CurrDir/

&RASSCF
Title= RASSCF
FileOrb
/home/grierjones/DDCASPT2/iron_oxo_DDCASPT2/cluster/1.60/1.60.RasOrb
NACTEL
10 0 0
RAS2
14
Symmetry
1
Spin
5
charge
2
orblisting
all
ITERation
300 200

>>> COPY $WorkDir/1.61.rasscf.h5 $CurrDir/

>>> COPY $WorkDir/GMJ_Fock_MO.csv $CurrDir/1.61.GMJ_Fock_MO.csv

>>> COPY $WorkDir/GMJ_PT2_Fock_MO.csv $CurrDir/1.61.GMJ_PT2_Fock_MO.csv

&MOTRA
Frozen=0
LUMORB

>>> COPY $WorkDir/GMJ_one_int_indx.csv $CurrDir/1.61.GMJ_one_int_indx.csv

>>> COPY $WorkDir/GMJ_one_int.csv $CurrDir/1.61.GMJ_one_int.csv

>>> COPY $WorkDir/GMJ_two_int_indx.csv $CurrDir/1.61.GMJ_two_int_indx.csv

>>> COPY $WorkDir/GMJ_two_int.csv $CurrDir/1.61.GMJ_two_int.csv

&CASPT2
Frozen
0
MAXITER
50

>>> FOREACH i IN (B,E,F,G,H)

  >>> FOREACH j IN (P,M)

    >>> IF (-FILE GMJ_e2_${i}_${j}.csv)

      >>> COPY $WorkDir/GMJ_RHS_${i}_${j}.csv $CurrDir/GMJ_RHS_${i}_${j}.csv

      >>> COPY $WorkDir/GMJ_IVECW_${i}_${j}.csv $CurrDir/GMJ_IVECW_${i}_${j}.csv

      >>> COPY $WorkDir/GMJ_IVECX_${i}_${j}.csv $CurrDir/GMJ_IVECX_${i}_${j}.csv

      >>> COPY $WorkDir/GMJ_IVECC2_${i}_${j}.csv $CurrDir/GMJ_IVECC2_${i}_${j}.csv

      >>> COPY $WorkDir/GMJ_e2_${i}_${j}.csv $CurrDir/GMJ_e2_${i}_${j}.csv

    >>> END IF

  >>> END FOREACH

>>> END FOREACH

>>> FOREACH i IN (A,C,D)

  >>> IF (-FILE GMJ_e2_$i.csv)

    >>> COPY $WorkDir/GMJ_RHS_$i.csv $CurrDir/GMJ_RHS_$i.csv

    >>> COPY $WorkDir/GMJ_IVECW_$i.csv $CurrDir/GMJ_IVECW_$i.csv

    >>> COPY $WorkDir/GMJ_IVECX_$i.csv $CurrDir/GMJ_IVECX_$i.csv

    >>> COPY $WorkDir/GMJ_IVECC2_$i.csv $CurrDir/GMJ_IVECC2_$i.csv

    >>> COPY $WorkDir/GMJ_e2_$i.csv $CurrDir/GMJ_e2_$i.csv

  >>> END IF

>>> END FOREACH

-- ----------------------------------

--- Start Module: gateway at Thu Dec 19 14:10:13 2024 ---
 
()()()()()()()()()()()()()()()()()()()()()()()()()()()()()()()()()()()()()()()()()()()()()()()()()()

                                              &GATEWAY

                                   only a single process is used
                       available to each process: 2.0 GB of memory, 1 thread?
()()()()()()()()()()()()()()()()()()()()()()()()()()()()()()()()()()()()()()()()()()()()()()()()()()
 
 ###############################################################################
 ###############################################################################
 ###                                                                         ###
 ###                                                                         ###
 ###                                                                         ###
 ###    WARNING: EXPERT option is ON!                                        ###
 ###                                                                         ###
 ###                                                                         ###
 ###############################################################################
 ###############################################################################
 
++    Symmetry information:
      ---------------------
 
                    Character Table for C1 
 
                             E  
                    a        1  x, y, xy, Rz, z, xz, Ry, yz, Rx, I
--
 
 
++    Basis set information:
      ----------------------
 
 
      Basis set label: O.ANO-RCC...3S2P1D.
 
      Electronic valence basis set:
      ------------------
      Associated Effective Charge   8.000000 au
      Associated Actual Charge      8.000000 au
      Nuclear Model: Point charge
 
      Shell  nPrim  nBasis  Cartesian Spherical Contaminant
         s      14       3        X                  
         p       9       2        X                  
         d       4       1                 X         
 
 
      Basis set label: FE.ANO-RCC...5S4P2D1F.
 
      Electronic valence basis set:
      ------------------
      Associated Effective Charge  26.000000 au
      Associated Actual Charge     26.000000 au
      Nuclear Model: Point charge
 
      Shell  nPrim  nBasis  Cartesian Spherical Contaminant
         s      21       5        X                  
         p      15       4        X                  
         d      10       2                 X         
         f       6       1                 X         
--
 
 
++    Molecular structure info:
      -------------------------
 
                    ************************************************ 
                    **** Cartesian Coordinates / Bohr, Angstrom **** 
                    ************************************************ 
 
     Center  Label                x              y              z                     x              y              z
        1      O1               0.000000       0.000000       3.034541              0.000000       0.000000       1.605810
        2      FE2              0.000000       0.000000      -0.010979              0.000000       0.000000      -0.005810
--
 
 
            Nuclear Potential Energy             68.29703021 au
 
 ###############################################################################
 ###############################################################################
 ###                                                                         ###
 ###                                                                         ###
 ###    There were warnings during the execution                             ###
 ###    Please, check the output with care!                                  ###
 ###                                                                         ###
 ###                                                                         ###
 ###############################################################################
 ###############################################################################
--- Stop Module: gateway at Thu Dec 19 14:10:13 2024 /rc=_RC_ALL_IS_WELL_ ---
*** files: xmldump
    saved to directory /home/grierjones/DDCASPT2/iron_oxo_DDCASPT2/cluster/1.61

--- Start Module: seward at Thu Dec 19 14:10:13 2024 ---
 
()()()()()()()()()()()()()()()()()()()()()()()()()()()()()()()()()()()()()()()()()()()()()()()()()()

                                              &SEWARD

                                   only a single process is used
                       available to each process: 2.0 GB of memory, 1 thread?
()()()()()()()()()()()()()()()()()()()()()()()()()()()()()()()()()()()()()()()()()()()()()()()()()()
 
 ###############################################################################
 ###############################################################################
 ###                                                                         ###
 ###                                                                         ###
 ###                                                                         ###
 ###    WARNING: EXPERT option is ON!                                        ###
 ###                                                                         ###
 ###                                                                         ###
 ###############################################################################
 ###############################################################################
               SEWARD will generate:
                  Multipole Moment integrals up to order  2
                  Kinetic Energy integrals
                  Nuclear Attraction integrals (point charge)
                  One-Electron Hamiltonian integrals
                  Velocity integrals
                  Relativistic Douglas-Kroll-Hess integrals:
                    - Parametrization         : EXP
                    - DKH order of Hamiltonian: 2
                    - DKH order of Properties : 0
                         - multipole moment operators
                         - electric potential operators
                         - contact operators
                  Atomic mean-field integrals
                  Two-Electron Repulsion integrals
 
                   Integrals are discarded if absolute value <: 0.10E-13
                   Integral cutoff threshold is set to       <: 0.10E-15
 
            Nuclear Potential Energy             68.29703021 au
 
 
      Basis set specifications :
      Symmetry species         a  
      Basis functions           48
 
 
  Input file to MOLDEN was generated!
 
 ###############################################################################
 ###############################################################################
 ###                                                                         ###
 ###                                                                         ###
 ###    There were warnings during the execution                             ###
 ###    Please, check the output with care!                                  ###
 ###                                                                         ###
 ###                                                                         ###
 ###############################################################################
 ###############################################################################
--- Stop Module: seward at Thu Dec 19 14:10:14 2024 /rc=_RC_ALL_IS_WELL_ ---
*** files: 1.61.GssOrb 1.61.guessorb.h5 1.61.guessorb.molden xmldump
    saved to directory /home/grierjones/DDCASPT2/iron_oxo_DDCASPT2/cluster/1.61
--- Module seward spent 1 second ---

*** symbolic link created: INPORB -> 1.61.GssOrb
--- Start Module: scf at Thu Dec 19 14:10:14 2024 ---
 
()()()()()()()()()()()()()()()()()()()()()()()()()()()()()()()()()()()()()()()()()()()()()()()()()()

                                                &SCF

                                   only a single process is used
                       available to each process: 2.0 GB of memory, 1 thread?
()()()()()()()()()()()()()()()()()()()()()()()()()()()()()()()()()()()()()()()()()()()()()()()()()()
 
 *** Possible bug in opening file
 *** isFreeUnit resets the unit number
++    Input section:
      --------------
 
      Header of the integral files:
      
       Integrals generated by seward 4.2.0  , Thu Dec 19 14:10:13 2024
 
 
      Cartesian coordinates in Angstrom:
      -----------------------------------------------------
      No.  Label        X            Y            Z        
      -----------------------------------------------------
       1   O1         0.00000000   0.00000000   1.60581000
       2   FE2        0.00000000   0.00000000  -0.00581000
      -----------------------------------------------------
      Nuclear repulsion energy =   68.29703021
--
 
++    Orbital specifications:
      -----------------------
 
      Symmetry species               1
                                     a
      Frozen orbitals                0
      Start temperature = 0.500
      End temperature   = 0.010
      Temperature Factor= 0.460
      Deleted orbitals               0
      Total number of orbitals      48
      Number of basis functions     48
--
 
      Molecular charge                           2.000
 
++    Optimization specifications:
      ----------------------------
 
      SCF Algorithm: Conventional USCF
      D(i)-D(i-1) density differences are used
      Number of density matrices in core                5
      Maximum number of NDDO SCF iterations           400
      Maximum number of HF SCF iterations             400
      Threshold for SCF energy change            0.10E-08
      Threshold for density matrix               0.10E-03
      Threshold for Fock matrix                  0.15E-03
      Threshold for linear dependence            0.10E-08
      Threshold at which DIIS is turned on       0.15E+00
      Threshold at which QNR/C2DIIS is turned on 0.75E-01
      Threshold for Norm(delta) (QNR/C2DIIS)     0.20E-04
      DIIS extrapolation of the SCF procedure
      All orbitals punched on: UHFORB
--
 
      Input vectors read from INPORB
      Orbital file label: *Guess orbitals
 
 
++ Convergence information
                               UHF SCF        iterations: Energy and convergence statistics
 
Iter     Tot. SCF        One-elec.       Two-elec.     Energy      Max Dij or  Max Fij      DNorm      TNorm      AccCon     Time
         Energy          Energy          Energy        Change      Delta Norm                                                in Sec.
 
 The total and one-electron energies are shifted by a value of      1000. a.u.
 
   1  -342.852795570  -962.932311874   551.782486099   0.00E+00    0.14E+00*   0.90E+00*    0.77E+01   0.19E+03   None         0.
   2  -343.470770776  -961.478654659   549.710853677  -0.62E+00*   0.28E+00*   0.31E+00*    0.15E+01   0.19E+03   EDIIS        0.
   3  -342.181155259 -1001.863797879   591.385612414   0.13E+01*   0.15E+00*   0.24E+00*    0.21E+01   0.20E+03   EDIIS        0.
   4  -344.349697940  -963.313897949   550.667169804  -0.22E+01*   0.32E+00*   0.21E+00*    0.15E+01   0.19E+03   EDIIS        0.
   5  -344.660148005  -985.354382851   572.397204641  -0.31E+00*   0.63E+00*   0.26E+00*    0.20E+01   0.19E+03   EDIIS        0.
   6  -344.476777533  -955.159012589   542.385204852   0.18E+00*   0.12E+00*   0.16E+00*    0.20E+01   0.19E+03   EDIIS        0.
   7  -345.182375283  -972.436769149   558.957363661  -0.71E+00*   0.10E+00*   0.35E-01*    0.55E+00   0.19E+03   EDIIS        0.
   8  -345.195527528  -973.406832263   559.914274530  -0.13E-01*   0.90E-01*   0.38E-01*    0.27E+00   0.19E+03   EDIIS        0.
   9  -345.201688495  -972.404508335   558.905789635  -0.62E-02*   0.13E+00*   0.38E-01*    0.20E+00   0.19E+03   EDIIS        0.
 
       Fermi aufbau procedure completed!
      nOcc(alpha)=   18
      nOcc(beta) =   14
 
  10  -345.204115419  -974.564171351   561.063025727  -0.24E-02*   0.12E+00*   0.48E-01*    0.22E+00   0.19E+03   EDIIS        0.
  11  -345.204943006  -971.501140311   557.999167100  -0.83E-03*   0.11E+00*   0.34E-01*    0.24E+00   0.19E+03   EDIIS        0.
  12  -345.213223331  -973.910693662   560.400440126  -0.83E-02*   0.11E+00*   0.26E-01*    0.17E+00   0.19E+03   EDIIS        0.
  13  -345.218226939  -972.210781805   558.695524660  -0.50E-02*   0.15E+00*   0.50E-01*    0.19E+00   0.19E+03   EDIIS        0.
  14  -345.223377778  -974.506204965   560.985796981  -0.52E-02*   0.11E+00*   0.16E-01*    0.26E+00   0.19E+03   c2DIIS       0.
  15  -345.230091312  -973.227267904   559.700146387  -0.67E-02*   0.15E+00*   0.26E-01*    0.19E+00   0.19E+03   c2DIIS       0.
  16  -345.233264215  -971.620892964   558.090598544  -0.32E-02*   0.16E+00*   0.29E-02*    0.23E+00   0.19E+03   c2DIIS       0.
  17  -345.232219506  -971.350708648   557.821458937   0.10E-02*   0.15E+00*   0.19E-02*    0.25E+00   0.19E+03   c2DIIS       0.
  18  -345.232992641  -971.537083708   558.007060862  -0.77E-03*   0.15E+00*   0.58E-02*    0.24E+00   0.19E+03   c2DIIS       0.
  19  -345.234635492  -971.578599775   558.046934077  -0.16E-02*   0.12E+00*   0.40E-01*    0.24E+00   0.19E+03   c2DIIS       0.
  20  -345.238696708  -974.152682128   560.616955215  -0.41E-02*   0.14E+00*   0.37E-01*    0.27E+00   0.19E+03   c2DIIS       0.
  21  -345.246165214  -971.341879774   557.798684355  -0.75E-02*   0.11E+00*   0.18E+00*    0.22E+00   0.19E+03   c2DIIS       0.
  22  -345.260414744  -970.764389036   557.206944087  -0.14E-01*   0.38E-01*   0.59E-01*    0.42E+00   0.19E+03   c2DIIS       0.
  23  -345.261521454  -971.512649340   557.954097680  -0.11E-02*   0.57E-01*   0.11E-01*    0.96E-01   0.19E+03   QNRc2DIIS    0.
  24  -345.262558937  -971.536630969   557.977041827  -0.10E-02*   0.36E+00*   0.11E-01*    0.67E-01   0.19E+03   QNRc2DIIS    0.
  25  -345.265108158  -971.056696186   557.494557823  -0.25E-02*   0.62E-01*   0.99E-02*    0.43E+00   0.19E+03   QNRc2DIIS    0.
  26  -345.265816381  -971.143751192   557.580904606  -0.71E-03*   0.95E-01*   0.10E-01*    0.78E-01   0.19E+03   QNRc2DIIS    0.
  27  -345.266778974  -971.333028498   557.769219318  -0.96E-03*   0.15E+00*   0.12E-01*    0.11E+00   0.19E+03   QNRc2DIIS    0.
  28  -345.264792139  -971.252104846   557.690282502   0.20E-02*   0.24E+00*   0.77E-02*    0.16E+00   0.19E+03   QNRc2DIIS    0.
  29  -345.263431485  -971.199001864   557.638540174   0.14E-02*   0.13E+00*   0.89E-02*    0.28E+00   0.19E+03   QNRc2DIIS    0.
  30  -345.263807033  -970.978351732   557.417514494  -0.38E-03*   0.11E+00*   0.49E-02*    0.14E+00   0.19E+03   QNRc2DIIS    0.
  31  -345.263926837  -971.162935016   557.601977974  -0.12E-03*   0.27E-01*   0.40E-02*    0.12E+00   0.19E+03   QNRc2DIIS    0.
  32  -345.263995669  -971.055219478   557.494193603  -0.69E-04*   0.44E-01*   0.17E-02*    0.37E-01   0.19E+03   QNRc2DIIS    0.
  33  -345.264020670  -970.974642162   557.413591286  -0.25E-04*   0.77E-01*   0.14E-02*    0.48E-01   0.19E+03   QNRc2DIIS    0.
  34  -345.264067401  -971.013878605   557.452780999  -0.47E-04*   0.55E-01*   0.20E-02*    0.83E-01   0.19E+03   QNRc2DIIS    0.
  35  -345.264013498  -971.001868845   557.440825142   0.54E-04*   0.52E-02*   0.15E-03     0.59E-01   0.19E+03   QNRc2DIIS    0.
  36  -345.264013908  -970.993453592   557.432409479  -0.41E-06*   0.10E-02*   0.30E-04     0.61E-02   0.19E+03   QNRc2DIIS    0.
  37  -345.264013932  -970.995164309   557.434120172  -0.24E-07*   0.15E-03*   0.13E-04     0.12E-02   0.19E+03   QNRc2DIIS    0.
  38  -345.264013933  -970.994901044   557.433856906  -0.12E-08*   0.45E-04*   0.35E-05     0.17E-03   0.19E+03   QNRc2DIIS    0.
  39  -345.264013933  -970.994820800   557.433776662  -0.11E-09    0.13E-04    0.13E-05     0.52E-04   0.19E+03   QNRc2DIIS    0.
 
       Convergence after 39 Macro Iterations
--
 
 *****************************************************************************************************************************
 *                                                                                                                           *
 *                                             SCF/KS-DFT Program, Final results                                             *
 *                                                                                                                           *
 *                                                                                                                           *
 *                                                                                                                           *
 *                                                       Final Results                                                       *
 *                                                                                                                           *
 *****************************************************************************************************************************
 
::    Total SCF energy                              -1345.2640139334
      One-electron energy                           -1970.9948208003
      Two-electron energy                             557.4337766617
      Nuclear repulsion energy                         68.2970302052
      Kinetic energy (interpolated)                  1400.1049158968
      Virial theorem                                    0.9608308625
      Total spin, S(S+1)                                6.8869989059
      Total spin, S                                     2.1715162185
      Max non-diagonal density matrix element           0.0000062376
      Max non-diagonal Fock matrix element              0.0000017435
 
 
      All orbitals with orbital energies smaller than  E(LUMO)+0.5 are printed
 
++    Molecular orbitals:
      -------------------
 
      Title: UHF orbitals (alpha)

      Molecular orbitals for symmetry species 1: a  
 
          Orbital            1         2         3         4         5         6         7         8         9        10    
          Energy         -264.4724  -33.3245  -28.3962  -28.3962  -28.3882  -21.1856   -5.2706   -3.8265   -3.8265   -3.8130
          Occ. No.          1.0000    1.0000    1.0000    1.0000    1.0000    1.0000    1.0000    1.0000    1.0000    1.0000
 
        1 O1     1s        -0.0000    0.0000    0.0000    0.0000    0.0001    0.9999   -0.0001    0.0000    0.0000   -0.0017
        2 O1     2s         0.0000    0.0001   -0.0000    0.0000    0.0007   -0.0004    0.0053    0.0000    0.0000    0.0180
        3 O1     3s         0.0000    0.0000   -0.0000    0.0000    0.0005   -0.0011    0.0008    0.0000    0.0000   -0.0012
        4 O1     2px       -0.0000    0.0000    0.0000    0.0000   -0.0000    0.0000   -0.0000   -0.0004   -0.0035   -0.0000
        5 O1     3px        0.0000   -0.0000    0.0000    0.0001    0.0000   -0.0000    0.0000   -0.0003   -0.0021    0.0000
        6 O1     2py       -0.0000    0.0000   -0.0000    0.0000   -0.0000   -0.0000   -0.0000    0.0035   -0.0004    0.0000
        7 O1     3py       -0.0000    0.0000   -0.0001    0.0000   -0.0000    0.0000   -0.0000    0.0021   -0.0003    0.0000
        8 O1     2pz       -0.0000   -0.0000   -0.0000   -0.0000   -0.0006    0.0000   -0.0029   -0.0000    0.0000   -0.0083
        9 O1     3pz       -0.0000   -0.0000   -0.0000   -0.0000   -0.0005    0.0004    0.0001    0.0000    0.0000    0.0045
       10 O1     3d2-      -0.0000   -0.0000   -0.0000   -0.0000    0.0000    0.0000    0.0000   -0.0000   -0.0000    0.0000
       11 O1     3d1-      -0.0000   -0.0000   -0.0001    0.0000    0.0000    0.0000    0.0000   -0.0007    0.0001   -0.0000
       12 O1     3d0        0.0000   -0.0001   -0.0000    0.0000    0.0002   -0.0012    0.0001    0.0000   -0.0000    0.0008
       13 O1     3d1+      -0.0000   -0.0000    0.0000    0.0001   -0.0000    0.0000    0.0000    0.0001    0.0007   -0.0000
       14 O1     3d2+       0.0000    0.0000   -0.0000   -0.0000   -0.0000   -0.0000    0.0000    0.0000    0.0000   -0.0000
       15 FE2    1s         1.0000   -0.0000    0.0000   -0.0000   -0.0000    0.0000   -0.0000   -0.0000    0.0000   -0.0000
       16 FE2    2s         0.0000    1.0000   -0.0000    0.0000   -0.0002    0.0001   -0.0035   -0.0000    0.0000   -0.0002
       17 FE2    3s        -0.0000    0.0034    0.0000   -0.0000   -0.0002    0.0004    0.9992   -0.0000    0.0000   -0.0031
       18 FE2    4s         0.0000   -0.0004    0.0000   -0.0000   -0.0008    0.0005   -0.0052   -0.0000   -0.0000   -0.0034
       19 FE2    5s        -0.0000    0.0003   -0.0000    0.0000    0.0004   -0.0003    0.0047    0.0000    0.0000    0.0018
       20 FE2    2px       -0.0000    0.0000   -0.1171   -0.9931    0.0000    0.0000    0.0000    0.0004    0.0032    0.0000
       21 FE2    3px        0.0000    0.0000   -0.0004   -0.0032    0.0000    0.0000    0.0000   -0.1258   -0.9915    0.0000
       22 FE2    4px        0.0000   -0.0000    0.0001    0.0004   -0.0000    0.0000   -0.0000    0.0022    0.0175   -0.0000
       23 FE2    5px        0.0000   -0.0000   -0.0002   -0.0013    0.0000    0.0000   -0.0000   -0.0015   -0.0115   -0.0000
       24 FE2    2py       -0.0000    0.0000    0.9931   -0.1171    0.0000   -0.0000   -0.0000   -0.0032    0.0004    0.0000
       25 FE2    3py        0.0000   -0.0000    0.0032   -0.0004    0.0000   -0.0000    0.0000    0.9915   -0.1258   -0.0000
       26 FE2    4py       -0.0000   -0.0000   -0.0004    0.0001    0.0000   -0.0000    0.0000   -0.0175    0.0022   -0.0000
       27 FE2    5py        0.0000   -0.0000    0.0013   -0.0002    0.0000   -0.0000   -0.0000    0.0115   -0.0015   -0.0000
       28 FE2    2pz       -0.0000    0.0001   -0.0000    0.0000    1.0000    0.0000   -0.0002   -0.0000   -0.0000   -0.0032
       29 FE2    3pz       -0.0000    0.0001    0.0000    0.0000    0.0029    0.0002    0.0012    0.0000   -0.0000    0.9976
       30 FE2    4pz       -0.0000   -0.0001    0.0000   -0.0000   -0.0010    0.0003   -0.0031   -0.0000   -0.0000   -0.0183
       31 FE2    5pz        0.0000    0.0001   -0.0000    0.0000    0.0014   -0.0002    0.0020    0.0000    0.0000    0.0116
       32 FE2    3d2-      -0.0000   -0.0000    0.0000   -0.0000    0.0000   -0.0000   -0.0000    0.0000   -0.0000    0.0000
       33 FE2    4d2-       0.0000    0.0000   -0.0000   -0.0000   -0.0000   -0.0000    0.0000   -0.0000   -0.0000   -0.0000
       34 FE2    3d1-      -0.0000   -0.0000    0.0000   -0.0000    0.0000    0.0000    0.0000   -0.0009    0.0001    0.0000
       35 FE2    4d1-      -0.0000   -0.0000    0.0000   -0.0000    0.0000    0.0000    0.0000   -0.0036    0.0005    0.0000
       36 FE2    3d0       -0.0000   -0.0001    0.0000   -0.0000   -0.0002    0.0002   -0.0031   -0.0000    0.0000    0.0008
       37 FE2    4d0        0.0000    0.0001    0.0000   -0.0000   -0.0003    0.0001   -0.0003    0.0000   -0.0000   -0.0032
       38 FE2    3d1+      -0.0000   -0.0000   -0.0000   -0.0000   -0.0000    0.0000   -0.0000    0.0001    0.0009    0.0000
       39 FE2    4d1+      -0.0000   -0.0000   -0.0000   -0.0000   -0.0000    0.0000    0.0000    0.0005    0.0036    0.0000
       40 FE2    3d2+      -0.0000   -0.0000    0.0000    0.0000    0.0000    0.0000   -0.0000   -0.0000   -0.0000    0.0000
       41 FE2    4d2+      -0.0000   -0.0000    0.0000   -0.0000    0.0000    0.0000    0.0000    0.0000   -0.0000    0.0000
       42 FE2    4f3-       0.0000    0.0000    0.0000    0.0000   -0.0000    0.0000    0.0000    0.0000    0.0000   -0.0000
       43 FE2    4f2-      -0.0000    0.0000   -0.0000    0.0000   -0.0000   -0.0000    0.0000    0.0000   -0.0000   -0.0000
       44 FE2    4f1-      -0.0000   -0.0000   -0.0000    0.0000    0.0000    0.0000    0.0000   -0.0019    0.0002    0.0000
       45 FE2    4f0        0.0000   -0.0000    0.0000   -0.0000   -0.0001    0.0001    0.0003    0.0000   -0.0000   -0.0008
       46 FE2    4f1+      -0.0000   -0.0000    0.0000    0.0000   -0.0000    0.0000    0.0000    0.0002    0.0019    0.0000
       47 FE2    4f2+      -0.0000   -0.0000   -0.0000   -0.0000    0.0000    0.0000   -0.0000   -0.0000   -0.0000    0.0000
       48 FE2    4f3+      -0.0000    0.0000    0.0000   -0.0000    0.0000    0.0000   -0.0000    0.0000   -0.0000    0.0000
 
          Orbital           11        12        13        14        15        16        17        18        19        20    
          Energy           -1.8358   -1.5193   -1.5193   -1.5162   -1.5162   -1.4698   -1.1198   -1.1198   -0.5921   -0.4490
          Occ. No.          1.0000    1.0000    1.0000    1.0000    1.0000    1.0000    1.0000    1.0000    0.0000    0.0000
 
        1 O1     1s        -0.0074   -0.0000   -0.0000    0.0000   -0.0000   -0.0181   -0.0000   -0.0000    0.0222    0.0154
        2 O1     2s         0.8941   -0.0000   -0.0000    0.0000   -0.0000   -0.4324   -0.0000    0.0000    0.2908    0.1984
        3 O1     3s        -0.0120   -0.0000   -0.0000    0.0000    0.0000   -0.0447    0.0000    0.0000    0.0486    0.0382
        4 O1     2px        0.0000    0.0000    0.0000   -0.0145   -0.1088   -0.0000   -0.9092    0.3472   -0.0000   -0.0000
        5 O1     3px       -0.0000   -0.0000   -0.0000    0.0047    0.0351    0.0000    0.0288   -0.0110   -0.0000   -0.0000
        6 O1     2py        0.0000    0.0000    0.0000    0.1088   -0.0145   -0.0000   -0.3472   -0.9092   -0.0000   -0.0000
        7 O1     3py        0.0000   -0.0000   -0.0000   -0.0351    0.0047   -0.0000    0.0110    0.0288   -0.0000   -0.0000
        8 O1     2pz       -0.1496   -0.0000    0.0000    0.0000   -0.0000   -0.0114   -0.0000   -0.0000    0.2848    0.8163
        9 O1     3pz       -0.0084    0.0000    0.0000   -0.0000    0.0000    0.0334    0.0000    0.0000    0.0127    0.1644
       10 O1     3d2-       0.0000    0.0000    0.0000   -0.0000    0.0000   -0.0000    0.0000   -0.0000    0.0000    0.0000
       11 O1     3d1-       0.0000   -0.0000   -0.0000   -0.0064    0.0009   -0.0000    0.0125    0.0327    0.0000    0.0000
       12 O1     3d0       -0.0088    0.0000    0.0000   -0.0000    0.0000    0.0173    0.0000    0.0000   -0.0177   -0.0327
       13 O1     3d1+       0.0000    0.0000   -0.0000    0.0009    0.0064   -0.0000    0.0327   -0.0125    0.0000    0.0000
       14 O1     3d2+      -0.0000    0.0000   -0.0000    0.0000    0.0000    0.0000   -0.0000   -0.0000    0.0000    0.0000
       15 FE2    1s        -0.0016    0.0000    0.0000   -0.0000   -0.0000    0.0010   -0.0000   -0.0000    0.0006    0.0042
       16 FE2    2s        -0.0119    0.0000    0.0000   -0.0000    0.0000    0.0070   -0.0000   -0.0000    0.0041    0.0303
       17 FE2    3s        -0.0748    0.0000    0.0000   -0.0000   -0.0000    0.0410   -0.0000   -0.0000    0.0154    0.1429
       18 FE2    4s         0.0127    0.0000    0.0000   -0.0000   -0.0000    0.0099    0.0000    0.0000   -0.8754    0.3786
       19 FE2    5s        -0.0110   -0.0000    0.0000   -0.0000    0.0000    0.0061   -0.0000   -0.0000    0.2602    0.0203
       20 FE2    2px       -0.0000    0.0000   -0.0000    0.0000    0.0001    0.0000    0.0016   -0.0006    0.0000    0.0000
       21 FE2    3px        0.0000   -0.0000   -0.0000    0.0003    0.0022    0.0000    0.0358   -0.0137    0.0000    0.0000
       22 FE2    4px        0.0000    0.0000    0.0000   -0.0005   -0.0041   -0.0000   -0.0550    0.0210   -0.0000   -0.0000
       23 FE2    5px        0.0000   -0.0000    0.0000   -0.0010   -0.0077    0.0000    0.0129   -0.0049    0.0000   -0.0000
       24 FE2    2py       -0.0000    0.0000   -0.0000   -0.0001    0.0000   -0.0000    0.0006    0.0016    0.0000    0.0000
       25 FE2    3py       -0.0000    0.0000   -0.0000   -0.0022    0.0003    0.0000    0.0137    0.0358    0.0000   -0.0000
       26 FE2    4py       -0.0000   -0.0000    0.0000    0.0041   -0.0005    0.0000   -0.0210   -0.0550   -0.0000   -0.0000
       27 FE2    5py       -0.0000    0.0000    0.0000    0.0077   -0.0010    0.0000    0.0049    0.0129   -0.0000   -0.0000
       28 FE2    2pz       -0.0035    0.0000    0.0000    0.0000   -0.0000    0.0016   -0.0000   -0.0000    0.0009    0.0057
       29 FE2    3pz       -0.0968    0.0000    0.0000   -0.0000   -0.0000    0.0359   -0.0000   -0.0000    0.0116    0.0895
       30 FE2    4pz        0.0221    0.0000    0.0000   -0.0000    0.0000    0.0033    0.0000    0.0000    0.1864   -0.5110
       31 FE2    5pz       -0.0082    0.0000    0.0000   -0.0000    0.0000    0.0100   -0.0000   -0.0000    0.0107   -0.0090
       32 FE2    3d2-       0.0000    0.0520    0.9925   -0.0000    0.0000   -0.0000    0.0000    0.0000    0.0000   -0.0000
       33 FE2    4d2-      -0.0000   -0.0058   -0.1105    0.0000   -0.0000    0.0000   -0.0000    0.0000    0.0000   -0.0000
       34 FE2    3d1-       0.0000    0.0000    0.0000    0.9710   -0.1294    0.0000    0.0736    0.1928    0.0000    0.0000
       35 FE2    4d1-      -0.0000   -0.0000   -0.0000   -0.0971    0.0129   -0.0000   -0.0169   -0.0443   -0.0000    0.0000
       36 FE2    3d0        0.2809    0.0000    0.0000   -0.0000    0.0000    0.9550   -0.0000   -0.0000    0.0131    0.1192
       37 FE2    4d0       -0.0200   -0.0000   -0.0000    0.0000   -0.0000   -0.0921    0.0000    0.0000    0.0089    0.0147
       38 FE2    3d1+       0.0000    0.0000    0.0000   -0.1294   -0.9710    0.0000    0.1928   -0.0736    0.0000    0.0000
       39 FE2    4d1+      -0.0000   -0.0000   -0.0000    0.0129    0.0971   -0.0000   -0.0443    0.0169   -0.0000   -0.0000
       40 FE2    3d2+       0.0000    0.9925   -0.0520   -0.0000    0.0000   -0.0000    0.0000    0.0000    0.0000   -0.0000
       41 FE2    4d2+       0.0000   -0.1105    0.0058    0.0000   -0.0000    0.0000   -0.0000   -0.0000    0.0000   -0.0000
       42 FE2    4f3-       0.0000    0.0000    0.0000   -0.0000    0.0000   -0.0000   -0.0000   -0.0000    0.0000    0.0000
       43 FE2    4f2-       0.0000   -0.0001   -0.0022    0.0000   -0.0000    0.0000    0.0000    0.0000    0.0000   -0.0000
       44 FE2    4f1-       0.0000    0.0000   -0.0000   -0.0002    0.0000   -0.0000   -0.0039   -0.0101   -0.0000    0.0000
       45 FE2    4f0        0.0070    0.0000   -0.0000   -0.0000    0.0000   -0.0014    0.0000    0.0000   -0.0028   -0.0080
       46 FE2    4f1+       0.0000   -0.0000   -0.0000    0.0000    0.0002    0.0000   -0.0101    0.0039   -0.0000   -0.0000
       47 FE2    4f2+       0.0000   -0.0022    0.0001   -0.0000   -0.0000    0.0000    0.0000   -0.0000   -0.0000   -0.0000
       48 FE2    4f3+      -0.0000    0.0000   -0.0000    0.0000    0.0000    0.0000   -0.0000    0.0000   -0.0000    0.0000
 
          Orbital           21        22        23        24    
          Energy           -0.3900   -0.3900   -0.2568   -0.1923
          Occ. No.          0.0000    0.0000    0.0000    0.0000
 
        1 O1     1s         0.0000   -0.0000   -0.0801   -0.0797
        2 O1     2s         0.0000   -0.0000   -0.6501   -0.5996
        3 O1     3s         0.0000   -0.0000   -0.1858   -0.2010
        4 O1     2px        0.0530    0.3010    0.0000   -0.0000
        5 O1     3px        0.0157    0.0892    0.0000    0.0000
        6 O1     2py       -0.3010    0.0530   -0.0000   -0.0000
        7 O1     3py       -0.0892    0.0157   -0.0000   -0.0000
        8 O1     2pz        0.0000   -0.0000    0.2665    0.6880
        9 O1     3pz        0.0000   -0.0000    0.1041    0.3770
       10 O1     3d2-      -0.0000    0.0000   -0.0000   -0.0000
       11 O1     3d1-       0.0007   -0.0001    0.0000    0.0000
       12 O1     3d0       -0.0000    0.0000   -0.0114   -0.0240
       13 O1     3d1+      -0.0001   -0.0007   -0.0000   -0.0000
       14 O1     3d2+       0.0000    0.0000   -0.0000   -0.0000
       15 FE2    1s         0.0000   -0.0000    0.0037    0.0079
       16 FE2    2s         0.0000   -0.0000    0.0268    0.0570
       17 FE2    3s         0.0000   -0.0000    0.1362    0.2737
       18 FE2    4s         0.0000   -0.0000    0.7381    0.5028
       19 FE2    5s         0.0000   -0.0000    0.4527   -0.9947
       20 FE2    2px       -0.0002   -0.0014   -0.0000    0.0000
       21 FE2    3px       -0.0061   -0.0348   -0.0000   -0.0000
       22 FE2    4px       -0.1862   -1.0569   -0.0000   -0.0000
       23 FE2    5px       -0.0120   -0.0682   -0.0000   -0.0000
       24 FE2    2py        0.0014   -0.0002    0.0000    0.0000
       25 FE2    3py        0.0348   -0.0061    0.0000    0.0000
       26 FE2    4py        1.0569   -0.1862    0.0000    0.0000
       27 FE2    5py        0.0682   -0.0120    0.0000    0.0000
       28 FE2    2pz        0.0000   -0.0000    0.0062    0.0108
       29 FE2    3pz        0.0000   -0.0000    0.1214    0.1875
       30 FE2    4pz       -0.0000    0.0000    0.9321    0.7280
       31 FE2    5pz       -0.0000    0.0000    0.0883    0.0948
       32 FE2    3d2-      -0.0000    0.0000   -0.0000   -0.0000
       33 FE2    4d2-       0.0000   -0.0000   -0.0000   -0.0000
       34 FE2    3d1-       0.0488   -0.0086    0.0000    0.0000
       35 FE2    4d1-      -0.0476    0.0084   -0.0000   -0.0000
       36 FE2    3d0        0.0000   -0.0000    0.1288    0.1686
       37 FE2    4d0        0.0000   -0.0000   -0.0923   -0.0489
       38 FE2    3d1+      -0.0086   -0.0488   -0.0000   -0.0000
       39 FE2    4d1+       0.0084    0.0476    0.0000    0.0000
       40 FE2    3d2+       0.0000    0.0000   -0.0000   -0.0000
       41 FE2    4d2+      -0.0000   -0.0000    0.0000   -0.0000
       42 FE2    4f3-       0.0000    0.0000    0.0000    0.0000
       43 FE2    4f2-       0.0000   -0.0000   -0.0000   -0.0000
       44 FE2    4f1-      -0.0037    0.0007    0.0000    0.0000
       45 FE2    4f0       -0.0000    0.0000   -0.0072   -0.0062
       46 FE2    4f1+       0.0007    0.0037    0.0000   -0.0000
       47 FE2    4f2+      -0.0000   -0.0000    0.0000   -0.0000
       48 FE2    4f3+       0.0000   -0.0000   -0.0000   -0.0000
--
 
 
  Input file to MOLDEN was generated!
 
 
++    Static properties:
      ------------------
 
 
      LoProp Charges per center
 

                   O1       FE2   
      Nuclear      8.0000  26.0000
      Electronic  -8.2534 -23.7466
 
      Total       -0.2534   2.2534
--
 
 
      All orbitals with orbital energies smaller than  E(LUMO)+0.5 are printed
 
++    Molecular orbitals:
      -------------------
 
      Title: UHF orbitals (beta)

      Molecular orbitals for symmetry species 1: a  
 
          Orbital            1         2         3         4         5         6         7         8         9        10    
          Energy         -264.4697  -33.1723  -28.2428  -28.2406  -28.2406  -21.1899   -4.8639   -3.3497   -3.3226   -3.3226
          Occ. No.          1.0000    1.0000    1.0000    1.0000    1.0000    1.0000    1.0000    1.0000    1.0000    1.0000
 
        1 O1     1s        -0.0000   -0.0000   -0.0000    0.0000    0.0000    1.0000   -0.0008   -0.0031    0.0000   -0.0000
        2 O1     2s         0.0000   -0.0002   -0.0004   -0.0000    0.0000    0.0005    0.0056    0.0375   -0.0000    0.0000
        3 O1     3s         0.0000   -0.0001   -0.0003   -0.0000    0.0000   -0.0006   -0.0001   -0.0014   -0.0000   -0.0000
        4 O1     2px       -0.0000    0.0000   -0.0000   -0.0000   -0.0001    0.0000   -0.0000   -0.0000    0.0091    0.0011
        5 O1     3px        0.0000   -0.0000   -0.0000   -0.0000   -0.0001   -0.0000    0.0000    0.0000   -0.0002   -0.0000
        6 O1     2py       -0.0000    0.0000   -0.0000    0.0001   -0.0000    0.0000   -0.0000    0.0000    0.0011   -0.0091
        7 O1     3py       -0.0000    0.0000   -0.0000    0.0001   -0.0000    0.0000   -0.0000    0.0000   -0.0000    0.0002
        8 O1     2pz       -0.0000    0.0001    0.0004   -0.0000   -0.0000   -0.0004   -0.0060   -0.0305    0.0000   -0.0000
        9 O1     3pz       -0.0000    0.0000    0.0004   -0.0000   -0.0000   -0.0002    0.0002    0.0049   -0.0000    0.0000
       10 O1     3d2-      -0.0000    0.0000   -0.0000   -0.0000   -0.0000   -0.0000    0.0000    0.0000    0.0000    0.0000
       11 O1     3d1-      -0.0000   -0.0000    0.0000    0.0000   -0.0000   -0.0000    0.0000   -0.0000   -0.0003    0.0022
       12 O1     3d0        0.0000    0.0000   -0.0001   -0.0000    0.0000    0.0008    0.0019    0.0071   -0.0000    0.0000
       13 O1     3d1+      -0.0000   -0.0000   -0.0000   -0.0000   -0.0000   -0.0000    0.0000   -0.0000   -0.0022   -0.0003
       14 O1     3d2+       0.0000   -0.0000    0.0000   -0.0000   -0.0000    0.0000   -0.0000    0.0000   -0.0000   -0.0000
       15 FE2    1s         1.0000    0.0000    0.0000   -0.0000   -0.0000   -0.0000   -0.0000   -0.0001    0.0000   -0.0000
       16 FE2    2s        -0.0000    1.0000   -0.0001   -0.0000    0.0000   -0.0001    0.0006   -0.0008    0.0000    0.0000
       17 FE2    3s        -0.0000   -0.0009   -0.0000    0.0000    0.0000   -0.0003    0.9986    0.0017   -0.0000    0.0000
       18 FE2    4s         0.0000    0.0003    0.0006    0.0000   -0.0000   -0.0002    0.0002    0.0012   -0.0000    0.0000
       19 FE2    5s        -0.0000   -0.0002   -0.0003    0.0000    0.0000    0.0002    0.0007   -0.0003   -0.0000   -0.0000
       20 FE2    2px       -0.0000    0.0000   -0.0000   -0.2462   -0.9692    0.0000    0.0000    0.0000    0.0028    0.0003
       21 FE2    3px        0.0000    0.0000    0.0000    0.0007    0.0028    0.0000    0.0000    0.0000    0.9925    0.1166
       22 FE2    4px        0.0000   -0.0000   -0.0000   -0.0001   -0.0003    0.0000   -0.0000   -0.0000   -0.0061   -0.0007
       23 FE2    5px        0.0000   -0.0000    0.0000    0.0003    0.0010    0.0000   -0.0000   -0.0000   -0.0002   -0.0000
       24 FE2    2py       -0.0000    0.0000   -0.0000    0.9692   -0.2462   -0.0000   -0.0000    0.0000    0.0003   -0.0028
       25 FE2    3py        0.0000   -0.0000    0.0000   -0.0028    0.0007   -0.0000    0.0000    0.0000    0.1166   -0.9925
       26 FE2    4py       -0.0000   -0.0000    0.0000    0.0003   -0.0001   -0.0000    0.0000   -0.0000   -0.0007    0.0061
       27 FE2    5py        0.0000   -0.0000    0.0000   -0.0010    0.0003   -0.0000    0.0000   -0.0000   -0.0000    0.0002
       28 FE2    2pz        0.0000    0.0002    1.0000   -0.0000   -0.0000   -0.0000    0.0002    0.0024   -0.0000    0.0000
       29 FE2    3pz        0.0000   -0.0002   -0.0026    0.0000    0.0000   -0.0002   -0.0095    0.9915   -0.0000    0.0000
       30 FE2    4pz       -0.0000    0.0001    0.0008    0.0000   -0.0000   -0.0001    0.0003   -0.0015    0.0000    0.0000
       31 FE2    5pz        0.0000   -0.0001   -0.0012    0.0000    0.0000    0.0002    0.0006   -0.0025    0.0000   -0.0000
       32 FE2    3d2-       0.0000    0.0000   -0.0000    0.0000   -0.0000    0.0000    0.0000    0.0000    0.0000   -0.0000
       33 FE2    4d2-       0.0000    0.0000    0.0000   -0.0000   -0.0000    0.0000    0.0000    0.0000    0.0000    0.0000
       34 FE2    3d1-      -0.0000   -0.0000    0.0000   -0.0000    0.0000   -0.0000    0.0000    0.0000   -0.0010    0.0082
       35 FE2    4d1-      -0.0000   -0.0000    0.0000   -0.0000    0.0000   -0.0000    0.0000   -0.0000    0.0002   -0.0017
       36 FE2    3d0       -0.0000    0.0001    0.0001    0.0000   -0.0000   -0.0000   -0.0010   -0.0062    0.0000    0.0000
       37 FE2    4d0        0.0000    0.0001    0.0001    0.0000   -0.0000   -0.0001    0.0018    0.0037   -0.0000    0.0000
       38 FE2    3d1+      -0.0000   -0.0000    0.0000    0.0000    0.0000   -0.0000    0.0000    0.0000   -0.0082   -0.0010
       39 FE2    4d1+      -0.0000   -0.0000    0.0000    0.0000    0.0000    0.0000   -0.0000   -0.0000    0.0017    0.0002
       40 FE2    3d2+      -0.0000    0.0000    0.0000   -0.0000    0.0000   -0.0000    0.0000    0.0000    0.0000    0.0000
       41 FE2    4d2+      -0.0000   -0.0000   -0.0000    0.0000    0.0000   -0.0000   -0.0000   -0.0000   -0.0000   -0.0000
       42 FE2    4f3-       0.0000   -0.0000    0.0000    0.0000   -0.0000    0.0000   -0.0000    0.0000   -0.0000   -0.0000
       43 FE2    4f2-       0.0000   -0.0000    0.0000    0.0000   -0.0000    0.0000    0.0000    0.0000    0.0000   -0.0000
       44 FE2    4f1-      -0.0000   -0.0000    0.0000    0.0001   -0.0000   -0.0000    0.0000   -0.0000    0.0003   -0.0023
       45 FE2    4f0        0.0000    0.0000   -0.0001    0.0000    0.0000   -0.0001    0.0005   -0.0019   -0.0000    0.0000
       46 FE2    4f1+      -0.0000    0.0000   -0.0000   -0.0000   -0.0001   -0.0000    0.0000    0.0000    0.0023    0.0003
       47 FE2    4f2+      -0.0000    0.0000   -0.0000   -0.0000   -0.0000   -0.0000    0.0000   -0.0000    0.0000    0.0000
       48 FE2    4f3+      -0.0000    0.0000    0.0000   -0.0000   -0.0000    0.0000   -0.0000    0.0000    0.0000   -0.0000
 
          Orbital           11        12        13        14        15        16        17        18        19        20    
          Energy           -1.8536   -1.2487   -1.0472   -1.0472   -0.5493   -0.5281   -0.5281   -0.4944   -0.4944   -0.4634
          Occ. No.          1.0000    1.0000    1.0000    1.0000    0.0000    0.0000    0.0000    0.0000    0.0000    0.0000
 
        1 O1     1s        -0.0058   -0.0171    0.0000   -0.0000    0.0108   -0.0000   -0.0000   -0.0000    0.0000   -0.0011
        2 O1     2s         0.9510   -0.2609   -0.0000   -0.0000    0.1271   -0.0000    0.0000   -0.0000    0.0000   -0.0556
        3 O1     3s        -0.0038   -0.0104   -0.0000    0.0000    0.0200    0.0000    0.0000   -0.0000    0.0000   -0.0039
        4 O1     2px        0.0000    0.0000   -0.1466   -0.7492    0.0000   -0.5419    0.0662    0.0000   -0.0000   -0.0000
        5 O1     3px        0.0000   -0.0000    0.0026    0.0133    0.0000   -0.0840    0.0103    0.0000   -0.0000   -0.0000
        6 O1     2py        0.0000    0.0000    0.7492   -0.1466    0.0000   -0.0662   -0.5419    0.0000    0.0000   -0.0000
        7 O1     3py        0.0000    0.0000   -0.0133    0.0026    0.0000   -0.0103   -0.0840    0.0000   -0.0000   -0.0000
        8 O1     2pz       -0.1087   -0.9016    0.0000   -0.0000   -0.0432   -0.0000   -0.0000    0.0000   -0.0000    0.2860
        9 O1     3pz       -0.0326    0.0563   -0.0000    0.0000   -0.0099    0.0000    0.0000    0.0000   -0.0000    0.0513
       10 O1     3d2-      -0.0000    0.0000   -0.0000    0.0000    0.0000    0.0000    0.0000    0.0091   -0.0005   -0.0000
       11 O1     3d1-      -0.0000    0.0000   -0.0382    0.0075   -0.0000   -0.0008   -0.0067   -0.0000    0.0000   -0.0000
       12 O1     3d0        0.0483    0.0237   -0.0000   -0.0000    0.0123   -0.0000   -0.0000    0.0000   -0.0000    0.0140
       13 O1     3d1+      -0.0000    0.0000    0.0075    0.0382    0.0000   -0.0067    0.0008    0.0000   -0.0000   -0.0000
       14 O1     3d2+       0.0000   -0.0000    0.0000    0.0000    0.0000    0.0000   -0.0000   -0.0005   -0.0091   -0.0000
       15 FE2    1s        -0.0021   -0.0024    0.0000   -0.0000   -0.0006   -0.0000   -0.0000    0.0000   -0.0000    0.0015
       16 FE2    2s        -0.0153   -0.0179   -0.0000   -0.0000   -0.0039   -0.0000   -0.0000    0.0000   -0.0000    0.0112
       17 FE2    3s        -0.0958   -0.0971    0.0000   -0.0000   -0.0207   -0.0000   -0.0000    0.0000   -0.0000    0.0568
       18 FE2    4s         0.0106    0.0882   -0.0000    0.0000   -0.9089   -0.0000   -0.0000    0.0000   -0.0000    0.2878
       19 FE2    5s        -0.0105   -0.0374    0.0000   -0.0000    0.1913   -0.0000    0.0000   -0.0000    0.0000   -0.0316
       20 FE2    2px       -0.0000   -0.0000    0.0003    0.0017   -0.0000    0.0016   -0.0002   -0.0000    0.0000   -0.0000
       21 FE2    3px       -0.0000   -0.0000    0.0070    0.0360   -0.0000    0.0379   -0.0046   -0.0000    0.0000    0.0000
       22 FE2    4px        0.0000   -0.0000   -0.0181   -0.0927   -0.0000   -0.1906    0.0233    0.0000   -0.0000   -0.0000
       23 FE2    5px       -0.0000   -0.0000    0.0021    0.0105   -0.0000   -0.0099    0.0012    0.0000   -0.0000   -0.0000
       24 FE2    2py       -0.0000   -0.0000   -0.0017    0.0003   -0.0000    0.0002    0.0016   -0.0000   -0.0000    0.0000
       25 FE2    3py       -0.0000   -0.0000   -0.0360    0.0070   -0.0000    0.0046    0.0379   -0.0000   -0.0000    0.0000
       26 FE2    4py       -0.0000    0.0000    0.0927   -0.0181   -0.0000   -0.0233   -0.1906    0.0000    0.0000   -0.0000
       27 FE2    5py       -0.0000    0.0000   -0.0105    0.0021   -0.0000   -0.0012   -0.0099    0.0000    0.0000   -0.0000
       28 FE2    2pz       -0.0048   -0.0053    0.0000   -0.0000   -0.0011   -0.0000   -0.0000    0.0000   -0.0000    0.0026
       29 FE2    3pz       -0.1382   -0.1102   -0.0000   -0.0000   -0.0156   -0.0000   -0.0000    0.0000    0.0000    0.0509
       30 FE2    4pz        0.0289    0.0730   -0.0000    0.0000    0.1605    0.0000    0.0000   -0.0000    0.0000   -0.5687
       31 FE2    5pz       -0.0091   -0.0130    0.0000   -0.0000    0.0073    0.0000    0.0000   -0.0000    0.0000   -0.0410
       32 FE2    3d2-      -0.0000   -0.0000    0.0000   -0.0000    0.0000    0.0000    0.0000    0.9822   -0.0515   -0.0000
       33 FE2    4d2-      -0.0000   -0.0000    0.0000   -0.0000    0.0000    0.0000    0.0000    0.1763   -0.0092   -0.0000
       34 FE2    3d1-       0.0000    0.0000    0.4673   -0.0915   -0.0000    0.1057    0.8646   -0.0000   -0.0000    0.0000
       35 FE2    4d1-       0.0000    0.0000    0.0768   -0.0150   -0.0000    0.0138    0.1132   -0.0000   -0.0000    0.0000
       36 FE2    3d0        0.1035    0.2531   -0.0000    0.0000    0.3972    0.0000   -0.0000    0.0000   -0.0000    0.7412
       37 FE2    4d0        0.0145    0.0372   -0.0000    0.0000    0.0667    0.0000    0.0000    0.0000   -0.0000    0.1284
       38 FE2    3d1+      -0.0000    0.0000   -0.0915   -0.4673   -0.0000    0.8646   -0.1057   -0.0000    0.0000    0.0000
       39 FE2    4d1+       0.0000    0.0000   -0.0150   -0.0768   -0.0000    0.1132   -0.0138   -0.0000    0.0000    0.0000
       40 FE2    3d2+      -0.0000   -0.0000   -0.0000   -0.0000    0.0000    0.0000   -0.0000   -0.0515   -0.9822   -0.0000
       41 FE2    4d2+      -0.0000   -0.0000   -0.0000   -0.0000    0.0000    0.0000   -0.0000   -0.0092   -0.1763   -0.0000
       42 FE2    4f3-       0.0000   -0.0000   -0.0000    0.0000    0.0000    0.0000    0.0000    0.0000   -0.0000   -0.0000
       43 FE2    4f2-       0.0000    0.0000    0.0000   -0.0000   -0.0000    0.0000    0.0000   -0.0021    0.0001    0.0000
       44 FE2    4f1-       0.0000    0.0000    0.0141   -0.0028    0.0000   -0.0010   -0.0086    0.0000    0.0000    0.0000
       45 FE2    4f0        0.0080    0.0124   -0.0000    0.0000    0.0012   -0.0000    0.0000   -0.0000    0.0000   -0.0053
       46 FE2    4f1+       0.0000    0.0000   -0.0028   -0.0141    0.0000   -0.0086    0.0010    0.0000   -0.0000    0.0000
       47 FE2    4f2+      -0.0000   -0.0000   -0.0000   -0.0000   -0.0000    0.0000   -0.0000    0.0001    0.0021    0.0000
       48 FE2    4f3+      -0.0000    0.0000    0.0000    0.0000   -0.0000    0.0000   -0.0000   -0.0000   -0.0000    0.0000
 
          Orbital           21        22        23        24    
          Energy           -0.3522   -0.3522   -0.2304   -0.1616
          Occ. No.          0.0000    0.0000    0.0000    0.0000
 
        1 O1     1s        -0.0000    0.0000   -0.0582   -0.1260
        2 O1     2s        -0.0000    0.0000   -0.4796   -1.0054
        3 O1     3s        -0.0000    0.0000   -0.1273   -0.3041
        4 O1     2px        0.1001    0.4732    0.0000    0.0000
        5 O1     3px        0.0284    0.1343    0.0000    0.0000
        6 O1     2py       -0.4732    0.1001    0.0000    0.0000
        7 O1     3py       -0.1343    0.0284   -0.0000   -0.0000
        8 O1     2pz        0.0000   -0.0000    0.0767    0.6572
        9 O1     3pz       -0.0000   -0.0000    0.0337    0.3949
       10 O1     3d2-       0.0000    0.0000    0.0000    0.0000
       11 O1     3d1-      -0.0052    0.0011    0.0000    0.0000
       12 O1     3d0       -0.0000    0.0000   -0.0091   -0.0242
       13 O1     3d1+       0.0011    0.0052   -0.0000   -0.0000
       14 O1     3d2+      -0.0000   -0.0000   -0.0000    0.0000
       15 FE2    1s         0.0000   -0.0000    0.0018    0.0089
       16 FE2    2s         0.0000   -0.0000    0.0135    0.0644
       17 FE2    3s         0.0000   -0.0000    0.0709    0.3136
       18 FE2    4s         0.0000   -0.0000    0.5353    0.8022
       19 FE2    5s         0.0000    0.0000    0.7679   -0.7930
       20 FE2    2px       -0.0003   -0.0013   -0.0000   -0.0000
       21 FE2    3px       -0.0083   -0.0393   -0.0000   -0.0000
       22 FE2    4px       -0.2209   -1.0445   -0.0000   -0.0000
       23 FE2    5px       -0.0194   -0.0918   -0.0000   -0.0000
       24 FE2    2py        0.0013   -0.0003   -0.0000    0.0000
       25 FE2    3py        0.0393   -0.0083   -0.0000   -0.0000
       26 FE2    4py        1.0445   -0.2209   -0.0000   -0.0000
       27 FE2    5py        0.0918   -0.0194   -0.0000   -0.0000
       28 FE2    2pz        0.0000   -0.0000    0.0032    0.0128
       29 FE2    3pz        0.0000   -0.0000    0.0691    0.2320
       30 FE2    4pz        0.0000   -0.0000    0.6083    1.0538
       31 FE2    5pz        0.0000   -0.0000    0.0587    0.1220
       32 FE2    3d2-      -0.0000    0.0000   -0.0000   -0.0000
       33 FE2    4d2-       0.0000    0.0000   -0.0000   -0.0000
       34 FE2    3d1-       0.2220   -0.0470   -0.0000    0.0000
       35 FE2    4d1-      -0.0040    0.0008    0.0000    0.0000
       36 FE2    3d0        0.0000   -0.0000    0.2646    0.5184
       37 FE2    4d0        0.0000   -0.0000    0.0136    0.0595
       38 FE2    3d1+      -0.0470   -0.2220   -0.0000   -0.0000
       39 FE2    4d1+       0.0008    0.0040    0.0000    0.0000
       40 FE2    3d2+       0.0000    0.0000   -0.0000   -0.0000
       41 FE2    4d2+       0.0000    0.0000   -0.0000   -0.0000
       42 FE2    4f3-      -0.0000    0.0000    0.0000    0.0000
       43 FE2    4f2-       0.0000   -0.0000    0.0000    0.0000
       44 FE2    4f1-      -0.0046    0.0010    0.0000    0.0000
       45 FE2    4f0        0.0000    0.0000   -0.0052   -0.0094
       46 FE2    4f1+       0.0010    0.0046    0.0000    0.0000
       47 FE2    4f2+      -0.0000   -0.0000    0.0000    0.0000
       48 FE2    4f3+       0.0000    0.0000   -0.0000   -0.0000
--
 
 
++    Molecular charges:
      ------------------
 
      Mulliken charges per centre and basis function type
      ---------------------------------------------------
 
                            O1                      FE2   
                     alpha        beta       alpha        beta
      1s           0.9999      1.0000      1.0000      1.0000
      2s           0.9676      0.9718      1.0000      1.0000
      2px          0.9715      0.6671      1.0000      1.0000
      2pz          0.0279      0.8635      1.0000      1.0000
      2py          0.9715      0.6671      1.0000      1.0000
      3s           0.0008     -0.0004      0.9993      0.9996
      3px         -0.0012     -0.0015      0.9991      0.9994
      3pz          0.0017      0.0039      0.9981      0.9983
      3py         -0.0012     -0.0015      0.9991      0.9994
      4s           0.0000      0.0000      0.0026      0.0147
      3d2+         0.0000      0.0000      0.9878      0.0000
      3d1+         0.0017      0.0056      0.9864      0.2764
      3d0          0.0023      0.0032      0.9713      0.1088
      3d1-         0.0017      0.0056      0.9864      0.2765
      3d2-         0.0000      0.0000      0.9878      0.0000
      4px          0.0000      0.0000      0.0177      0.0271
      4pz          0.0000      0.0000      0.0096      0.0175
      4py          0.0000      0.0000      0.0177      0.0271
      5s           0.0000      0.0000      0.0014      0.0090
      4d2+         0.0000      0.0000      0.0122      0.0000
      4d1+         0.0000      0.0000      0.0235      0.0246
      4d0          0.0000      0.0000      0.0167      0.0051
      4d1-         0.0000      0.0000      0.0235      0.0246
      4d2-         0.0000      0.0000      0.0122      0.0000
      5px          0.0000      0.0000     -0.0001     -0.0002
      5pz          0.0000      0.0000     -0.0000      0.0032
      5py          0.0000      0.0000     -0.0001     -0.0002
      4f3+         0.0000      0.0000      0.0000      0.0000
      4f2+         0.0000      0.0000      0.0000      0.0000
      4f1+         0.0000      0.0000      0.0014      0.0015
      4f0          0.0000      0.0000      0.0009      0.0017
      4f1-         0.0000      0.0000      0.0014      0.0015
      4f2-         0.0000      0.0000      0.0000      0.0000
      4f3-         0.0000      0.0000      0.0000      0.0000
      Total        3.9441      4.1844     14.0559      9.8156
      Total              8.1285                 23.8715
 
      Charge           -0.1285                  2.1285
 
      Total electronic charge=   32.000000
 
      Total            charge=    2.000000
--
 
 
  Input file to MOLDEN was generated!
 
 
++    Static properties:
      ------------------
 
 
      LoProp Charges per center
 

                   O1       FE2   
      Nuclear      8.0000  26.0000
      Electronic  -8.2534 -23.7466
 
      Total       -0.2534   2.2534
--
 
 
++    Natural Bond Order analysis
      ---------------------------
      Based on LoProp computed density
      -------------------------------------------------------------------------------------
      Atom A       Atom B       Bond Order
        O1           FE2            1.992
      -------------------------------------------------------------------------------------
      NBO located     19.999 core electrons.
      NBO located      1.935 lone pair electrons.
      NBO located      3.983 electrons involved in    1 bonds.
      NBO located      0.901 non-bonded electrons on atom O1        
      NBO located      1.000 non-bonded electrons on atom FE2       
      NBO located      1.000 non-bonded electrons on atom FE2       
      The remaining    3.182 electrons are to be considered as diffuse
--
 
 
++    Molecular orbitals:
      -------------------
 
      Title: Natural orbitals

      Molecular orbitals for symmetry species 1: a  
 
          Orbital            1         2         3         4         5         6         7         8         9        10    
          Energy         -264.4711  -32.6521  -21.3704  -27.7685  -27.7673  -27.4895   -5.8101   -4.1172   -4.1185   -4.0078
          Occ. No.          2.0000    2.0000    2.0000    2.0000    2.0000    2.0000    2.0000    1.9999    1.9999    1.9999
 
        1 O1     1s        -0.0000   -0.0463    0.9818   -0.0000   -0.0000    0.1654   -0.0762    0.0000    0.0000    0.0186
        2 O1     2s         0.0000    0.0019   -0.0274    0.0000    0.0000   -0.0153   -0.0344   -0.0000   -0.0000    0.1193
        3 O1     3s         0.0000   -0.0001   -0.0007    0.0000    0.0000   -0.0002    0.0006   -0.0000    0.0000   -0.0001
        4 O1     2px       -0.0000    0.0000    0.0000   -0.0003    0.0022   -0.0000    0.0000    0.0045   -0.0313   -0.0000
        5 O1     3px        0.0000   -0.0000   -0.0000    0.0000   -0.0003    0.0000   -0.0000   -0.0004    0.0025    0.0000
        6 O1     2py       -0.0000    0.0000    0.0000    0.0022    0.0003   -0.0000    0.0000   -0.0313   -0.0045   -0.0000
        7 O1     3py       -0.0000   -0.0000   -0.0000   -0.0003   -0.0000    0.0000   -0.0000    0.0025    0.0004    0.0000
        8 O1     2pz       -0.0000   -0.0000    0.0039   -0.0000   -0.0000    0.0019    0.0045    0.0000    0.0000   -0.0168
        9 O1     3pz       -0.0000   -0.0000    0.0007   -0.0000    0.0000    0.0010    0.0007    0.0000    0.0000   -0.0072
       10 O1     3d2-       0.0000    0.0000    0.0000   -0.0000   -0.0000   -0.0000   -0.0000   -0.0000    0.0000    0.0000
       11 O1     3d1-      -0.0000   -0.0000    0.0000    0.0001    0.0000   -0.0000    0.0000    0.0003    0.0000    0.0000
       12 O1     3d0        0.0000   -0.0001   -0.0007    0.0000    0.0000    0.0000   -0.0001   -0.0000   -0.0000    0.0001
       13 O1     3d1+      -0.0000    0.0000    0.0000   -0.0000    0.0001   -0.0000    0.0000   -0.0000    0.0003    0.0000
       14 O1     3d2+       0.0000    0.0000    0.0000   -0.0000    0.0000   -0.0000   -0.0000   -0.0000    0.0000    0.0000
       15 FE2    1s         1.0000   -0.0000    0.0001   -0.0000    0.0000   -0.0000   -0.0000    0.0000    0.0000   -0.0003
       16 FE2    2s         0.0000    0.9886    0.0589   -0.0000   -0.0000   -0.0075    0.1388   -0.0000   -0.0000    0.0006
       17 FE2    3s         0.0001   -0.1403    0.0566   -0.0000   -0.0000    0.0894    0.9860    0.0000    0.0000   -0.0436
       18 FE2    4s         0.0000    0.0004   -0.0004    0.0000   -0.0000   -0.0007   -0.0031   -0.0000   -0.0000    0.0045
       19 FE2    5s        -0.0000   -0.0004    0.0004   -0.0000   -0.0000    0.0006    0.0032    0.0000    0.0000   -0.0032
       20 FE2    2px       -0.0000    0.0000    0.0000   -0.1158    0.9820   -0.0000    0.0000   -0.0214    0.1475    0.0000
       21 FE2    3px        0.0000   -0.0000   -0.0000    0.0174   -0.1480    0.0000   -0.0000   -0.1422    0.9782    0.0000
       22 FE2    4px       -0.0000    0.0000    0.0000   -0.0002    0.0020   -0.0000    0.0000    0.0022   -0.0151   -0.0000
       23 FE2    5px        0.0000   -0.0000   -0.0000    0.0001   -0.0007    0.0000   -0.0000   -0.0009    0.0060    0.0000
       24 FE2    2py       -0.0000    0.0000    0.0000    0.9820    0.1158   -0.0000    0.0000    0.1474    0.0214    0.0000
       25 FE2    3py        0.0000   -0.0000   -0.0000   -0.1478   -0.0175    0.0000   -0.0000    0.9782    0.1422    0.0000
       26 FE2    4py       -0.0000    0.0000    0.0000    0.0020    0.0002   -0.0000    0.0000   -0.0151   -0.0022   -0.0000
       27 FE2    5py        0.0000   -0.0000   -0.0000   -0.0007   -0.0001    0.0000   -0.0000    0.0060    0.0009    0.0000
       28 FE2    2pz       -0.0000   -0.0270    0.1705   -0.0000   -0.0000   -0.9729    0.0690    0.0000    0.0000   -0.1376
       29 FE2    3pz       -0.0000    0.0104   -0.0091    0.0000    0.0000    0.1351   -0.0449    0.0000    0.0000   -0.9922
       30 FE2    4pz       -0.0000    0.0002   -0.0006    0.0000   -0.0000   -0.0021   -0.0022   -0.0000   -0.0000    0.0151
       31 FE2    5pz        0.0000   -0.0002    0.0003   -0.0000    0.0000    0.0008    0.0015    0.0000    0.0000   -0.0062
       32 FE2    3d2-       0.0000   -0.0000    0.0000   -0.0000    0.0000    0.0000    0.0000    0.0000   -0.0000   -0.0000
       33 FE2    4d2-      -0.0000    0.0000   -0.0000    0.0000   -0.0000   -0.0000   -0.0000   -0.0000    0.0000    0.0000
       34 FE2    3d1-      -0.0000    0.0000    0.0000    0.0035    0.0004   -0.0000    0.0000   -0.0340   -0.0049   -0.0000
       35 FE2    4d1-      -0.0000    0.0000    0.0000    0.0002    0.0000   -0.0000    0.0000   -0.0018   -0.0003   -0.0000
       36 FE2    3d0       -0.0000    0.0005   -0.0032    0.0000   -0.0000   -0.0045   -0.0073   -0.0000   -0.0000    0.0340
       37 FE2    4d0        0.0000   -0.0000   -0.0001    0.0000    0.0000    0.0001    0.0004   -0.0000   -0.0000    0.0005
       38 FE2    3d1+      -0.0000    0.0000    0.0000   -0.0004    0.0035   -0.0000    0.0000    0.0049   -0.0340   -0.0000
       39 FE2    4d1+      -0.0000    0.0000    0.0000   -0.0000    0.0002   -0.0000    0.0000    0.0003   -0.0018   -0.0000
       40 FE2    3d2+       0.0000   -0.0000    0.0000    0.0000   -0.0000    0.0000    0.0000   -0.0000    0.0000   -0.0000
       41 FE2    4d2+      -0.0000    0.0000   -0.0000    0.0000    0.0000   -0.0000   -0.0000    0.0000   -0.0000    0.0000
       42 FE2    4f3-       0.0000    0.0000   -0.0000   -0.0000   -0.0000   -0.0000   -0.0000    0.0000    0.0000    0.0000
       43 FE2    4f2-      -0.0000   -0.0000    0.0000   -0.0000   -0.0000    0.0000    0.0000    0.0000    0.0000    0.0000
       44 FE2    4f1-      -0.0000    0.0000    0.0000    0.0001    0.0000   -0.0000    0.0000   -0.0004   -0.0001   -0.0000
       45 FE2    4f0        0.0000   -0.0000   -0.0002    0.0000   -0.0000   -0.0002    0.0001   -0.0000   -0.0000    0.0028
       46 FE2    4f1+      -0.0000    0.0000    0.0000   -0.0000    0.0001   -0.0000    0.0000    0.0001   -0.0004   -0.0000
       47 FE2    4f2+      -0.0000   -0.0000    0.0000    0.0000   -0.0000    0.0000    0.0000   -0.0000    0.0000    0.0000
       48 FE2    4f3+      -0.0000    0.0000    0.0000    0.0000   -0.0000   -0.0000   -0.0000   -0.0000    0.0000   -0.0000
 
          Orbital           11        12        13        14        15        16        17        18        19        20    
          Energy           -1.9040   -1.1646   -1.1646   -1.0716   -0.9676   -0.9676   -0.9158   -0.9158   -0.6970    0.2724
          Occ. No.          1.9980    1.9917    1.9917    1.3885    1.0000    1.0000    1.0000    1.0000    0.6115    0.0083
 
        1 O1     1s        -0.0208    0.0000    0.0000   -0.0218   -0.0000    0.0000    0.0000   -0.0000    0.0020    0.0000
        2 O1     2s        -0.9399    0.0000    0.0000   -0.3417   -0.0000    0.0000    0.0000    0.0000   -0.0199    0.0000
        3 O1     3s         0.0043   -0.0000   -0.0000   -0.0338   -0.0000    0.0000    0.0000    0.0000    0.0324   -0.0000
        4 O1     2px        0.0000    0.7927   -0.0204    0.0000    0.0000   -0.0000    0.0599   -0.5318    0.0000    0.0113
        5 O1     3px       -0.0000   -0.0299    0.0008   -0.0000    0.0000   -0.0000    0.0008   -0.0076   -0.0000   -0.0065
        6 O1     2py        0.0000    0.0204    0.7926    0.0000   -0.0000   -0.0000   -0.5320   -0.0599    0.0000   -0.4383
        7 O1     3py       -0.0000   -0.0008   -0.0299    0.0000   -0.0000   -0.0000   -0.0075   -0.0008    0.0000    0.2528
        8 O1     2pz        0.1433    0.0000    0.0000   -0.5605   -0.0000    0.0000   -0.0000   -0.0000   -0.7782    0.0000
        9 O1     3pz        0.0213   -0.0000   -0.0000    0.0535    0.0000   -0.0000   -0.0000    0.0000    0.0235   -0.0000
       10 O1     3d2-      -0.0000   -0.0000   -0.0000   -0.0000    0.0000    0.0000   -0.0000   -0.0000   -0.0000   -0.0000
       11 O1     3d1-      -0.0000   -0.0009   -0.0352   -0.0000    0.0000    0.0000    0.0172    0.0019   -0.0000   -0.0609
       12 O1     3d0       -0.0191   -0.0000   -0.0000    0.0226    0.0000   -0.0000   -0.0000    0.0000    0.0058    0.0000
       13 O1     3d1+      -0.0000   -0.0352    0.0009    0.0000   -0.0000    0.0000   -0.0019    0.0172    0.0000    0.0016
       14 O1     3d2+      -0.0000   -0.0000    0.0000   -0.0000    0.0000   -0.0000    0.0000    0.0000   -0.0000    0.0000
       15 FE2    1s         0.0019    0.0000    0.0000   -0.0010    0.0000   -0.0000   -0.0000   -0.0000   -0.0027   -0.0000
       16 FE2    2s         0.0100    0.0000    0.0000   -0.0073    0.0000   -0.0000   -0.0000   -0.0000   -0.0199   -0.0000
       17 FE2    3s         0.0388    0.0000    0.0000   -0.0351    0.0000   -0.0000   -0.0000   -0.0000   -0.1052   -0.0000
       18 FE2    4s        -0.0117   -0.0000   -0.0000    0.0598    0.0000   -0.0000    0.0000    0.0000    0.0687   -0.0000
       19 FE2    5s         0.0114    0.0000    0.0000   -0.0197   -0.0000    0.0000   -0.0000   -0.0000   -0.0372    0.0000
       20 FE2    2px        0.0000    0.0017   -0.0000    0.0000   -0.0000    0.0000   -0.0001    0.0013   -0.0000    0.0000
       21 FE2    3px       -0.0000    0.0184   -0.0005    0.0000   -0.0000    0.0000   -0.0039    0.0347   -0.0000    0.0001
       22 FE2    4px        0.0000    0.0707   -0.0018    0.0000    0.0000   -0.0000    0.0039   -0.0344    0.0000   -0.0093
       23 FE2    5px       -0.0000   -0.0079    0.0002   -0.0000   -0.0000    0.0000   -0.0017    0.0149   -0.0000    0.0011
       24 FE2    2py        0.0000    0.0000    0.0017   -0.0000    0.0000    0.0000    0.0013    0.0001   -0.0000   -0.0006
       25 FE2    3py       -0.0000    0.0005    0.0184    0.0000    0.0000    0.0000    0.0347    0.0039   -0.0000   -0.0022
       26 FE2    4py        0.0000    0.0018    0.0707    0.0000   -0.0000   -0.0000   -0.0344   -0.0039    0.0000    0.3623
       27 FE2    5py        0.0000   -0.0002   -0.0079    0.0000    0.0000    0.0000    0.0149    0.0017   -0.0000   -0.0434
       28 FE2    2pz       -0.0050    0.0000    0.0000   -0.0019   -0.0000    0.0000   -0.0000   -0.0000   -0.0052   -0.0000
       29 FE2    3pz       -0.0400   -0.0000   -0.0000   -0.0234   -0.0000    0.0000   -0.0000   -0.0000   -0.1049   -0.0000
       30 FE2    4pz       -0.0244   -0.0000   -0.0000    0.0471    0.0000   -0.0000    0.0000    0.0000    0.0590   -0.0000
       31 FE2    5pz        0.0088    0.0000    0.0000   -0.0024   -0.0000    0.0000   -0.0000   -0.0000   -0.0194    0.0000
       32 FE2    3d2-       0.0000    0.0000    0.0000   -0.0000    0.0520    0.9925   -0.0000   -0.0000    0.0000    0.0000
       33 FE2    4d2-       0.0000    0.0000    0.0000    0.0000   -0.0058   -0.1105    0.0000    0.0000   -0.0000    0.0000
       34 FE2    3d1-       0.0000    0.0121    0.4702    0.0000    0.0000    0.0000    0.8809    0.0991   -0.0000    0.0847
       35 FE2    4d1-       0.0000    0.0007    0.0262   -0.0000   -0.0000   -0.0000   -0.1051   -0.0118    0.0000    0.8059
       36 FE2    3d0       -0.1095   -0.0000   -0.0000    0.7425    0.0000   -0.0000   -0.0000   -0.0000   -0.6691   -0.0000
       37 FE2    4d0       -0.0060   -0.0000   -0.0000   -0.0345   -0.0000    0.0000    0.0000    0.0000    0.1185   -0.0000
       38 FE2    3d1+       0.0000    0.4700   -0.0121    0.0000   -0.0000    0.0000   -0.0992    0.8810   -0.0000   -0.0022
       39 FE2    4d1+       0.0000    0.0262   -0.0007   -0.0000    0.0000   -0.0000    0.0118   -0.1051    0.0000   -0.0208
       40 FE2    3d2+       0.0000    0.0000   -0.0000   -0.0000    0.9925   -0.0520    0.0000    0.0000    0.0000    0.0000
       41 FE2    4d2+       0.0000    0.0000   -0.0000    0.0000   -0.1105    0.0058   -0.0000   -0.0000   -0.0000   -0.0000
       42 FE2    4f3-      -0.0000    0.0000   -0.0000   -0.0000    0.0000   -0.0000   -0.0000   -0.0000   -0.0000   -0.0000
       43 FE2    4f2-       0.0000    0.0000    0.0000   -0.0000   -0.0001   -0.0022    0.0000    0.0000   -0.0000    0.0000
       44 FE2    4f1-      -0.0000    0.0003    0.0113    0.0000   -0.0000   -0.0000   -0.0070   -0.0008    0.0000    0.0493
       45 FE2    4f0       -0.0075    0.0000   -0.0000    0.0071    0.0000   -0.0000    0.0000    0.0000    0.0111   -0.0000
       46 FE2    4f1+       0.0000    0.0113   -0.0003    0.0000    0.0000   -0.0000    0.0008   -0.0070    0.0000   -0.0013
       47 FE2    4f2+       0.0000    0.0000   -0.0000   -0.0000   -0.0022    0.0001   -0.0000   -0.0000   -0.0000   -0.0000
       48 FE2    4f3+       0.0000    0.0000    0.0000    0.0000    0.0000   -0.0000    0.0000   -0.0000    0.0000    0.0000
 
          Orbital           21        22        23        24        25        26        27        28        29        30    
          Energy            0.2726    1.6111    1.2408    1.0955    1.0952   -0.0912    1.1652    1.3807    1.3801    1.1421
          Occ. No.          0.0083    0.0020    0.0001    0.0001    0.0001    0.0000    0.0000    0.0000    0.0000    0.0000
 
        1 O1     1s         0.0000   -0.0353   -0.0463    0.0000   -0.0000    0.0919   -0.0251   -0.0000   -0.0000    0.1949
        2 O1     2s         0.0000   -0.2285   -0.4256    0.0000   -0.0000    0.7544   -0.2716   -0.0000   -0.0000    1.3162
        3 O1     3s         0.0000   -0.0026   -0.0524    0.0000    0.0000    0.2124   -0.7466   -0.0000   -0.0000    0.7298
        4 O1     2px       -0.4383    0.0000    0.0000   -0.0030   -0.1502   -0.0000    0.0000    0.0098   -0.3962   -0.0000
        5 O1     3px        0.2527    0.0000    0.0000   -0.0052   -0.2601   -0.0000    0.0000    0.0200   -0.8128   -0.0000
        6 O1     2py       -0.0113    0.0000    0.0000    0.1502   -0.0030   -0.0000   -0.0000   -0.3962   -0.0098   -0.0000
        7 O1     3py        0.0065   -0.0000    0.0000    0.2603   -0.0052   -0.0000   -0.0000   -0.8129   -0.0200    0.0000
        8 O1     2pz       -0.0000    0.0574    0.3942   -0.0000    0.0000   -0.6007    0.4624    0.0000    0.0000   -0.4822
        9 O1     3pz       -0.0000   -0.2555    0.1815   -0.0000    0.0000   -0.1673    0.6834    0.0000   -0.0000   -0.0099
       10 O1     3d2-      -0.0000    0.0000   -0.0000   -0.0000    0.0000    0.0000    0.0000    0.0000   -0.0000    0.0000
       11 O1     3d1-      -0.0016   -0.0000    0.0000    0.0453   -0.0009   -0.0000   -0.0000   -0.2500   -0.0062    0.0000
       12 O1     3d0        0.0000    0.9619   -0.2902    0.0000   -0.0000    0.3064   -0.2307    0.0000   -0.0000    0.3806
       13 O1     3d1+      -0.0608   -0.0000    0.0000   -0.0009   -0.0453   -0.0000    0.0000    0.0062   -0.2500   -0.0000
       14 O1     3d2+      -0.0000    0.0001   -0.0001   -0.0000    0.0000    0.0001    0.0001   -0.0000    0.0000    0.0002
       15 FE2    1s        -0.0000   -0.0060    0.0052   -0.0000    0.0000   -0.0070    0.0131    0.0000    0.0000   -0.0086
       16 FE2    2s        -0.0000   -0.0431    0.0373   -0.0000    0.0000   -0.0509    0.0938    0.0000    0.0000   -0.0624
       17 FE2    3s        -0.0000   -0.1877    0.1814   -0.0000    0.0000   -0.2557    0.4194    0.0000    0.0000   -0.3185
       18 FE2    4s        -0.0000    0.0555    0.1135   -0.0000    0.0000   -1.0861    0.7696    0.0000    0.0000   -0.7014
       19 FE2    5s         0.0000   -0.0040   -0.0541   -0.0000    0.0000    0.8581   -0.3028   -0.0000    0.0000    0.1423
       20 FE2    2px       -0.0006   -0.0000   -0.0000    0.0000    0.0015   -0.0000   -0.0000   -0.0001    0.0038    0.0000
       21 FE2    3px       -0.0022   -0.0000   -0.0000    0.0007    0.0344   -0.0000   -0.0000   -0.0017    0.0679    0.0000
       22 FE2    4px        0.3621   -0.0000   -0.0000    0.0111    0.5569   -0.0000   -0.0000   -0.0190    0.7734    0.0000
       23 FE2    5px       -0.0434   -0.0000    0.0000   -0.0155   -0.7781   -0.0000   -0.0000   -0.0159    0.6471    0.0000
       24 FE2    2py       -0.0000   -0.0000   -0.0000   -0.0015    0.0000   -0.0000    0.0000    0.0038    0.0001    0.0000
       25 FE2    3py       -0.0001   -0.0000   -0.0000   -0.0344    0.0007   -0.0000    0.0000    0.0679    0.0017    0.0000
       26 FE2    4py        0.0093    0.0000   -0.0000   -0.5568    0.0111   -0.0000    0.0000    0.7732    0.0190   -0.0000
       27 FE2    5py       -0.0011   -0.0000    0.0000    0.7781   -0.0155    0.0000    0.0000    0.6471    0.0159   -0.0000
       28 FE2    2pz       -0.0000   -0.0107    0.0087   -0.0000    0.0000   -0.0124    0.0167    0.0000    0.0000   -0.0169
       29 FE2    3pz       -0.0000   -0.1260    0.1505   -0.0000    0.0000   -0.2157    0.2281    0.0000    0.0000   -0.2941
       30 FE2    4pz       -0.0000    0.1954    0.7786   -0.0000    0.0000   -0.4055   -0.1767    0.0000    0.0000   -0.8843
       31 FE2    5pz        0.0000   -0.0289   -0.8395    0.0000   -0.0000    0.1925   -0.7546    0.0000   -0.0000   -0.0000
       32 FE2    3d2-       0.0000   -0.0000   -0.0000    0.0000   -0.0000   -0.0000    0.0000   -0.0000   -0.0000   -0.0000
       33 FE2    4d2-       0.0000   -0.0000   -0.0000    0.0000   -0.0000   -0.0000    0.0000   -0.0000   -0.0000    0.0000
       34 FE2    3d1-       0.0022   -0.0000   -0.0000   -0.0243    0.0005   -0.0000    0.0000    0.0873    0.0021    0.0000
       35 FE2    4d1-       0.0208   -0.0000    0.0000    0.1093   -0.0022   -0.0000    0.0000    0.2237    0.0055    0.0000
       36 FE2    3d0       -0.0000   -0.0252    0.1401   -0.0000    0.0000   -0.2400    0.0769    0.0000    0.0000   -0.4168
       37 FE2    4d0       -0.0000    0.3206    0.0376   -0.0000    0.0000   -0.1651    0.0786   -0.0000    0.0000   -1.3486
       38 FE2    3d1+       0.0848   -0.0000   -0.0000    0.0005    0.0243    0.0000   -0.0000   -0.0021    0.0873    0.0000
       39 FE2    4d1+       0.8061   -0.0000    0.0000   -0.0022   -0.1094    0.0000   -0.0000   -0.0055    0.2236    0.0000
       40 FE2    3d2+      -0.0000   -0.0000   -0.0000   -0.0000   -0.0000   -0.0000    0.0000    0.0000   -0.0000   -0.0000
       41 FE2    4d2+       0.0000   -0.0000   -0.0001   -0.0000   -0.0000   -0.0000    0.0001   -0.0000   -0.0000    0.0000
       42 FE2    4f3-      -0.0000    0.0000    0.0000    0.0000   -0.0000    0.0000   -0.0000   -0.0000   -0.0000   -0.0000
       43 FE2    4f2-       0.0000   -0.0000   -0.0000   -0.0000    0.0000   -0.0000    0.0000   -0.0000    0.0000    0.0000
       44 FE2    4f1-       0.0013   -0.0000   -0.0000   -0.2486    0.0050   -0.0000    0.0000    0.4752    0.0117    0.0000
       45 FE2    4f0       -0.0000    0.0149   -0.1170    0.0000   -0.0000   -0.0212    0.2803   -0.0000    0.0000   -0.2508
       46 FE2    4f1+       0.0493   -0.0000   -0.0000    0.0050    0.2485   -0.0000    0.0000   -0.0117    0.4751   -0.0000
       47 FE2    4f2+       0.0000   -0.0000   -0.0001    0.0000    0.0000   -0.0001    0.0001    0.0000    0.0000    0.0000
       48 FE2    4f3+      -0.0000   -0.0000    0.0000   -0.0000   -0.0000   -0.0000   -0.0000    0.0000   -0.0000   -0.0000
 
          Orbital           31        32        33        34        35        36        37        38        39        40    
          Energy            0.4305    0.4630    0.2700    0.4629    1.0122    0.5523    1.3780    1.5965    0.3599    2.3962
          Occ. No.          0.0000    0.0000    0.0000    0.0000    0.0000    0.0000    0.0000    0.0000    0.0000    0.0000
 
        1 O1     1s         0.0456    0.0000    0.0385    0.0000    0.2157    0.0002    0.0000   -0.0104    0.0000   -0.1060
        2 O1     2s         0.3001    0.0000    0.2910    0.0000    1.6693    0.0020    0.0002   -0.0858    0.0001   -0.8700
        3 O1     3s         0.5891    0.0000    0.4035    0.0000    1.3641    0.0028    0.0000   -0.1297    0.0001   -1.3151
        4 O1     2px        0.0000   -0.0089    0.0000   -0.0503    0.0001    0.1180   -0.2678    0.1133   -0.0273   -0.0110
[...]
        O1           FE2            2.769
      -------------------------------------------------------------------------------------
      NBO located     19.998 core electrons.
      NBO located      1.981 lone pair electrons.
      NBO located      5.539 electrons involved in    1 bonds.
      NBO located      0.998 non-bonded electrons on atom FE2       
      NBO located      0.998 non-bonded electrons on atom FE2       
      The remaining    2.486 electrons are to be considered as diffuse
--
 
--
 
 
  Input file to MOLDEN was generated!
 
 
  Input file to MOLDEN was generated!
 
      Average orbitals are written to the RASORB file
      Natural orbitals for root   1 are written to the RASORB.1 file
      Spin density orbitals for root   1 are written to the SPDORB.1 file
 
--- Stop Module: rasscf at Thu Dec 19 14:11:47 2024 /rc=_RC_ALL_IS_WELL_ ---
*** files: 1.61.LprOrb 1.61.rasscf.molden 1.61.rasscf.molden.1 1.61.LoProp.molden 1.61.RasOrb 1.61.RasOrb.1 1.61.rasscf.h5 1.61.SpdOrb.1 xmldump
    saved to directory /home/grierjones/DDCASPT2/iron_oxo_DDCASPT2/cluster/1.61
--- Module rasscf spent 1 minute 31 seconds ---

>>> COPY /tmp/1.61/1.61.rasscf.h5 /home/grierjones/DDCASPT2/iron_oxo_DDCASPT2/cluster/1.61/

>>> COPY /tmp/1.61/GMJ_Fock_MO.csv /home/grierjones/DDCASPT2/iron_oxo_DDCASPT2/cluster/1.61/1.61.GMJ_Fock_MO.csv

>>> COPY /tmp/1.61/GMJ_PT2_Fock_MO.csv /home/grierjones/DDCASPT2/iron_oxo_DDCASPT2/cluster/1.61/1.61.GMJ_PT2_Fock_MO.csv

*** symbolic link created: INPORB -> 1.61.RasOrb
--- Start Module: motra at Thu Dec 19 14:11:47 2024 ---
 
()()()()()()()()()()()()()()()()()()()()()()()()()()()()()()()()()()()()()()()()()()()()()()()()()()

                                               &MOTRA

                                   only a single process is used
                       available to each process: 2.0 GB of memory, 1 thread?
()()()()()()()()()()()()()()()()()()()()()()()()()()()()()()()()()()()()()()()()()()()()()()()()()()
 
 
      *** WARNING: Default frozen orbitals is overwritten by user input.
      *** Default values:   7
 
      Header of the integral files:
      
       Integrals generated by seward 4.2.0  , Thu Dec 19 14:10:13 2024
 
 
      Header of MO coefficients source file:
      * RASSCF average (pseudo-natural) orbitals                                      
 
 
      Cartesian coordinates in Angstrom:
      -----------------------------------------------------
      No.  Label        X            Y            Z        
      -----------------------------------------------------
       1   O1         0.00000000   0.00000000   1.60581000
       2   FE2        0.00000000   0.00000000  -0.00581000
      -----------------------------------------------------
      Nuclear repulsion energy =   68.29703021
 
      Orbital specifications:
      -----------------------
 
      Symmetry species:              1
      Number of basis functions:    48
      Frozen orbitals:               0
      Deleted orbitals:              0
      Number of orbitals used:      48

       SYMMETRY  BASIS FUNCTIONS       ORBITALS      INTEGRALS   CPU(SEC)  I/O(SEC)
 
        1 1 1 1   48  48  48  48    48  48  48  48      692076       0.00      0.00

       TOTAL CPU TIME(SEC)    0.30TOTAL I/O TIME(SEC)    0.86
 
--- Stop Module: motra at Thu Dec 19 14:11:48 2024 /rc=_RC_ALL_IS_WELL_ ---
*** files: xmldump
    saved to directory /home/grierjones/DDCASPT2/iron_oxo_DDCASPT2/cluster/1.61

>>> COPY /tmp/1.61/GMJ_one_int_indx.csv /home/grierjones/DDCASPT2/iron_oxo_DDCASPT2/cluster/1.61/1.61.GMJ_one_int_indx.csv

>>> COPY /tmp/1.61/GMJ_one_int.csv /home/grierjones/DDCASPT2/iron_oxo_DDCASPT2/cluster/1.61/1.61.GMJ_one_int.csv

>>> COPY /tmp/1.61/GMJ_two_int_indx.csv /home/grierjones/DDCASPT2/iron_oxo_DDCASPT2/cluster/1.61/1.61.GMJ_two_int_indx.csv

>>> COPY /tmp/1.61/GMJ_two_int.csv /home/grierjones/DDCASPT2/iron_oxo_DDCASPT2/cluster/1.61/1.61.GMJ_two_int.csv

*** symbolic link created: INPORB -> 1.61.RasOrb
--- Start Module: caspt2 at Thu Dec 19 14:11:48 2024 ---
 
()()()()()()()()()()()()()()()()()()()()()()()()()()()()()()()()()()()()()()()()()()()()()()()()()()

                                              &CASPT2

                                   only a single process is used
                       available to each process: 2.0 GB of memory, 1 thread?
()()()()()()()()()()()()()()()()()()()()()()()()()()()()()()()()()()()()()()()()()()()()()()()()()()
 
 Cholesky algorithm in CASPT2 =    1
 
 ###############################################################################
 ###############################################################################
 ###                                                                         ###
 ###                                                                         ###
 ###    User changed nr of frozen orbitals.                                  ###
 ###                                                                         ###
 ###                                                                         ###
 ###############################################################################
 ###############################################################################
 
++    Wave function specifications:
      -----------------------------
 
      Number of closed shell electrons          22
      Number of electrons in active shells      10
      Max number of holes in RAS1 space          0
      Max number of electrons in RAS3 space      0
      Number of inactive orbitals               11
      Number of active orbitals                 14
      Number of secondary orbitals              23
      Spin quantum number                      2.0
      State symmetry                             1
      Number of CSFs                        975975
      Number of root(s) available                1
      Root passed to geometry opt.               1
      A file JOBMIX will be created.
      This is a CASSCF or RASSCF reference function
--
 
++    Orbital specifications:
      -----------------------
 
      Symmetry species                           1
                                                 a
      Frozen orbitals                            0
      Inactive orbitals                         11
      Active orbitals                           14
      Secondary orbitals                        23
      Deleted orbitals                           0
      Number of basis functions                 48
--
 
      Type of Fock operator: STANDARD
      Type of 0-order Hamiltonian: STANDARD WITH DEFAULT IPEA
        "IP-EA" denominator shift =      0.25
      The input orbitals and the CI vector will be transformed.
 
--------------------------------------------------------------------------------
 Estimated memory requirements:
  POLY3 :                227658189
  RHS:                     4146972
  SIGMA :                   646704
  PRPCTL:                        0
 Available workspace:    229020647
 
++ CASPT2 computation for group   1
 
********************************************************************************
 Multi-State initialization phase begins for group   1
--------------------------------------------------------------------------------
********************************************************************************
 Compute H0 matrices for state    1
--------------------------------------------------------------------------------
--------------------------------------------------------------------------------
 H0 matrices have been computed.
 
********************************************************************************
  CASPT2 EQUATION SOLUTION
--------------------------------------------------------------------------------
 
  Total nr of CASPT2 parameters:
   Before reduction:      408969
   After  reduction:      408240
 
 The contributions to the second order correlation energy in atomic units.
-----------------------------------------------------------------------------------------------------------------------------
  IT.      VJTU        VJTI        ATVX        AIVX        VJAI        BVAT        BJAT        BJAI        TOTAL       RNORM  
-----------------------------------------------------------------------------------------------------------------------------
   1    -0.007789   -0.030795   -0.023882   -0.182669   -0.020292   -0.080922   -0.022462   -0.043752   -0.412564    0.007825
   2    -0.007836   -0.030838   -0.024104   -0.183091   -0.020297   -0.081046   -0.022453   -0.043766   -0.413431    0.001215
   3    -0.007839   -0.030843   -0.024113   -0.183125   -0.020301   -0.081049   -0.022460   -0.043768   -0.413499    0.000198
   4    -0.007838   -0.030842   -0.024112   -0.183115   -0.020301   -0.081046   -0.022459   -0.043768   -0.413480    0.000034
   5    -0.007838   -0.030842   -0.024112   -0.183114   -0.020301   -0.081045   -0.022459   -0.043768   -0.413479    0.000006
-------------------------------------------------------------------------------------------------------------------
 
  FINAL CASPT2 RESULT:
 
  Correlation energy /Case, /Symm, and sums:
 VJTU     -0.00783840 -0.00783840
 VJTIP    -0.01258332 -0.01258332
 VJTIM    -0.01825829 -0.01825829
 ATVX     -0.02411207 -0.02411207
 AIVX     -0.18311398 -0.18311398
 VJAIP    -0.01458326 -0.01458326
 VJAIM    -0.00571749 -0.00571749
 BVATP    -0.02953636 -0.02953636
 BVATM    -0.05150922 -0.05150922
 BJATP    -0.01227575 -0.01227575
 BJATM    -0.01018340 -0.01018340
 BJAIP    -0.02949310 -0.02949310
 BJAIM    -0.01427462 -0.01427462
 Summed:  -0.41347927 -0.41347927
 
      Reference energy:       -1345.4553118657
      E2 (Non-variational):      -0.4134792705
      E2 (Variational):          -0.4134792921
      Total energy:           -1345.8687911578
      Residual norm:              0.0000009903
      Reference weight:           0.93570
 
      Contributions to the CASPT2 correlation energy
      Active & Virtual Only:         -0.1051576512
      One Inactive Excited:          -0.2134115326
      Two Inactive Excited:          -0.0949100868
 
 
++ Denominators, etc.
----------------------------------------------------------------------------------------------------
 Report on small energy denominators, large coefficients, and large energy contributions.
CASE  SYMM ACTIVE-MIX  NON-ACTIVE INDICES          DENOMINATOR     RHS VALUE       COEFFICIENT     CONTRIBUTION
VJTIM    1  Mu1.0006  In1.010 In1.009               5.44404329     -0.15033815      0.02761199     -0.00415114
ATVX     1  Mu1.0001  Se1.026                       0.16084915     -0.00000000      0.00000000     -0.00000000
ATVX     1  Mu1.0002  Se1.026                       0.16088724     -0.00000000      0.00000000     -0.00000000
ATVX     1  Mu1.0003  Se1.026                       0.18406197      0.00000000     -0.00000000     -0.00000000
ATVX     1  Mu1.0004  Se1.026                       0.18406197      0.00000000     -0.00000000     -0.00000000
--
 
   (Skipping property calculation,
    use PROP keyword to activate)
--
 
  Total CASPT2 energies:
::    CASPT2 Root  1     Total energy:  -1345.86879116
 
  A NEW JOBIPH FILE NAMED 'JOBMIX' IS PREPARED.
********************************************************************************
--- Stop Module: caspt2 at Thu Dec 19 14:17:21 2024 /rc=_RC_ALL_IS_WELL_ ---
*** files: xmldump
    saved to directory /home/grierjones/DDCASPT2/iron_oxo_DDCASPT2/cluster/1.61
--- Module caspt2 spent 5 minutes 33 seconds ---

>>> EXPORT i = B

>>> EXPORT j = P

>>> IF (-FILE GMJ_e2_${i}_${j}.csv)

>>> COPY /tmp/1.61/GMJ_RHS_B_P.csv /home/grierjones/DDCASPT2/iron_oxo_DDCASPT2/cluster/1.61/GMJ_RHS_B_P.csv

>>> COPY /tmp/1.61/GMJ_IVECW_B_P.csv /home/grierjones/DDCASPT2/iron_oxo_DDCASPT2/cluster/1.61/GMJ_IVECW_B_P.csv

>>> COPY /tmp/1.61/GMJ_IVECX_B_P.csv /home/grierjones/DDCASPT2/iron_oxo_DDCASPT2/cluster/1.61/GMJ_IVECX_B_P.csv

>>> COPY /tmp/1.61/GMJ_IVECC2_B_P.csv /home/grierjones/DDCASPT2/iron_oxo_DDCASPT2/cluster/1.61/GMJ_IVECC2_B_P.csv

>>> COPY /tmp/1.61/GMJ_e2_B_P.csv /home/grierjones/DDCASPT2/iron_oxo_DDCASPT2/cluster/1.61/GMJ_e2_B_P.csv

>>> END FOREACH

>>> EXPORT j = M

>>> IF (-FILE GMJ_e2_${i}_${j}.csv)

>>> COPY /tmp/1.61/GMJ_RHS_B_M.csv /home/grierjones/DDCASPT2/iron_oxo_DDCASPT2/cluster/1.61/GMJ_RHS_B_M.csv

>>> COPY /tmp/1.61/GMJ_IVECW_B_M.csv /home/grierjones/DDCASPT2/iron_oxo_DDCASPT2/cluster/1.61/GMJ_IVECW_B_M.csv

>>> COPY /tmp/1.61/GMJ_IVECX_B_M.csv /home/grierjones/DDCASPT2/iron_oxo_DDCASPT2/cluster/1.61/GMJ_IVECX_B_M.csv

>>> COPY /tmp/1.61/GMJ_IVECC2_B_M.csv /home/grierjones/DDCASPT2/iron_oxo_DDCASPT2/cluster/1.61/GMJ_IVECC2_B_M.csv

>>> COPY /tmp/1.61/GMJ_e2_B_M.csv /home/grierjones/DDCASPT2/iron_oxo_DDCASPT2/cluster/1.61/GMJ_e2_B_M.csv

>>> END FOREACH

>>> END FOREACH

>>> EXPORT i = E

>>> EXPORT j = P

>>> IF (-FILE GMJ_e2_${i}_${j}.csv)

>>> COPY /tmp/1.61/GMJ_RHS_E_P.csv /home/grierjones/DDCASPT2/iron_oxo_DDCASPT2/cluster/1.61/GMJ_RHS_E_P.csv

>>> COPY /tmp/1.61/GMJ_IVECW_E_P.csv /home/grierjones/DDCASPT2/iron_oxo_DDCASPT2/cluster/1.61/GMJ_IVECW_E_P.csv

>>> COPY /tmp/1.61/GMJ_IVECX_E_P.csv /home/grierjones/DDCASPT2/iron_oxo_DDCASPT2/cluster/1.61/GMJ_IVECX_E_P.csv

>>> COPY /tmp/1.61/GMJ_IVECC2_E_P.csv /home/grierjones/DDCASPT2/iron_oxo_DDCASPT2/cluster/1.61/GMJ_IVECC2_E_P.csv

>>> COPY /tmp/1.61/GMJ_e2_E_P.csv /home/grierjones/DDCASPT2/iron_oxo_DDCASPT2/cluster/1.61/GMJ_e2_E_P.csv

>>> END FOREACH

>>> EXPORT j = M

>>> IF (-FILE GMJ_e2_${i}_${j}.csv)

>>> COPY /tmp/1.61/GMJ_RHS_E_M.csv /home/grierjones/DDCASPT2/iron_oxo_DDCASPT2/cluster/1.61/GMJ_RHS_E_M.csv

>>> COPY /tmp/1.61/GMJ_IVECW_E_M.csv /home/grierjones/DDCASPT2/iron_oxo_DDCASPT2/cluster/1.61/GMJ_IVECW_E_M.csv

>>> COPY /tmp/1.61/GMJ_IVECX_E_M.csv /home/grierjones/DDCASPT2/iron_oxo_DDCASPT2/cluster/1.61/GMJ_IVECX_E_M.csv

>>> COPY /tmp/1.61/GMJ_IVECC2_E_M.csv /home/grierjones/DDCASPT2/iron_oxo_DDCASPT2/cluster/1.61/GMJ_IVECC2_E_M.csv

>>> COPY /tmp/1.61/GMJ_e2_E_M.csv /home/grierjones/DDCASPT2/iron_oxo_DDCASPT2/cluster/1.61/GMJ_e2_E_M.csv

>>> END FOREACH

>>> END FOREACH

>>> EXPORT i = F

>>> EXPORT j = P

>>> IF (-FILE GMJ_e2_${i}_${j}.csv)

>>> COPY /tmp/1.61/GMJ_RHS_F_P.csv /home/grierjones/DDCASPT2/iron_oxo_DDCASPT2/cluster/1.61/GMJ_RHS_F_P.csv

>>> COPY /tmp/1.61/GMJ_IVECW_F_P.csv /home/grierjones/DDCASPT2/iron_oxo_DDCASPT2/cluster/1.61/GMJ_IVECW_F_P.csv

>>> COPY /tmp/1.61/GMJ_IVECX_F_P.csv /home/grierjones/DDCASPT2/iron_oxo_DDCASPT2/cluster/1.61/GMJ_IVECX_F_P.csv

>>> COPY /tmp/1.61/GMJ_IVECC2_F_P.csv /home/grierjones/DDCASPT2/iron_oxo_DDCASPT2/cluster/1.61/GMJ_IVECC2_F_P.csv

>>> COPY /tmp/1.61/GMJ_e2_F_P.csv /home/grierjones/DDCASPT2/iron_oxo_DDCASPT2/cluster/1.61/GMJ_e2_F_P.csv

>>> END FOREACH

>>> EXPORT j = M

>>> IF (-FILE GMJ_e2_${i}_${j}.csv)

>>> COPY /tmp/1.61/GMJ_RHS_F_M.csv /home/grierjones/DDCASPT2/iron_oxo_DDCASPT2/cluster/1.61/GMJ_RHS_F_M.csv

>>> COPY /tmp/1.61/GMJ_IVECW_F_M.csv /home/grierjones/DDCASPT2/iron_oxo_DDCASPT2/cluster/1.61/GMJ_IVECW_F_M.csv

>>> COPY /tmp/1.61/GMJ_IVECX_F_M.csv /home/grierjones/DDCASPT2/iron_oxo_DDCASPT2/cluster/1.61/GMJ_IVECX_F_M.csv

>>> COPY /tmp/1.61/GMJ_IVECC2_F_M.csv /home/grierjones/DDCASPT2/iron_oxo_DDCASPT2/cluster/1.61/GMJ_IVECC2_F_M.csv

>>> COPY /tmp/1.61/GMJ_e2_F_M.csv /home/grierjones/DDCASPT2/iron_oxo_DDCASPT2/cluster/1.61/GMJ_e2_F_M.csv

>>> END FOREACH

>>> END FOREACH

>>> EXPORT i = G

>>> EXPORT j = P

>>> IF (-FILE GMJ_e2_${i}_${j}.csv)

>>> COPY /tmp/1.61/GMJ_RHS_G_P.csv /home/grierjones/DDCASPT2/iron_oxo_DDCASPT2/cluster/1.61/GMJ_RHS_G_P.csv

>>> COPY /tmp/1.61/GMJ_IVECW_G_P.csv /home/grierjones/DDCASPT2/iron_oxo_DDCASPT2/cluster/1.61/GMJ_IVECW_G_P.csv

>>> COPY /tmp/1.61/GMJ_IVECX_G_P.csv /home/grierjones/DDCASPT2/iron_oxo_DDCASPT2/cluster/1.61/GMJ_IVECX_G_P.csv

>>> COPY /tmp/1.61/GMJ_IVECC2_G_P.csv /home/grierjones/DDCASPT2/iron_oxo_DDCASPT2/cluster/1.61/GMJ_IVECC2_G_P.csv

>>> COPY /tmp/1.61/GMJ_e2_G_P.csv /home/grierjones/DDCASPT2/iron_oxo_DDCASPT2/cluster/1.61/GMJ_e2_G_P.csv

>>> END FOREACH

>>> EXPORT j = M

>>> IF (-FILE GMJ_e2_${i}_${j}.csv)

>>> COPY /tmp/1.61/GMJ_RHS_G_M.csv /home/grierjones/DDCASPT2/iron_oxo_DDCASPT2/cluster/1.61/GMJ_RHS_G_M.csv

>>> COPY /tmp/1.61/GMJ_IVECW_G_M.csv /home/grierjones/DDCASPT2/iron_oxo_DDCASPT2/cluster/1.61/GMJ_IVECW_G_M.csv

>>> COPY /tmp/1.61/GMJ_IVECX_G_M.csv /home/grierjones/DDCASPT2/iron_oxo_DDCASPT2/cluster/1.61/GMJ_IVECX_G_M.csv

>>> COPY /tmp/1.61/GMJ_IVECC2_G_M.csv /home/grierjones/DDCASPT2/iron_oxo_DDCASPT2/cluster/1.61/GMJ_IVECC2_G_M.csv

>>> COPY /tmp/1.61/GMJ_e2_G_M.csv /home/grierjones/DDCASPT2/iron_oxo_DDCASPT2/cluster/1.61/GMJ_e2_G_M.csv

>>> END FOREACH

>>> END FOREACH

>>> EXPORT i = H

>>> EXPORT j = P

>>> IF (-FILE GMJ_e2_${i}_${j}.csv)

>>> COPY /tmp/1.61/GMJ_RHS_H_P.csv /home/grierjones/DDCASPT2/iron_oxo_DDCASPT2/cluster/1.61/GMJ_RHS_H_P.csv

>>> COPY /tmp/1.61/GMJ_IVECW_H_P.csv /home/grierjones/DDCASPT2/iron_oxo_DDCASPT2/cluster/1.61/GMJ_IVECW_H_P.csv

>>> COPY /tmp/1.61/GMJ_IVECX_H_P.csv /home/grierjones/DDCASPT2/iron_oxo_DDCASPT2/cluster/1.61/GMJ_IVECX_H_P.csv

>>> COPY /tmp/1.61/GMJ_IVECC2_H_P.csv /home/grierjones/DDCASPT2/iron_oxo_DDCASPT2/cluster/1.61/GMJ_IVECC2_H_P.csv

>>> COPY /tmp/1.61/GMJ_e2_H_P.csv /home/grierjones/DDCASPT2/iron_oxo_DDCASPT2/cluster/1.61/GMJ_e2_H_P.csv

>>> END FOREACH

>>> EXPORT j = M

>>> IF (-FILE GMJ_e2_${i}_${j}.csv)

>>> COPY /tmp/1.61/GMJ_RHS_H_M.csv /home/grierjones/DDCASPT2/iron_oxo_DDCASPT2/cluster/1.61/GMJ_RHS_H_M.csv

>>> COPY /tmp/1.61/GMJ_IVECW_H_M.csv /home/grierjones/DDCASPT2/iron_oxo_DDCASPT2/cluster/1.61/GMJ_IVECW_H_M.csv

>>> COPY /tmp/1.61/GMJ_IVECX_H_M.csv /home/grierjones/DDCASPT2/iron_oxo_DDCASPT2/cluster/1.61/GMJ_IVECX_H_M.csv

>>> COPY /tmp/1.61/GMJ_IVECC2_H_M.csv /home/grierjones/DDCASPT2/iron_oxo_DDCASPT2/cluster/1.61/GMJ_IVECC2_H_M.csv

>>> COPY /tmp/1.61/GMJ_e2_H_M.csv /home/grierjones/DDCASPT2/iron_oxo_DDCASPT2/cluster/1.61/GMJ_e2_H_M.csv

>>> END FOREACH

>>> END FOREACH

>>> EXPORT i = A

>>> IF (-FILE GMJ_e2_$i.csv)

>>> COPY /tmp/1.61/GMJ_RHS_A.csv /home/grierjones/DDCASPT2/iron_oxo_DDCASPT2/cluster/1.61/GMJ_RHS_A.csv

>>> COPY /tmp/1.61/GMJ_IVECW_A.csv /home/grierjones/DDCASPT2/iron_oxo_DDCASPT2/cluster/1.61/GMJ_IVECW_A.csv

>>> COPY /tmp/1.61/GMJ_IVECX_A.csv /home/grierjones/DDCASPT2/iron_oxo_DDCASPT2/cluster/1.61/GMJ_IVECX_A.csv

>>> COPY /tmp/1.61/GMJ_IVECC2_A.csv /home/grierjones/DDCASPT2/iron_oxo_DDCASPT2/cluster/1.61/GMJ_IVECC2_A.csv

>>> COPY /tmp/1.61/GMJ_e2_A.csv /home/grierjones/DDCASPT2/iron_oxo_DDCASPT2/cluster/1.61/GMJ_e2_A.csv

>>> END FOREACH

>>> EXPORT i = C

>>> IF (-FILE GMJ_e2_$i.csv)

>>> COPY /tmp/1.61/GMJ_RHS_C.csv /home/grierjones/DDCASPT2/iron_oxo_DDCASPT2/cluster/1.61/GMJ_RHS_C.csv

>>> COPY /tmp/1.61/GMJ_IVECW_C.csv /home/grierjones/DDCASPT2/iron_oxo_DDCASPT2/cluster/1.61/GMJ_IVECW_C.csv

>>> COPY /tmp/1.61/GMJ_IVECX_C.csv /home/grierjones/DDCASPT2/iron_oxo_DDCASPT2/cluster/1.61/GMJ_IVECX_C.csv

>>> COPY /tmp/1.61/GMJ_IVECC2_C.csv /home/grierjones/DDCASPT2/iron_oxo_DDCASPT2/cluster/1.61/GMJ_IVECC2_C.csv

>>> COPY /tmp/1.61/GMJ_e2_C.csv /home/grierjones/DDCASPT2/iron_oxo_DDCASPT2/cluster/1.61/GMJ_e2_C.csv

>>> END FOREACH

>>> EXPORT i = D

>>> IF (-FILE GMJ_e2_$i.csv)

>>> COPY /tmp/1.61/GMJ_RHS_D.csv /home/grierjones/DDCASPT2/iron_oxo_DDCASPT2/cluster/1.61/GMJ_RHS_D.csv

>>> COPY /tmp/1.61/GMJ_IVECW_D.csv /home/grierjones/DDCASPT2/iron_oxo_DDCASPT2/cluster/1.61/GMJ_IVECW_D.csv

>>> COPY /tmp/1.61/GMJ_IVECX_D.csv /home/grierjones/DDCASPT2/iron_oxo_DDCASPT2/cluster/1.61/GMJ_IVECX_D.csv

>>> COPY /tmp/1.61/GMJ_IVECC2_D.csv /home/grierjones/DDCASPT2/iron_oxo_DDCASPT2/cluster/1.61/GMJ_IVECC2_D.csv

>>> COPY /tmp/1.61/GMJ_e2_D.csv /home/grierjones/DDCASPT2/iron_oxo_DDCASPT2/cluster/1.61/GMJ_e2_D.csv

>>> END FOREACH

.########################.
.# Non-zero return code #.
.########################.

    Timing: Wall=427.67 User=424.55 System=2.97
************************************
*** WorkDir at /tmp/1.61 cleaned ***
************************************
