****************************************************************************************************
*** WorkDir at /lustre/isaac/scratch/gjones39/scpfiles/ANO-RCC-VTZP/ozone_115.25/3252696 cleaned ***
****************************************************************************************************
   This run of MOLCAS is using the pymolcas driver

                             OPE
                             OPE          NMOL  CASOP  ENMOLC A   SO
                 OPE        NMOLC        AS  OP EN  MO LC     AS  OP
                OPENM       OL CA        SO  PE NM  OL CA     SOP EN
                OP EN      MO   LC       AS  OP ENMOL  CASO   PENMOL
                OP  EN     MO   LC       AS  OP EN     MO     LC ASO
               OP   E  NMOL  C  AS       OP  EN MO     LC     AS  OP
               OP  E   NMO   LC AS        OPEN  MO     LCASOP EN   M
               O  PEN   MO  LCA  SO
            OPE   NMO   L   CAS    OP
        OPENMOL  CASOP     ENMOL   CASOPE
     OPENMOLCA   SOPENMOLCASOPEN   MOLCASOPE
    OPENMOLCAS   OP           EN   MOL    CAS
    OPENMOLCAS       OP  ENM        O     LCA
    OPENMOLCAS    OPEN  MOLCASO     P  E  NMO
    OPENMOLCAS     OP               E  N  MOL
    OPENMOLCA   SO           PENM   O  L  CAS    OPEN    MO    LCAS
    OPENMOLCA   SOP           ENM   O  L  CAS   OP  EN  MOLC  AS   O
    OPENMOLCA   SOPE           NM      O  LCA   S      OP  EN MO
    OPENMOLC                AS         O  PEN   M      OL  CA  SOPE
    OPENMO        LCASOPE  NMOL        C  ASO   P      ENMOLC     AS
    OPE     NMO      LCA  SO     P     E   NM   OL  CA SO  PE N   MO
          OPENMOLCA            SOPE   NMO        LCAS  O    P  ENMO
     OPENMOLCASOPENMOLCASOPENMOLCASOPENMOLCA
        OPENMOLCASOPENMOLCASOPENMOLCASOPE
            OPENMOLCASOPENMOLCASOPENM
               OPENMOLCASOPENMOLCA        version: f37762c57-dirty
                   OPENMOLCASO
                       OPE                tag:

 OpenMolcas is free software; you can redistribute it and/or modify it
 under the terms of the GNU Lesser General Public License version 2.1.
 OpenMolcas is distributed in the hope that it will be useful, but it
 is provided "as is" and without any express or implied warranties.
 For more details see the full text of the license in the file
 LICENSE or in <http://www.gnu.org/licenses/>.

                 Copyright (C) The OpenMolcas Authors
           For the author list and the recommended citation,
                   consult the file CONTRIBUTORS.md

           *************************************************
           * pymolcas version py2.05                       *
           *   build c53fbf9a0f911de0c7c16766b0715e61      *
           *   (after the EMIL interpreter by V. Veryazov) *
           *************************************************

configuration info
------------------
C Compiler ID: GNU
C flags: -std=gnu99
Fortran Compiler ID: Intel
Fortran flags: -fpp -i8 -r8 -heap-arrays
Definitions: _MOLCAS_;_I8_;_LINUX_
Parallel: OFF (GA=OFF)


   ------------------------------------------------------------------------------------------------
  |
  |              Project: ozone_115.25
  |       Submitted from: /lustre/isaac/scratch/gjones39/scpfiles/ANO-RCC-VTZP/ozone_115.25
  |         Scratch area: /lustre/isaac/scratch/gjones39/scpfiles/ANO-RCC-VTZP/ozone_115.25/3252696
  |      Save outputs to: /lustre/isaac/scratch/gjones39/scpfiles/ANO-RCC-VTZP/ozone_115.25
  |               Molcas: /lustre/isaac/proj/UTK0022/Grier2025/Test/build
  |
  | Scratch area is empty
  |
  |       MOLCAS_DRIVER = /nfs/home/gjones39/bin/pymolcas
  | MOLCAS_KEEP_WORKDIR = NO
  |      MOLCAS_MAXITER = 100
  |  MOLCAS_NEW_WORKDIR = YES
  |       MOLCAS_NPROCS = 1
  |       MOLCAS_SOURCE = /lustre/isaac/proj/UTK0022/Grier2025/Test
  |    MOLCAS_STRUCTURE = 0
  |
   ------------------------------------------------------------------------------------------------

++ ---------   Input file   ---------

&GATEWAY
coord=ozone_115.25.xyz
Basis = ANO-RCC-VTZP
Group = nosymm
End of Input

&SEWARD
End of Input

&SCF
FileOrb
/lustre/isaac/scratch/gjones39/scpfiles/ANO-RCC-VTZP/ozone_115.00/ozone_115.00.ScfOrb

>>> COPY $WorkDir/ozone_115.25.scf.h5 $CurrDir/

&RASSCF
Title= RASSCF
ITERation
200 100
CIMX
200
SDAV
500
FileOrb
/lustre/isaac/scratch/gjones39/scpfiles/ANO-RCC-VTZP/ozone_115.00/ozone_115.00.RasOrb
CIROOT
3 3 1
NACTEL
12 0 0
Inactive
6
RAS2
9
Symmetry
1
Spin
1
orblisting
all

>>> COPY $WorkDir/ozone_115.25.rasscf.h5 $CurrDir/

>>> COPY $WorkDir/GMJ_Fock_MO.csv $CurrDir/ozone_115.25.GMJ_Fock_MO.csv

&MOTRA
Frozen=0
LUMORB

>>> COPY $WorkDir/GMJ_one_int_indx.csv $CurrDir/ozone_115.25.GMJ_one_int_indx.csv

>>> COPY $WorkDir/GMJ_one_int.csv $CurrDir/ozone_115.25.GMJ_one_int.csv

>>> COPY $WorkDir/GMJ_two_int_indx.csv $CurrDir/ozone_115.25.GMJ_two_int_indx.csv

>>> COPY $WorkDir/GMJ_two_int.csv $CurrDir/ozone_115.25.GMJ_two_int.csv

&CASPT2

Multistate
ALL

Frozen
0

MAXITER
50

>>> FOREACH k IN (1,2,3)

  >>> FOREACH i IN (B,E,F,G,H)

    >>> FOREACH j IN (P,M)

      >>> IF (-FILE GMJ_e2_${i}_${j}_${k}_.csv)

        >>> COPY $WorkDir/GMJ_RHS_${i}_${j}_${k}_.csv $CurrDir/GMJ_RHS_${i}_${j}_${k}_.csv

        >>> COPY $WorkDir/GMJ_IVECW_${i}_${j}_${k}_.csv $CurrDir/GMJ_IVECW_${i}_${j}_${k}_.csv

        >>> COPY $WorkDir/GMJ_IVECX_${i}_${j}_${k}_.csv $CurrDir/GMJ_IVECX_${i}_${j}_${k}_.csv

        >>> COPY $WorkDir/GMJ_IVECC2_${i}_${j}_${k}_.csv $CurrDir/GMJ_IVECC2_${i}_${j}_${k}_.csv

        >>> COPY $WorkDir/GMJ_e2_${i}_${j}_${k}_.csv $CurrDir/GMJ_e2_${i}_${j}_${k}_.csv

      >>> END IF

    >>> END FOREACH

  >>> END FOREACH

>>> END FOREACH

>>> FOREACH j IN (1,2,3)

  >>> FOREACH i IN (A,C,D)

    >>> IF (-FILE GMJ_e2_${i}_${j}_.csv)

      >>> COPY $WorkDir/GMJ_RHS_${i}_${j}_.csv $CurrDir/GMJ_RHS_${i}_${j}_.csv

      >>> COPY $WorkDir/GMJ_IVECW_${i}_${j}_.csv $CurrDir/GMJ_IVECW_${i}_${j}_.csv

      >>> COPY $WorkDir/GMJ_IVECX_${i}_${j}_.csv $CurrDir/GMJ_IVECX_${i}_${j}_.csv

      >>> COPY $WorkDir/GMJ_IVECC2_${i}_${j}_.csv $CurrDir/GMJ_IVECC2_${i}_${j}_.csv

      >>> COPY $WorkDir/GMJ_e2_${i}_${j}_.csv $CurrDir/GMJ_e2_${i}_${j}_.csv

    >>> END IF

  >>> END FOREACH

>>> END FOREACH

-- ----------------------------------

--- Start Module: gateway at Mon May 12 21:24:21 2025 ---
 
()()()()()()()()()()()()()()()()()()()()()()()()()()()()()()()()()()()()()()()()()()()()()()()()()()

                                              &GATEWAY

                                   only a single process is used
                       available to each process: 62 GB of memory, 1 thread?
()()()()()()()()()()()()()()()()()()()()()()()()()()()()()()()()()()()()()()()()()()()()()()()()()()
 
 
++    Symmetry information:
      ---------------------
 
                    Character Table for C1 
 
                             E  
                    a        1  x, y, xy, Rz, z, xz, Ry, yz, Rx, I
--
 
 
++    Basis set information:
      ----------------------
 
 
      Basis set label: O.ANO-RCC...4S3P2D1F.
 
      Electronic valence basis set:
      ------------------
      Associated Effective Charge   8.000000 au
      Associated Actual Charge      8.000000 au
      Nuclear Model: Point charge
 
      Shell  nPrim  nBasis  Cartesian Spherical Contaminant
         s      14       4        X                  
         p       9       3        X                  
         d       4       2                 X         
         f       3       1                 X         
--
 
 
++    Molecular structure info:
      -------------------------
 
                    ************************************************ 
                    **** Cartesian Coordinates / Bohr, Angstrom **** 
                    ************************************************ 
 
     Center  Label                x              y              z                     x              y              z
        1      O1               1.293170       2.039676       0.000000              0.684316       1.079350       0.000000
        2      O2               0.000000       0.000000       0.000000              0.000000       0.000000       0.000000
        3      O3               1.293170      -2.039676       0.000000              0.684316      -1.079350       0.000000
 
                    *************************************** 
                    *    InterNuclear Distances / Bohr    * 
                    *************************************** 
 
               1 O1            2 O2            3 O3    
    1 O1       0.000000
    2 O2       2.415071        0.000000
    3 O3       4.079352        2.415071        0.000000
 
                    ******************************************* 
                    *    InterNuclear Distances / Angstrom    * 
                    ******************************************* 
 
               1 O1            2 O2            3 O3    
    1 O1       0.000000
    2 O2       1.278000        0.000000
    3 O3       2.158700        1.278000        0.000000
 
                    ************************************** 
                    *    Valence Bond Angles / Degree    * 
                    ************************************** 
                          Atom centers                 Phi
                      1 O1       2 O2       3 O3       115.25
--
 
 
            Nuclear Potential Energy             68.68928833 au
 
--- Stop Module: gateway at Mon May 12 21:24:25 2025 /rc=_RC_ALL_IS_WELL_ ---
*** files: xmldump
    saved to directory /lustre/isaac/scratch/gjones39/scpfiles/ANO-RCC-VTZP/ozone_115.25
--- Module gateway spent 3 seconds ---

--- Start Module: seward at Mon May 12 21:24:25 2025 ---
 
()()()()()()()()()()()()()()()()()()()()()()()()()()()()()()()()()()()()()()()()()()()()()()()()()()

                                              &SEWARD

                                   only a single process is used
                       available to each process: 62 GB of memory, 1 thread?
()()()()()()()()()()()()()()()()()()()()()()()()()()()()()()()()()()()()()()()()()()()()()()()()()()
 
               SEWARD will generate:
                  Multipole Moment integrals up to order  2
                  Kinetic Energy integrals
                  Nuclear Attraction integrals (point charge)
                  One-Electron Hamiltonian integrals
                  Velocity integrals
                  Relativistic Douglas-Kroll-Hess integrals:
                    - Parametrization         : EXP
                    - DKH order of Hamiltonian: 2
                    - DKH order of Properties : 0
                         - multipole moment operators
                         - electric potential operators
                         - contact operators
                  Atomic mean-field integrals
                  Two-Electron Repulsion integrals
 
                   Integrals are discarded if absolute value <: 0.10E-13
                   Integral cutoff threshold is set to       <: 0.10E-15
 
            Nuclear Potential Energy             68.68928833 au
 
 
      Basis set specifications :
      Symmetry species         a  
      Basis functions           90
 
 
  Input file to MOLDEN was generated!
 
--- Stop Module: seward at Mon May 12 21:24:34 2025 /rc=_RC_ALL_IS_WELL_ ---
*** files: ozone_115.25.GssOrb ozone_115.25.guessorb.h5 ozone_115.25.guessorb.molden xmldump
    saved to directory /lustre/isaac/scratch/gjones39/scpfiles/ANO-RCC-VTZP/ozone_115.25
--- Module seward spent 9 seconds ---

*** symbolic link created: INPORB -> ozone_115.25.GssOrb
--- Start Module: scf at Mon May 12 21:24:34 2025 ---
 
()()()()()()()()()()()()()()()()()()()()()()()()()()()()()()()()()()()()()()()()()()()()()()()()()()

                                                &SCF

                                   only a single process is used
                       available to each process: 62 GB of memory, 1 thread?
()()()()()()()()()()()()()()()()()()()()()()()()()()()()()()()()()()()()()()()()()()()()()()()()()()
 
++    Input section:
      --------------
 
      Header of the integral files:
      
       Integrals generated by seward 4.2.0  , Mon May 12 21:24:25 2025
 
 
      Cartesian coordinates in Angstrom:
      -----------------------------------------------------
      No.  Label        X            Y            Z        
      -----------------------------------------------------
       1   O1         0.68431600   1.07935000   0.00000000
       2   O2         0.00000000   0.00000000   0.00000000
       3   O3         0.68431600  -1.07935000   0.00000000
      -----------------------------------------------------
      Nuclear repulsion energy =   68.68928833
--
 
++    Orbital specifications:
      -----------------------
 
      Symmetry species               1
                                     a
      Frozen orbitals                0
      Occupied orbitals             12
      Secondary orbitals            78
      Deleted orbitals               0
      Total number of orbitals      90
      Number of basis functions     90
--
 
      Molecular charge                           0.000
 
++    Optimization specifications:
      ----------------------------
 
      SCF Algorithm: Conventional
      Minimized density differences are used
      Number of density matrices in core                5
      Maximum number of NDDO SCF iterations           400
      Maximum number of HF SCF iterations             400
      Threshold for SCF energy change            0.10E-08
      Threshold for density matrix               0.10E-03
      Threshold for Fock matrix                  0.15E-03
      Threshold for linear dependence            0.10E-08
      Threshold at which DIIS is turned on       0.15E+00
      Threshold at which QNR/C2DIIS is turned on 0.75E-01
      Threshold for Norm(delta) (QNR/C2DIIS)     0.20E-04
      DIIS extrapolation of the SCF procedure
      All orbitals punched on: SCFORB
--
 
      Input vectors read from INPORB
      Orbital file label: * SCF orbitals
 
 
++ Convergence information
                                   SCF        iterations: Energy and convergence statistics
 
Iter     Tot. SCF        One-elec.       Two-elec.     Energy      Max Dij or  Max Fij      DNorm      TNorm      AccCon     Time
         Energy          Energy          Energy        Change      Delta Norm                                                in Sec.
   1  -224.513259922  -445.040262095   151.837713845   0.00E+00    0.90E-03*   0.45E-03*    0.75E+01   0.11E+03   None         0.
   2  -224.513265303  -445.040058580   151.837504949  -0.54E-05*   0.56E-03*   0.28E-03*    0.71E-02   0.11E+03   EDIIS        0.
   3  -224.513266400  -445.040729731   151.838175003  -0.11E-05*   0.52E-03*   0.27E-03*    0.14E-02   0.11E+03   c2DIIS       0.
   4  -224.513266688  -445.039680423   151.837125407  -0.29E-06*   0.40E-03*   0.18E-03*    0.14E-02   0.11E+03   QNRc2DIIS    0.
   5  -224.513266696  -445.041246200   151.838691176  -0.86E-08*   0.20E-03*   0.20E-03*    0.46E-03   0.11E+03   QNRc2DIIS    0.
   6  -224.513266893  -445.040464180   151.837908959  -0.20E-06*   0.85E-04*   0.20E-04     0.44E-04   0.11E+03   QNRc2DIIS    0.
   7  -224.513266899  -445.040448396   151.837893169  -0.64E-08*   0.28E-05    0.86E-06     0.41E-04   0.11E+03   QNRc2DIIS    0.
   8  -224.513266899  -445.040453090   151.837897863  -0.13E-10    0.16E-05    0.41E-06     0.21E-03   0.11E+03   QNRc2DIIS    0.
 
       Convergence after  8 Macro Iterations
--
 
 *****************************************************************************************************************************
 *                                                                                                                           *
 *                                             SCF/KS-DFT Program, Final results                                             *
 *                                                                                                                           *
 *                                                                                                                           *
 *                                                                                                                           *
 *                                                       Final Results                                                       *
 *                                                                                                                           *
 *****************************************************************************************************************************
 
::    Total SCF energy                               -224.5132668991
      One-electron energy                            -445.0404530901
      Two-electron energy                             151.8378978630
      Nuclear repulsion energy                         68.6892883280
      Kinetic energy (interpolated)                   225.0555660338
      Virial theorem                                    0.9975903767
      Total spin, S(S+1)                                0.0000000000
      Total spin, S                                     0.0000000000
      Max non-diagonal density matrix element           0.0000023570
      Max non-diagonal Fock matrix element              0.0000004463
 
 
      All orbitals with orbital energies smaller than  E(LUMO)+0.5 are printed
 
++    Molecular orbitals:
      -------------------
 
      Title: SCF orbitals

      Molecular orbitals for symmetry species 1: a  
 
          Orbital            1         2         3         4         5         6         7         8         9        10    
          Energy          -20.9358  -20.7249  -20.7249   -1.7501   -1.4289   -1.0997   -0.8314   -0.7991   -0.7804   -0.5629
          Occ. No.          2.0000    2.0000    2.0000    2.0000    2.0000    2.0000    2.0000    2.0000    2.0000    2.0000
 
        1 O1     1s         0.0022   -0.7092    0.7035   -0.0136    0.0117    0.0093   -0.0130   -0.0230    0.0000    0.0059
        2 O1     2s         0.0037    0.0050   -0.0052    0.3342   -0.5748    0.5843   -0.2757   -0.4276   -0.0000    0.0430
        3 O1     3s         0.0022    0.0036   -0.0037   -0.0104    0.0189    0.0158   -0.0268   -0.0518    0.0000    0.0168
        4 O1     4s         0.0004    0.0007   -0.0007   -0.0008    0.0041    0.0025   -0.0052   -0.0111    0.0000    0.0041
        5 O1     2px       -0.0010   -0.0014    0.0013   -0.0561    0.0651    0.1068    0.1274   -0.3345   -0.0000   -0.5206
        6 O1     3px       -0.0007   -0.0015    0.0013    0.0122   -0.0090   -0.0177   -0.0046    0.0307    0.0000   -0.0146
        7 O1     4px        0.0001    0.0007   -0.0008    0.0025   -0.0001    0.0008   -0.0001    0.0022    0.0000    0.0030
        8 O1     2py       -0.0021   -0.0020    0.0022   -0.1078    0.0639    0.0773   -0.3578   -0.2455   -0.0000    0.5165
        9 O1     3py       -0.0012   -0.0021    0.0022    0.0156   -0.0137   -0.0131    0.0363    0.0355   -0.0000   -0.0018
       10 O1     4py        0.0005    0.0013   -0.0013    0.0007   -0.0035    0.0011    0.0034    0.0029   -0.0000   -0.0035
       11 O1     2pz       -0.0000   -0.0000   -0.0000    0.0000   -0.0000   -0.0000    0.0000   -0.0000    0.3713    0.0000
       12 O1     3pz        0.0000    0.0000    0.0000    0.0000   -0.0000   -0.0000    0.0000   -0.0000   -0.0190    0.0000
       13 O1     4pz        0.0000   -0.0000    0.0000   -0.0000    0.0000   -0.0000    0.0000   -0.0000   -0.0068   -0.0000
       14 O1     3d2-       0.0004    0.0011   -0.0011    0.0176   -0.0152   -0.0119    0.0083    0.0286    0.0000   -0.0029
       15 O1     4d2-       0.0002    0.0005   -0.0006    0.0021   -0.0018   -0.0008    0.0011    0.0025    0.0000    0.0004
       16 O1     3d1-       0.0000    0.0000    0.0000    0.0000    0.0000    0.0000    0.0000    0.0000   -0.0265   -0.0000
       17 O1     4d1-       0.0000    0.0000   -0.0000   -0.0000    0.0000    0.0000    0.0000    0.0000   -0.0038    0.0000
       18 O1     3d0       -0.0003   -0.0005    0.0005   -0.0104    0.0089    0.0034   -0.0095   -0.0147   -0.0000    0.0040
       19 O1     4d0       -0.0002   -0.0004    0.0004   -0.0002    0.0010   -0.0002   -0.0004   -0.0010   -0.0000    0.0002
       20 O1     3d1+       0.0000    0.0000    0.0000    0.0000    0.0000   -0.0000    0.0000    0.0000   -0.0178   -0.0000
       21 O1     4d1+       0.0000    0.0000    0.0000   -0.0000   -0.0000   -0.0000    0.0000    0.0000   -0.0035   -0.0000
       22 O1     3d2+      -0.0005   -0.0005    0.0005   -0.0107    0.0039    0.0005   -0.0245   -0.0039   -0.0000    0.0177
       23 O1     4d2+      -0.0003   -0.0003    0.0003   -0.0010    0.0007    0.0005   -0.0019    0.0001   -0.0000    0.0031
       24 O1     4f3-       0.0001   -0.0000    0.0000    0.0002    0.0017    0.0021    0.0056   -0.0034   -0.0000   -0.0049
       25 O1     4f2-       0.0000   -0.0000   -0.0000   -0.0000   -0.0000   -0.0000   -0.0000   -0.0000    0.0064    0.0000
       26 O1     4f1-       0.0000    0.0002   -0.0001    0.0030   -0.0025   -0.0006    0.0022    0.0030    0.0000   -0.0006
       27 O1     4f0       -0.0000    0.0000    0.0000   -0.0000   -0.0000    0.0000    0.0000   -0.0000   -0.0038    0.0000
       28 O1     4f1+       0.0000    0.0001   -0.0001    0.0017   -0.0018   -0.0008    0.0008    0.0020    0.0000   -0.0013
       29 O1     4f2+       0.0000    0.0000   -0.0000   -0.0000    0.0000    0.0000    0.0000    0.0000   -0.0031   -0.0000
       30 O1     4f3+       0.0001    0.0002   -0.0002    0.0060   -0.0049   -0.0020    0.0046    0.0061    0.0000   -0.0030
       31 O2     1s         0.9990    0.0000   -0.0008   -0.0271   -0.0000   -0.0171   -0.0080   -0.0000   -0.0000   -0.0000
       32 O2     2s        -0.0073   -0.0000    0.0107    0.6168    0.0000   -0.6737   -0.0862   -0.0000   -0.0000   -0.0000
       33 O2     3s        -0.0051   -0.0000    0.0062   -0.0667   -0.0000   -0.0140   -0.0131   -0.0000   -0.0000   -0.0000
       34 O2     4s        -0.0012   -0.0000    0.0010   -0.0117   -0.0000   -0.0037   -0.0039   -0.0000   -0.0000   -0.0000
       35 O2     2px       -0.0018   -0.0000    0.0038    0.1080    0.0000    0.2516    0.6532   -0.0000   -0.0000    0.0000
       36 O2     3px       -0.0024   -0.0000    0.0023   -0.0392   -0.0000   -0.0347   -0.0672    0.0000   -0.0000   -0.0000
       37 O2     4px        0.0017    0.0000   -0.0008   -0.0024   -0.0000    0.0009   -0.0090    0.0000   -0.0000    0.0000
       38 O2     2py       -0.0000   -0.0055   -0.0000    0.0000   -0.3294   -0.0000    0.0000    0.5651    0.0000   -0.1467
       39 O2     3py       -0.0000   -0.0033   -0.0000   -0.0000    0.0619    0.0000   -0.0000   -0.0566   -0.0000   -0.0093
       40 O2     4py        0.0000    0.0012    0.0000   -0.0000   -0.0015    0.0000   -0.0000   -0.0093   -0.0000   -0.0012
       41 O2     2pz        0.0000    0.0000    0.0000    0.0000    0.0000    0.0000   -0.0000   -0.0000    0.6906   -0.0000
       42 O2     3pz        0.0000    0.0000    0.0000    0.0000    0.0000    0.0000   -0.0000    0.0000   -0.0460   -0.0000
       43 O2     4pz        0.0000   -0.0000   -0.0000    0.0000    0.0000    0.0000   -0.0000    0.0000   -0.0159   -0.0000
       44 O2     3d2-      -0.0000   -0.0015   -0.0000    0.0000   -0.0420   -0.0000    0.0000    0.0304    0.0000   -0.0403
       45 O2     4d2-      -0.0000   -0.0007   -0.0000    0.0000   -0.0047   -0.0000    0.0000    0.0029   -0.0000   -0.0072
       46 O2     3d1-      -0.0000   -0.0000    0.0000    0.0000   -0.0000   -0.0000    0.0000   -0.0000    0.0000    0.0000
       47 O2     4d1-      -0.0000   -0.0000    0.0000    0.0000    0.0000    0.0000    0.0000   -0.0000    0.0000    0.0000
       48 O2     3d0        0.0006    0.0000   -0.0010   -0.0154   -0.0000   -0.0071   -0.0150    0.0000    0.0000   -0.0000
       49 O2     4d0        0.0006    0.0000   -0.0005    0.0007    0.0000   -0.0005   -0.0010    0.0000    0.0000   -0.0000
       50 O2     3d1+      -0.0000    0.0000    0.0000    0.0000   -0.0000   -0.0000    0.0000   -0.0000    0.0334    0.0000
       51 O2     4d1+       0.0000    0.0000   -0.0000    0.0000   -0.0000   -0.0000    0.0000   -0.0000    0.0051   -0.0000
       52 O2     3d2+       0.0003    0.0000   -0.0007   -0.0092    0.0000    0.0013    0.0221   -0.0000    0.0000   -0.0000
       53 O2     4d2+       0.0000    0.0000   -0.0003   -0.0009    0.0000   -0.0003    0.0026   -0.0000    0.0000   -0.0000
       54 O2     4f3-      -0.0000   -0.0000   -0.0000    0.0000   -0.0002    0.0000   -0.0000   -0.0034   -0.0000   -0.0095
       55 O2     4f2-       0.0000   -0.0000    0.0000    0.0000   -0.0000   -0.0000   -0.0000   -0.0000    0.0000    0.0000
       56 O2     4f1-       0.0000    0.0001    0.0000   -0.0000    0.0050    0.0000   -0.0000   -0.0041   -0.0000    0.0010
       57 O2     4f0        0.0000   -0.0000    0.0000   -0.0000   -0.0000    0.0000    0.0000    0.0000   -0.0064   -0.0000
       58 O2     4f1+       0.0001    0.0000   -0.0001   -0.0034   -0.0000   -0.0006   -0.0025    0.0000    0.0000    0.0000
       59 O2     4f2+      -0.0000    0.0000   -0.0000    0.0000   -0.0000   -0.0000   -0.0000    0.0000   -0.0047    0.0000
       60 O2     4f3+       0.0001    0.0000   -0.0002   -0.0093   -0.0000   -0.0008   -0.0033    0.0000    0.0000   -0.0000
       61 O3     1s         0.0022    0.7035    0.7092   -0.0136   -0.0117    0.0093   -0.0130    0.0230    0.0000   -0.0059
       62 O3     2s         0.0037   -0.0049   -0.0053    0.3342    0.5748    0.5843   -0.2757    0.4276    0.0000   -0.0430
       63 O3     3s         0.0022   -0.0036   -0.0037   -0.0104   -0.0189    0.0158   -0.0268    0.0518    0.0000   -0.0168
       64 O3     4s         0.0004   -0.0007   -0.0007   -0.0008   -0.0041    0.0025   -0.0052    0.0111    0.0000   -0.0041
       65 O3     2px       -0.0010    0.0014    0.0013   -0.0561   -0.0651    0.1068    0.1274    0.3345    0.0000    0.5206
       66 O3     3px       -0.0007    0.0014    0.0013    0.0122    0.0090   -0.0177   -0.0046   -0.0307    0.0000    0.0146
       67 O3     4px        0.0001   -0.0007   -0.0008    0.0025    0.0001    0.0008   -0.0001   -0.0022    0.0000   -0.0030
       68 O3     2py        0.0021   -0.0020   -0.0022    0.1078    0.0639   -0.0773    0.3578   -0.2455   -0.0000    0.5165
       69 O3     3py        0.0012   -0.0021   -0.0022   -0.0156   -0.0137    0.0131   -0.0363    0.0355    0.0000   -0.0018
       70 O3     4py       -0.0005    0.0013    0.0013   -0.0007   -0.0035   -0.0011   -0.0034    0.0029   -0.0000   -0.0035
       71 O3     2pz       -0.0000   -0.0000    0.0000    0.0000    0.0000   -0.0000    0.0000   -0.0000    0.3713   -0.0000
       72 O3     3pz       -0.0000   -0.0000   -0.0000   -0.0000   -0.0000   -0.0000    0.0000    0.0000   -0.0190   -0.0000
       73 O3     4pz       -0.0000    0.0000    0.0000    0.0000    0.0000   -0.0000    0.0000   -0.0000   -0.0068    0.0000
       74 O3     3d2-      -0.0004    0.0010    0.0011   -0.0176   -0.0152    0.0119   -0.0083    0.0286    0.0000   -0.0029
       75 O3     4d2-      -0.0002    0.0005    0.0006   -0.0021   -0.0018    0.0008   -0.0011    0.0025    0.0000    0.0004
       76 O3     3d1-       0.0000   -0.0000    0.0000    0.0000   -0.0000    0.0000    0.0000   -0.0000    0.0265   -0.0000
       77 O3     4d1-       0.0000    0.0000    0.0000    0.0000   -0.0000   -0.0000    0.0000   -0.0000    0.0038   -0.0000
       78 O3     3d0       -0.0003    0.0005    0.0005   -0.0104   -0.0089    0.0034   -0.0095    0.0147    0.0000   -0.0040
       79 O3     4d0       -0.0002    0.0004    0.0004   -0.0002   -0.0010   -0.0002   -0.0004    0.0010   -0.0000   -0.0002
       80 O3     3d1+       0.0000    0.0000   -0.0000   -0.0000    0.0000    0.0000    0.0000    0.0000   -0.0178    0.0000
       81 O3     4d1+       0.0000    0.0000    0.0000    0.0000    0.0000   -0.0000   -0.0000    0.0000   -0.0035   -0.0000
       82 O3     3d2+      -0.0005    0.0005    0.0005   -0.0107   -0.0039    0.0005   -0.0245    0.0039   -0.0000   -0.0177
       83 O3     4d2+      -0.0003    0.0003    0.0003   -0.0010   -0.0007    0.0005   -0.0019   -0.0001   -0.0000   -0.0031
       84 O3     4f3-      -0.0001   -0.0000   -0.0000   -0.0002    0.0017   -0.0021   -0.0056   -0.0034   -0.0000   -0.0049
       85 O3     4f2-       0.0000    0.0000   -0.0000   -0.0000   -0.0000    0.0000    0.0000    0.0000   -0.0064    0.0000
       86 O3     4f1-      -0.0000    0.0002    0.0001   -0.0030   -0.0025    0.0006   -0.0022    0.0030   -0.0000   -0.0006
       87 O3     4f0        0.0000    0.0000   -0.0000   -0.0000    0.0000    0.0000    0.0000    0.0000   -0.0038   -0.0000
       88 O3     4f1+       0.0000   -0.0001   -0.0001    0.0017    0.0018   -0.0008    0.0008   -0.0020   -0.0000    0.0013
       89 O3     4f2+      -0.0000    0.0000   -0.0000   -0.0000   -0.0000   -0.0000    0.0000    0.0000   -0.0031    0.0000
       90 O3     4f3+       0.0001   -0.0002   -0.0002    0.0060    0.0049   -0.0020    0.0046   -0.0061   -0.0000    0.0030
 
          Orbital           11        12        13        14        15        16        17        18        19        20    
          Energy           -0.5571   -0.4872   -0.0500    0.1753    0.1767    0.2367    0.2857    0.3435    0.3835    0.3862
          Occ. No.          2.0000    2.0000    0.0000    0.0000    0.0000    0.0000    0.0000    0.0000    0.0000    0.0000
 
        1 O1     1s         0.0051   -0.0000    0.0000   -0.1888   -0.1433   -0.0000   -0.0014   -0.0187    0.0747    0.0000
        2 O1     2s         0.0346   -0.0000    0.0000   -1.4038   -1.0407   -0.0000    0.0891   -0.0271    0.4091    0.0000
        3 O1     3s         0.0167   -0.0000    0.0000   -0.8129   -0.6050   -0.0000   -0.0854   -0.0395    0.5552    0.0000
        4 O1     4s         0.0045   -0.0000    0.0000   -0.1839   -0.1284   -0.0000   -0.0323   -0.0039    0.1650    0.0000
        5 O1     2px        0.6380   -0.0000    0.0000    0.4973    0.2715   -0.0000   -0.2550   -0.2742    0.2131    0.0000
        6 O1     3px        0.0033    0.0000   -0.0000    0.4345    0.3617    0.0000    0.1459   -0.7400    0.6715    0.0000
        7 O1     4px       -0.0056    0.0000   -0.0000    0.0384    0.0766    0.0000    0.1098   -0.2919    0.2537    0.0000
        8 O1     2py       -0.1430    0.0000   -0.0000    0.5140    0.7586   -0.0000   -0.4532   -0.3025   -0.0763   -0.0000
        9 O1     3py       -0.0143    0.0000   -0.0000    0.6800    0.6351   -0.0000   -0.4556   -0.1870   -0.3026   -0.0000
       10 O1     4py        0.0000    0.0000   -0.0000    0.1158    0.0541   -0.0000   -0.1677   -0.0373   -0.0365   -0.0000
       11 O1     2pz       -0.0000   -0.7091    0.6637    0.0000    0.0000   -0.1667    0.0000   -0.0000    0.0000   -0.1844
       12 O1     3pz        0.0000   -0.0370    0.1622   -0.0000    0.0000    0.2968    0.0000    0.0000    0.0000   -0.9511
       13 O1     4pz        0.0000    0.0064    0.0249   -0.0000    0.0000    0.1834    0.0000    0.0000    0.0000   -0.3798
       14 O1     3d2-      -0.0141   -0.0000    0.0000   -0.0800   -0.0551   -0.0000   -0.0023   -0.0030   -0.0094   -0.0000
       15 O1     4d2-      -0.0015   -0.0000    0.0000   -0.0502   -0.0372   -0.0000    0.0052    0.0143   -0.0134   -0.0000
       16 O1     3d1-       0.0000    0.0214    0.0070   -0.0000   -0.0000    0.0183   -0.0000   -0.0000   -0.0000    0.0016
       17 O1     4d1-       0.0000    0.0054   -0.0001   -0.0000    0.0000    0.0085   -0.0000    0.0000   -0.0000    0.0100
       18 O1     3d0        0.0054    0.0000   -0.0000    0.0540    0.0448    0.0000    0.0139   -0.0040   -0.0133   -0.0000
       19 O1     4d0        0.0003    0.0000   -0.0000    0.0356    0.0285    0.0000    0.0041   -0.0101   -0.0004    0.0000
       20 O1     3d1+       0.0000    0.0139    0.0054   -0.0000   -0.0000    0.0051    0.0000    0.0000   -0.0000    0.0161
       21 O1     4d1+      -0.0000    0.0034   -0.0002    0.0000   -0.0000    0.0002    0.0000    0.0000   -0.0000    0.0142
       22 O1     3d2+      -0.0013    0.0000   -0.0000    0.0362    0.0497    0.0000    0.0361   -0.0013   -0.0747   -0.0000
       23 O1     4d2+      -0.0012    0.0000   -0.0000    0.0215    0.0336    0.0000    0.0115   -0.0010   -0.0446   -0.0000
       24 O1     4f3-       0.0029   -0.0000    0.0000    0.0003   -0.0005    0.0000    0.0011   -0.0049    0.0127    0.0000
       25 O1     4f2-      -0.0000   -0.0048    0.0003   -0.0000    0.0000    0.0022   -0.0000   -0.0000    0.0000   -0.0052
       26 O1     4f1-      -0.0015    0.0000    0.0000   -0.0062   -0.0038   -0.0000    0.0006    0.0049    0.0009   -0.0000
       27 O1     4f0        0.0000    0.0015    0.0014    0.0000   -0.0000   -0.0012    0.0000    0.0000   -0.0000    0.0062
       28 O1     4f1+      -0.0000   -0.0000   -0.0000   -0.0024   -0.0030   -0.0000    0.0000    0.0052   -0.0016   -0.0000
       29 O1     4f2+       0.0000    0.0022   -0.0005   -0.0000   -0.0000   -0.0000   -0.0000    0.0000   -0.0000    0.0019
       30 O1     4f3+      -0.0027   -0.0000    0.0000   -0.0089   -0.0048   -0.0000    0.0043    0.0085    0.0012   -0.0000
       31 O2     1s         0.0195    0.0000   -0.0000    0.0000    0.3144   -0.0000   -0.0803    0.0000   -0.0736   -0.0000
       32 O2     2s         0.2388    0.0000   -0.0000    0.0000    2.2775   -0.0000   -0.6704    0.0000   -0.4736   -0.0000
       33 O2     3s         0.0465    0.0000   -0.0000    0.0000    1.2702   -0.0000   -0.1846    0.0000   -0.2388   -0.0000
       34 O2     4s         0.0115    0.0000   -0.0000    0.0000    0.2714   -0.0000   -0.0378    0.0000   -0.0132    0.0000
       35 O2     2px       -0.4751    0.0000   -0.0000    0.0000    0.8298   -0.0000   -0.3685    0.0000   -0.5955   -0.0000
       36 O2     3px       -0.0003    0.0000    0.0000    0.0000    0.9187   -0.0000    0.2254    0.0000   -1.4820   -0.0000
       37 O2     4px       -0.0008   -0.0000    0.0000    0.0000    0.1466    0.0000    0.1391    0.0000   -0.3596   -0.0000
       38 O2     2py       -0.0000   -0.0000   -0.0000    1.3153   -0.0000    0.0000    0.0000   -0.1672    0.0000   -0.0000
       39 O2     3py       -0.0000   -0.0000   -0.0000    1.2571   -0.0000    0.0000    0.0000    0.4986    0.0000   -0.0000
       40 O2     4py       -0.0000   -0.0000   -0.0000    0.1308   -0.0000    0.0000    0.0000    0.2348    0.0000   -0.0000
       41 O2     2pz        0.0000    0.0000   -0.8538   -0.0000   -0.0000    0.0377   -0.0000   -0.0000   -0.0000    0.0000
       42 O2     3pz        0.0000    0.0000   -0.1831   -0.0000   -0.0000    0.4172   -0.0000   -0.0000   -0.0000    0.0000
       43 O2     4pz        0.0000   -0.0000   -0.0216   -0.0000    0.0000    0.2138   -0.0000   -0.0000   -0.0000    0.0000
       44 O2     3d2-      -0.0000   -0.0000   -0.0000    0.1414   -0.0000    0.0000    0.0000    0.0872    0.0000   -0.0000
       45 O2     4d2-      -0.0000    0.0000   -0.0000    0.0885   -0.0000    0.0000    0.0000    0.0647    0.0000   -0.0000
       46 O2     3d1-      -0.0000   -0.0571   -0.0000    0.0000    0.0000   -0.0000   -0.0000    0.0000   -0.0000    0.0922
       47 O2     4d1-      -0.0000   -0.0135   -0.0000    0.0000    0.0000   -0.0000   -0.0000    0.0000   -0.0000    0.0554
       48 O2     3d0        0.0178   -0.0000    0.0000   -0.0000   -0.0855   -0.0000   -0.0539   -0.0000    0.1197    0.0000
       49 O2     4d0        0.0020   -0.0000    0.0000   -0.0000   -0.0560   -0.0000   -0.0285   -0.0000    0.0741    0.0000
       50 O2     3d1+      -0.0000    0.0000    0.0079    0.0000   -0.0000   -0.0277    0.0000   -0.0000    0.0000    0.0000
       51 O2     4d1+       0.0000    0.0000    0.0017    0.0000   -0.0000   -0.0100    0.0000   -0.0000    0.0000    0.0000
       52 O2     3d2+       0.0401   -0.0000    0.0000   -0.0000   -0.0403   -0.0000   -0.0679    0.0000   -0.0353   -0.0000
       53 O2     4d2+       0.0087   -0.0000    0.0000   -0.0000   -0.0198   -0.0000   -0.0273    0.0000   -0.0372   -0.0000
       54 O2     4f3-      -0.0000    0.0000    0.0000   -0.0039    0.0000   -0.0000   -0.0000    0.0059    0.0000   -0.0000
       55 O2     4f2-      -0.0000   -0.0087   -0.0000    0.0000    0.0000   -0.0000   -0.0000   -0.0000   -0.0000    0.0081
       56 O2     4f1-       0.0000    0.0000    0.0000   -0.0076    0.0000   -0.0000   -0.0000   -0.0127   -0.0000    0.0000
       57 O2     4f0        0.0000   -0.0000   -0.0019    0.0000   -0.0000   -0.0032    0.0000    0.0000    0.0000   -0.0000
       58 O2     4f1+      -0.0002   -0.0000    0.0000   -0.0000   -0.0078   -0.0000   -0.0064   -0.0000    0.0153    0.0000
       59 O2     4f2+       0.0000   -0.0000    0.0009    0.0000   -0.0000   -0.0014    0.0000    0.0000    0.0000   -0.0000
       60 O2     4f3+       0.0065   -0.0000    0.0000   -0.0000   -0.0122   -0.0000   -0.0077   -0.0000    0.0159    0.0000
       61 O3     1s         0.0051   -0.0000   -0.0000    0.1888   -0.1433    0.0000   -0.0014    0.0187    0.0747    0.0000
       62 O3     2s         0.0346   -0.0000   -0.0000    1.4038   -1.0407    0.0000    0.0891    0.0271    0.4091    0.0000
       63 O3     3s         0.0167   -0.0000   -0.0000    0.8129   -0.6050    0.0000   -0.0854    0.0395    0.5552    0.0000
       64 O3     4s         0.0045   -0.0000   -0.0000    0.1839   -0.1284    0.0000   -0.0323    0.0039    0.1650    0.0000
       65 O3     2px        0.6380    0.0000    0.0000   -0.4973    0.2716   -0.0000   -0.2550    0.2742    0.2131    0.0000
       66 O3     3px        0.0033    0.0000   -0.0000   -0.4345    0.3618   -0.0000    0.1459    0.7400    0.6715    0.0000
       67 O3     4px       -0.0056    0.0000   -0.0000   -0.0384    0.0766    0.0000    0.1098    0.2919    0.2537    0.0000
       68 O3     2py        0.1430    0.0000   -0.0000    0.5140   -0.7587    0.0000    0.4532   -0.3025    0.0763    0.0000
       69 O3     3py        0.0143   -0.0000   -0.0000    0.6800   -0.6351    0.0000    0.4556   -0.1870    0.3026    0.0000
       70 O3     4py       -0.0000    0.0000   -0.0000    0.1158   -0.0541    0.0000    0.1677   -0.0373    0.0365    0.0000
       71 O3     2pz        0.0000    0.7091    0.6637    0.0000   -0.0000   -0.1667    0.0000    0.0000   -0.0000    0.1844
       72 O3     3pz       -0.0000    0.0370    0.1622   -0.0000    0.0000    0.2968   -0.0000    0.0000   -0.0000    0.9511
       73 O3     4pz       -0.0000   -0.0064    0.0249   -0.0000    0.0000    0.1834   -0.0000    0.0000   -0.0000    0.3798
       74 O3     3d2-       0.0141    0.0000   -0.0000   -0.0800    0.0551   -0.0000    0.0023   -0.0030    0.0094    0.0000
       75 O3     4d2-       0.0015    0.0000   -0.0000   -0.0502    0.0372   -0.0000   -0.0052    0.0143    0.0134    0.0000
       76 O3     3d1-       0.0000    0.0214   -0.0070    0.0000    0.0000   -0.0183    0.0000    0.0000    0.0000    0.0016
       77 O3     4d1-       0.0000    0.0054    0.0001    0.0000    0.0000   -0.0085    0.0000    0.0000   -0.0000    0.0100
       78 O3     3d0        0.0054    0.0000   -0.0000   -0.0540    0.0448   -0.0000    0.0139    0.0040   -0.0133   -0.0000
       79 O3     4d0        0.0003    0.0000    0.0000   -0.0356    0.0285   -0.0000    0.0041    0.0101   -0.0004    0.0000
       80 O3     3d1+       0.0000   -0.0139    0.0054   -0.0000   -0.0000    0.0051   -0.0000   -0.0000    0.0000   -0.0161
       81 O3     4d1+       0.0000   -0.0034   -0.0002   -0.0000   -0.0000    0.0002    0.0000   -0.0000    0.0000   -0.0142
       82 O3     3d2+      -0.0013    0.0000    0.0000   -0.0362    0.0497    0.0000    0.0361    0.0013   -0.0747   -0.0000
       83 O3     4d2+      -0.0012    0.0000    0.0000   -0.0215    0.0336   -0.0000    0.0115    0.0010   -0.0446   -0.0000
       84 O3     4f3-      -0.0029   -0.0000   -0.0000    0.0003    0.0005   -0.0000   -0.0011   -0.0049   -0.0127   -0.0000
       85 O3     4f2-       0.0000   -0.0048   -0.0003   -0.0000   -0.0000   -0.0022    0.0000   -0.0000    0.0000   -0.0052
       86 O3     4f1-       0.0015   -0.0000    0.0000   -0.0062    0.0038   -0.0000   -0.0006    0.0049   -0.0009   -0.0000
       87 O3     4f0        0.0000   -0.0015    0.0014   -0.0000   -0.0000   -0.0012    0.0000   -0.0000    0.0000   -0.0062
       88 O3     4f1+      -0.0000   -0.0000    0.0000    0.0024   -0.0030    0.0000    0.0000   -0.0052   -0.0016   -0.0000
       89 O3     4f2+       0.0000   -0.0022   -0.0005   -0.0000    0.0000   -0.0000   -0.0000   -0.0000    0.0000   -0.0019
       90 O3     4f3+      -0.0027    0.0000   -0.0000    0.0089   -0.0048    0.0000    0.0043   -0.0085    0.0012    0.0000
 
          Orbital           21        22    
          Energy            0.4209    0.4365
          Occ. No.          0.0000    0.0000
 
        1 O1     1s        -0.0306   -0.0039
        2 O1     2s        -0.1434   -0.0969
        3 O1     3s        -0.1347    0.1636
        4 O1     4s        -0.0078    0.0525
        5 O1     2px        0.1843    0.3404
        6 O1     3px        0.4746   -0.1848
        7 O1     4px        0.0972   -0.0882
        8 O1     2py       -0.0728    0.1349
        9 O1     3py        0.7589   -0.4996
       10 O1     4py        0.2433   -0.1718
       11 O1     2pz       -0.0000    0.0000
       12 O1     3pz       -0.0000    0.0000
       13 O1     4pz        0.0000    0.0000
       14 O1     3d2-      -0.1391    0.0925
       15 O1     4d2-      -0.0902    0.0504
       16 O1     3d1-       0.0000   -0.0000
       17 O1     4d1-       0.0000   -0.0000
       18 O1     3d0        0.0441   -0.0729
       19 O1     4d0        0.0275   -0.0440
       20 O1     3d1+      -0.0000   -0.0000
       21 O1     4d1+      -0.0000    0.0000
       22 O1     3d2+       0.0589   -0.0116
       23 O1     4d2+       0.0319   -0.0145
       24 O1     4f3-       0.0011   -0.0026
       25 O1     4f2-      -0.0000    0.0000
       26 O1     4f1-      -0.0085    0.0094
       27 O1     4f0        0.0000   -0.0000
       28 O1     4f1+      -0.0062    0.0059
       29 O1     4f2+       0.0000   -0.0000
       30 O1     4f3+      -0.0174    0.0081
       31 O2     1s         0.1827    0.0000
       32 O2     2s         0.9601    0.0000
       33 O2     3s         0.9415    0.0000
       34 O2     4s         0.2118    0.0000
       35 O2     2px       -0.3627   -0.0000
       36 O2     3px       -0.3317   -0.0000
       37 O2     4px       -0.2031   -0.0000
       38 O2     2py       -0.0000    0.7944
       39 O2     3py       -0.0000    0.2190
       40 O2     4py       -0.0000    0.1105
       41 O2     2pz        0.0000   -0.0000
       42 O2     3pz        0.0000   -0.0000
       43 O2     4pz        0.0000   -0.0000
       44 O2     3d2-       0.0000   -0.1654
       45 O2     4d2-       0.0000   -0.0606
       46 O2     3d1-      -0.0000    0.0000
       47 O2     4d1-      -0.0000    0.0000
       48 O2     3d0       -0.1379   -0.0000
       49 O2     4d0       -0.0557   -0.0000
       50 O2     3d1+       0.0000   -0.0000
       51 O2     4d1+       0.0000   -0.0000
       52 O2     3d2+      -0.0816   -0.0000
       53 O2     4d2+      -0.0307   -0.0000
       54 O2     4f3-       0.0000   -0.0024
       55 O2     4f2-      -0.0000   -0.0000
       56 O2     4f1-       0.0000   -0.0011
       57 O2     4f0       -0.0000    0.0000
       58 O2     4f1+      -0.0014   -0.0000
       59 O2     4f2+      -0.0000    0.0000
       60 O2     4f3+      -0.0061   -0.0000
       61 O3     1s        -0.0306    0.0039
       62 O3     2s        -0.1434    0.0969
       63 O3     3s        -0.1347   -0.1636
       64 O3     4s        -0.0078   -0.0525
       65 O3     2px        0.1843   -0.3404
       66 O3     3px        0.4746    0.1848
       67 O3     4px        0.0972    0.0882
       68 O3     2py        0.0728    0.1349
       69 O3     3py       -0.7589   -0.4996
       70 O3     4py       -0.2433   -0.1718
       71 O3     2pz       -0.0000    0.0000
       72 O3     3pz       -0.0000    0.0000
       73 O3     4pz       -0.0000    0.0000
       74 O3     3d2-       0.1391    0.0925
       75 O3     4d2-       0.0902    0.0504
       76 O3     3d1-      -0.0000    0.0000
       77 O3     4d1-      -0.0000    0.0000
       78 O3     3d0        0.0441    0.0729
       79 O3     4d0        0.0275    0.0440
       80 O3     3d1+       0.0000   -0.0000
       81 O3     4d1+       0.0000   -0.0000
       82 O3     3d2+       0.0589    0.0116
       83 O3     4d2+       0.0319    0.0145
       84 O3     4f3-      -0.0011   -0.0026
       85 O3     4f2-       0.0000   -0.0000
       86 O3     4f1-       0.0085    0.0094
       87 O3     4f0        0.0000   -0.0000
       88 O3     4f1+      -0.0062   -0.0059
       89 O3     4f2+       0.0000   -0.0000
       90 O3     4f3+      -0.0174   -0.0081
--
 
 
++    Molecular charges:
      ------------------
 
      Mulliken charges per centre and basis function type
      ---------------------------------------------------
 
                O1      O2      O3    
      1s       1.9979  1.9980  1.9979
      2s       1.9433  1.7214  1.9433
      2px      1.6736  1.5086  1.6736
      2pz      1.3658  1.1879  1.3658
      2py      1.1597  1.0577  1.1597
      3s      -0.0009 -0.0217 -0.0009
      3px     -0.0110 -0.0123 -0.0110
      3pz     -0.0121 -0.0132 -0.0121
      3py      0.0039  0.0007  0.0039
      4s       0.0045  0.0023  0.0045
      3d2+     0.0099  0.0387  0.0099
      3d1+     0.0048  0.0098  0.0048
      3d0      0.0055  0.0075  0.0055
      3d1-     0.0103  0.0443  0.0103
      3d2-     0.0180  0.0417  0.0180
      4px      0.0008  0.0019  0.0008
      4pz      0.0012  0.0016  0.0012
      4py      0.0023  0.0030  0.0023
      4d2+     0.0000  0.0079  0.0000
      4d1+     0.0009  0.0014  0.0009
      4d0     -0.0001 -0.0001 -0.0001
      4d1-     0.0009  0.0114  0.0009
      4d2-     0.0007  0.0040  0.0007
      4f3+     0.0030  0.0033  0.0030
      4f2+     0.0004  0.0007  0.0004
      4f1+     0.0004  0.0006  0.0004
      4f0      0.0009  0.0016  0.0009
      4f1-     0.0008  0.0011  0.0008
      4f2-     0.0018  0.0045  0.0018
      4f3-     0.0020  0.0072  0.0020
      Total    8.1893  7.6214  8.1893
 
      N-E     -0.1893  0.3786 -0.1893
 
      Total electronic charge=   24.000000
 
      Total            charge=   -0.000000
--
 
 
  Input file to MOLDEN was generated!
 
 
++    Static properties:
      ------------------
 
 
      LoProp Charges per center
 

                   O1       O2       O3    
      Nuclear      8.0000   8.0000   8.0000
      Electronic  -8.2090  -7.5820  -8.2090
 
      Total       -0.2090   0.4180  -0.2090
--
 
 
++    Natural Bond Order analysis
      ---------------------------
      Based on LoProp computed density
      -------------------------------------------------------------------------------------
      Atom A       Atom B       Bond Order | Atom A       Atom B       Bond Order
        O1           O2             1.998  |   O2           O3             1.998
      -------------------------------------------------------------------------------------
      NBO located      9.999 core electrons.
      NBO located      5.938 lone pair electrons.
      NBO located      7.990 electrons involved in    2 bonds.
      The remaining    0.072 electrons are to be considered as diffuse
--
 
 
++    Molecular properties:
      ---------------------
 
      Charge (e):
                      =   -0.0000
      Dipole Moment (Debye):
      Origin of the operator (Ang)=    0.0000    0.0000    0.0000
                   X= -8.3020E-01               Y= -4.4960E-06               Z= -2.8135E-14           Total=  8.3020E-01
      Quadrupole Moment (Debye*Ang):
      Origin of the operator (Ang)=    0.4562    0.0000    0.0000
                  XX= -1.5702E+01              XY= -1.1504E-06              XZ=  6.6937E-14              YY= -1.7365E+01
                  YZ=  1.7183E-16              ZZ= -1.4898E+01
      In traceless form (Debye*Ang)
                  XX=  4.2913E-01              XY= -1.7256E-06              XZ=  1.0041E-13              YY= -2.0646E+00
                  YZ=  2.5775E-16              ZZ=  1.6354E+00
--
 
 
  Input file to MOLDEN was generated!
 
 ###############################################################################
 ###############################################################################
 ###                                                                         ###
 ###                                                                         ###
 ###    RunFile label nBas                                                   ###
 ###    was used       78 times                                              ###
 ###                                                                         ###
 ###                                                                         ###
 ###############################################################################
 ###############################################################################
--- Stop Module: scf at Mon May 12 21:24:36 2025 /rc=_RC_ALL_IS_WELL_ ---
*** files: ozone_115.25.LprOrb ozone_115.25.LoProp.molden ozone_115.25.scf.molden ozone_115.25.ScfOrb ozone_115.25.scf.h5 xmldump
    saved to directory /lustre/isaac/scratch/gjones39/scpfiles/ANO-RCC-VTZP/ozone_115.25
--- Module scf spent 2 seconds ---

>>> COPY /lustre/isaac/scratch/gjones39/scpfiles/ANO-RCC-VTZP/ozone_115.25/3252696/ozone_115.25.scf.h5 /lustre/isaac/scratch/gjones39/scpfiles/ANO-RCC-VTZP/ozone_115.25/

*** symbolic link created: INPORB -> ozone_115.25.ScfOrb
--- Start Module: rasscf at Mon May 12 21:24:36 2025 ---
 
()()()()()()()()()()()()()()()()()()()()()()()()()()()()()()()()()()()()()()()()()()()()()()()()()()

                                              &RASSCF

                                   only a single process is used
                       available to each process: 62 GB of memory, 1 thread?
()()()()()()()()()()()()()()()()()()()()()()()()()()()()()()()()()()()()()()()()()()()()()()()()()()
 
 
      Header of the ONEINT file:
      --------------------------
      
      Integrals generated by seward 4.2.0  , Mon May 12 21:24:25 2025
 
 
      OrdInt status: non-squared
 
 
      Cartesian coordinates in Angstrom:
      -----------------------------------------------------
      No.  Label        X            Y            Z        
      -----------------------------------------------------
       1   O1         0.68431600   1.07935000   0.00000000
       2   O2         0.00000000   0.00000000   0.00000000
       3   O3         0.68431600  -1.07935000   0.00000000
      -----------------------------------------------------
      Nuclear repulsion energy =   68.68928833
 
++    Wave function specifications:
      -----------------------------
 
      Number of closed shell electrons          12
      Number of electrons in active shells      12
      Max number of holes in RAS1 space          0
      Max nr of electrons in RAS3 space          0
      Number of inactive orbitals                6
      Number of active orbitals                  9
      Number of secondary orbitals              75
      Spin quantum number                      0.0
      State symmetry                             1
--
 
++    Orbital specifications:
      -----------------------
 
      Symmetry species                           1
                                                 a
      Frozen orbitals                            0
      Inactive orbitals                          6
      Active orbitals                            9
      RAS1 orbitals                              0
      RAS2 orbitals                              9
      RAS3 orbitals                              0
      Secondary orbitals                        75
      Deleted orbitals                           0
      Number of basis functions                 90
--
 
++    CI expansion specifications:
      ----------------------------
 
      Number of CSFs                          2520
      Number of determinants                  3570
      Number of root(s) required                 3
      Root chosen for geometry opt.              3
      CI roots used                              1     2     3
      weights                                0.333 0.333 0.333
      highest root included in the CI            3
      max. size of the explicit Hamiltonian    500
--
 
++    Optimization specifications:
      ----------------------------
 
      RASSCF algorithm: Conventional
      Maximum number of macro iterations       200
      Maximum number of SX iterations          100
      Threshold for RASSCF energy            0.100E-07
      Threshold for max MO rotation          0.100E+00
      Threshold for max BLB element          0.100E-03
      Level shift parameter                  0.500E+00
      Make Quasi-Newton update
--
 
      The MO-coefficients are taken from the file:
      /lustre/isaac/scratch/gjones39/scpfiles/ANO-RCC-VTZP/ozone_115.00/ozone_115.00.RasOrb                                           
      Title: RASSCF average (pseudo-natural) orbitals                                      
 
      Total molecular charge    0.00
 
      ************************************************************************************************************************
      *                                                                                                                      *
      *                                            Wave function control section                                             *
      *                                                                                                                      *
      ************************************************************************************************************************
 
 
                                         RASSCF iterations: Energy and convergence statistics
                                         ----------------------------------------------------
 
      Iter CI   SX   CI       RASSCF       Energy    max ROT     max BLB   max BLB  Level Ln srch  Step   QN   Walltime
          iter iter root      energy       change     param      element    value   shift minimum  type update hh:mm:ss
 Nr of preliminary CI iterations:   5
        1   1    6    0  -224.68167204    0.00E+00  -0.47E-03    7  75 1 -0.10E-02*  0.00   0.00    SX    NO    0:00:01
        2   1    6    0  -224.68167432   -0.23E-05*  0.19E-03    4  14 1  0.18E-03*  0.00   0.00    SX    NO    0:00:00
        3   2    5    0  -224.68168050   -0.62E-05*  0.55E-04   10  38 1  0.63E-04   0.00   0.00    SX    NO    0:00:00
        4   6    5    0  -224.68168259   -0.21E-05* -0.11E-03   12  29 1 -0.14E-03*  0.00   0.00    SX    NO    0:00:00
        5   3    5    0  -224.68168270   -0.11E-06* -0.79E-04    6  22 1  0.68E-04   0.00   1.23    QN   YES    0:00:00
        6   4    5    0  -224.68168273   -0.25E-07*  0.14E-04    9  47 1  0.18E-04   0.00   0.90    QN   YES    0:00:00
        7   1    5    0  -224.68168273   -0.19E-08   0.24E-04    6  22 1  0.28E-04   0.00   0.98    QN   YES    0:00:00
      Convergence after  7 iterations
 
  Dmat in MO in SXCTL bf call to SXHAM                                                                                    
  mat. size =     9x    9
 
        1.9621051826428588
        0.0000000000000037      1.9517714932857364
       -0.0000000000000003      0.0000000036526709      1.9748103653172935
        0.0006280707987655      0.0000000000001977      0.0000000000000383      1.6656325366783933
        0.0000000000001751     -0.0005179566120827     -0.0000001078771514     -0.0000000000000160      1.6506557179680084
       -0.0000000036197606      0.0000000000000011      0.0000000000006827     -0.0000000733022225      0.0000000000000143
        1.7842704755458207
        0.0000000000000097     -0.0000000282471082      0.0002837641529779     -0.0000000000000473      0.0000000810746639
        0.0000000000019930      0.9058682781951246
        0.0010698679689446      0.0000000000013070      0.0000000000000058      0.0027541858191637      0.0000000000000695
        0.0000000105700531      0.0000000000000090      0.0571620913839195
        0.0000000000008774     -0.0000767142806569     -0.0000000008862997      0.0000000000002381     -0.0019927331338429
       -0.0000000000000035     -0.0000000085081943      0.0000000000000164      0.0477238589828427
        8   1    5    0  -224.68168273   -0.13E-08   0.24E-04    6  50 1  0.89E-05   0.00   0.98    QN   YES    0:00:00
 
      ************************************************************************************************************************
                                                      Wave function printout:
                       occupation of active orbitals, and spin coupling of open shells (u,d: Spin up or down)
      ************************************************************************************************************************
 
      Note: transformation to natural orbitals
      has been made, which may change the order of the CSFs.
 
      printout of CI-coefficients larger than  0.05 for root  1
      energy=    -224.737806
      conf/sym  111111111     Coeff  Weight
             1  222222000  -0.89676 0.80417
             4  222220200   0.32674 0.10676
            10  2222udud0   0.05161 0.00266
            72  222u2du0d  -0.05529 0.00306
            74  222u2ud0d  -0.05430 0.00295
           126  22u222d00  -0.06783 0.00460
           205  2u222dud0   0.06466 0.00418
           207  2u222udd0   0.05682 0.00323
           551  220222200   0.07013 0.00492
           611  2ud222u0d   0.06479 0.00420
           652  u2d222ud0  -0.06046 0.00366
           731  202222002   0.06442 0.00415
           764  ud22220ud  -0.07355 0.00541
           805  022222020   0.06467 0.00418
           992  2uu222d0d   0.06695 0.00448
          1031  u2u222dd0  -0.05515 0.00304
 
      printout of CI-coefficients larger than  0.05 for root  2
      energy=    -224.659775
      conf/sym  111111111     Coeff  Weight
             3  2222u2d00  -0.87228 0.76087
            52  222u2d200   0.40591 0.16476
           128  22u2d2200   0.05490 0.00301
           277  u2222d200  -0.05668 0.00321
           361  222022u0d  -0.05697 0.00325
           654  u2d2u22d0  -0.05384 0.00290
           733  2022u2d02   0.06600 0.00436
           766  ud22u2dud  -0.07713 0.00595
           807  0222u2d20   0.06929 0.00480
           994  2uu2d220d   0.05961 0.00355
          1033  u2u2d22d0  -0.05268 0.00278
 
      printout of CI-coefficients larger than  0.05 for root  3
      energy=    -224.647467
      conf/sym  111111111     Coeff  Weight
             5  2222ud200   0.43717 0.19112
            51  222u22d00  -0.85977 0.73921
           202  2u222d200  -0.06441 0.00415
          1285  2udu2220d   0.05114 0.00262
          1381  202u22d02   0.06475 0.00419
          1406  ud2u22dud  -0.07668 0.00588
          1442  022u22d20   0.06767 0.00458
          1485  2uud2220d   0.05915 0.00350
          1521  u2ud222d0  -0.05197 0.00270
 
      Natural orbitals and occupation numbers for root  1
      sym 1:   1.955845   1.947943   1.963253   1.992128   1.991959   1.746011   0.290597   0.060871   0.051392
 
      Natural orbitals and occupation numbers for root  2
      sym 1:   1.959832   1.955279   1.983764   1.797729   1.188077   1.818069   1.195747   0.055118   0.046385
 
      Natural orbitals and occupation numbers for root  3
      sym 1:   1.964845   1.952722   1.984573   1.213748   1.772309   1.788732   1.224102   0.054582   0.044387
 
      ************************************************************************************************************************
      *                                                                                                                      *
      *                                                    Final results                                                     *
      *                                                                                                                      *
      ************************************************************************************************************************
 
 
++    Wave function specifications:
      -----------------------------
 
      Number of closed shell electrons          12
      Number of electrons in active shells      12
      Max number of holes in RAS1 space          0
      Max nr of electrons in RAS3 space          0
      Number of inactive orbitals                6
      Number of active orbitals                  9
      Number of secondary orbitals              75
      Spin quantum number                      0.0
      State symmetry                             1
--
 
++    Orbital specifications:
      -----------------------
 
      Symmetry species                           1
                                                 a
      Frozen orbitals                            0
      Inactive orbitals                          6
      Active orbitals                            9
      RAS1 orbitals                              0
      RAS2 orbitals                              9
      RAS3 orbitals                              0
      Secondary orbitals                        75
      Deleted orbitals                           0
      Number of basis functions                 90
--
 
++    CI expansion specifications:
      ----------------------------
 
      Number of CSFs                          2520
      Number of determinants                  3570
      Number of root(s) required                 3
      CI roots used                              1     2     3
      weights                                0.333 0.333 0.333
      highest root included in the CI            3
      Root passed to geometry opt.               3
--
 
++    Final optimization conditions:
      ------------------------------
 
      Average CI energy                            -224.68168273
      RASSCF energy for state  3                   -224.64746703
      Super-CI energy                                -0.00000000
      RASSCF energy change                            0.00000000
      Max change in MO coefficients              -0.183E-04
      Max non-diagonal density matrix element     0.245E-04
      Maximum BLB matrix element                  0.894E-05
      (orbital pair   6,  50 in symmetry   1)
      Norm of electronic gradient            0.651E-01
--
 
 
      Final state energy(ies):
      ------------------------
 
::    RASSCF root number  1 Total energy:   -224.73780628
::    RASSCF root number  2 Total energy:   -224.65977488
::    RASSCF root number  3 Total energy:   -224.64746703
 
++    Molecular orbitals:
      -------------------
 
      Pseudonatural active orbitals and approximate occupation numbers
 
 
 
 
      Molecular orbitals for symmetry species 1: a  
 
 
      Orbital                1         2         3         4         5         6         7         8         9        10
      Energy          -20.7995  -20.6976  -20.6975   -1.5130   -1.2925   -1.0613    0.0000    0.0000    0.0000    0.0000
      Occ. No.          2.0000    2.0000    2.0000    2.0000    2.0000    2.0000    1.9621    1.9518    1.9748    1.6656
 
    1 O1     1s         0.0037   -0.7065    0.7064   -0.0058   -0.0003    0.0103   -0.0175   -0.0243    0.0000    0.0005
    2 O1     2s         0.0042    0.0044   -0.0047    0.4772   -0.7078    0.5416   -0.1043   -0.1070   -0.0000   -0.0388
    3 O1     3s         0.0024    0.0033   -0.0034    0.0035   -0.0078    0.0179   -0.0319   -0.0549    0.0000    0.0107
    4 O1     4s         0.0004    0.0006   -0.0006    0.0016   -0.0009    0.0019   -0.0055   -0.0112    0.0000    0.0035
    5 O1     2px       -0.0011   -0.0011    0.0011   -0.0206   -0.0568    0.0840   -0.0358   -0.2839   -0.0000    0.6730
    6 O1     3px       -0.0008   -0.0013    0.0011    0.0124    0.0049   -0.0202    0.0040    0.0331   -0.0000    0.0007
    7 O1     4px        0.0001    0.0006   -0.0007    0.0016    0.0009    0.0006    0.0005    0.0014    0.0000   -0.0070
    8 O1     2py       -0.0024   -0.0016    0.0018    0.0606   -0.0818    0.0498   -0.3740   -0.3326    0.0000   -0.1647
    9 O1     3py       -0.0014   -0.0019    0.0020   -0.0023    0.0030   -0.0118    0.0433    0.0417   -0.0000   -0.0090
   10 O1     4py        0.0006    0.0012   -0.0012   -0.0016   -0.0016    0.0024    0.0032    0.0036   -0.0000    0.0014
   11 O1     2pz       -0.0000   -0.0000    0.0000   -0.0000   -0.0000   -0.0000   -0.0000    0.0000    0.3364    0.0000
   12 O1     3pz        0.0000   -0.0000   -0.0000   -0.0000    0.0000    0.0000    0.0000   -0.0000   -0.0267   -0.0000
   13 O1     4pz       -0.0000   -0.0000    0.0000   -0.0000    0.0000    0.0000    0.0000   -0.0000   -0.0048   -0.0000
   14 O1     3d2-       0.0005    0.0009   -0.0009    0.0096   -0.0015   -0.0113    0.0150    0.0300   -0.0000   -0.0125
   15 O1     4d2-       0.0002    0.0005   -0.0005    0.0011   -0.0005   -0.0008    0.0013    0.0025   -0.0000   -0.0012
   16 O1     3d1-       0.0000   -0.0000   -0.0000    0.0000    0.0000   -0.0000    0.0000   -0.0000   -0.0230   -0.0000
   17 O1     4d1-      -0.0000   -0.0000    0.0000    0.0000    0.0000   -0.0000    0.0000   -0.0000   -0.0027   -0.0000
   18 O1     3d0       -0.0004   -0.0005    0.0005   -0.0044    0.0014    0.0039   -0.0138   -0.0169    0.0000    0.0026
   19 O1     4d0       -0.0002   -0.0004    0.0003   -0.0001    0.0007   -0.0000   -0.0005   -0.0012    0.0000   -0.0005
   20 O1     3d1+      -0.0000    0.0000   -0.0000   -0.0000    0.0000    0.0000    0.0000   -0.0000   -0.0139   -0.0000
   21 O1     4d1+      -0.0000   -0.0000    0.0000   -0.0000    0.0000   -0.0000   -0.0000   -0.0000   -0.0019   -0.0000
   22 O1     3d2+      -0.0005   -0.0004    0.0004    0.0012    0.0011   -0.0019   -0.0258   -0.0068    0.0000   -0.0071
   23 O1     4d2+      -0.0003   -0.0002    0.0003    0.0000    0.0006   -0.0000   -0.0021   -0.0004    0.0000   -0.0018
   24 O1     4f3-       0.0001   -0.0000    0.0000   -0.0016    0.0002    0.0023    0.0042   -0.0028   -0.0000    0.0028
   25 O1     4f2-       0.0000   -0.0000    0.0000    0.0000   -0.0000    0.0000   -0.0000    0.0000    0.0052    0.0000
   26 O1     4f1-       0.0001    0.0001   -0.0001    0.0016   -0.0011   -0.0005    0.0041    0.0041   -0.0000   -0.0007
   27 O1     4f0       -0.0000    0.0000   -0.0000    0.0000    0.0000   -0.0000    0.0000   -0.0000   -0.0044   -0.0000
   28 O1     4f1+       0.0000    0.0001   -0.0001    0.0014   -0.0007   -0.0010    0.0013    0.0030   -0.0000   -0.0012
   29 O1     4f2+       0.0000   -0.0000    0.0000    0.0000    0.0000    0.0000    0.0000   -0.0000   -0.0028   -0.0000
   30 O1     4f3+       0.0001    0.0002   -0.0002    0.0027   -0.0016   -0.0016    0.0061    0.0068   -0.0000   -0.0016
   31 O2     1s         0.9988   -0.0000   -0.0028   -0.0187    0.0000   -0.0190   -0.0247    0.0000   -0.0000    0.0225
   32 O2     2s        -0.0078    0.0000    0.0098    0.5509   -0.0000   -0.7581    0.1623   -0.0000   -0.0000    0.2358
   33 O2     3s        -0.0058    0.0000    0.0055   -0.0357    0.0000   -0.0328   -0.0578    0.0000   -0.0000    0.0604
   34 O2     4s        -0.0010    0.0000    0.0009   -0.0065   -0.0000   -0.0061   -0.0115   -0.0000   -0.0000    0.0133
   35 O2     2px       -0.0022    0.0000    0.0038   -0.2044    0.0000    0.3050    0.6506   -0.0000   -0.0000   -0.2943
   36 O2     3px       -0.0026    0.0000    0.0021   -0.0137    0.0000   -0.0285   -0.0641    0.0000   -0.0000   -0.0190
   37 O2     4px        0.0019   -0.0000   -0.0007    0.0022   -0.0000   -0.0004   -0.0087    0.0000    0.0000   -0.0027
   38 O2     2py        0.0000   -0.0051    0.0000   -0.0000   -0.0333    0.0000    0.0000    0.6182   -0.0000   -0.0000
   39 O2     3py        0.0000   -0.0029    0.0000    0.0000    0.0315    0.0000   -0.0000   -0.0761    0.0000   -0.0000
   40 O2     4py        0.0000    0.0011   -0.0000    0.0000   -0.0052   -0.0000    0.0000   -0.0044   -0.0000    0.0000
   41 O2     2pz        0.0000    0.0000    0.0000    0.0000   -0.0000   -0.0000    0.0000    0.0000    0.7403   -0.0000
   42 O2     3pz        0.0000   -0.0000    0.0000    0.0000    0.0000    0.0000   -0.0000   -0.0000   -0.0491    0.0000
   43 O2     4pz       -0.0000   -0.0000    0.0000    0.0000    0.0000   -0.0000    0.0000   -0.0000   -0.0125   -0.0000
   44 O2     3d2-       0.0000   -0.0014    0.0000   -0.0000   -0.0199    0.0000   -0.0000    0.0478   -0.0000   -0.0000
   45 O2     4d2-       0.0000   -0.0006    0.0000   -0.0000   -0.0018    0.0000   -0.0000    0.0043   -0.0000   -0.0000
   46 O2     3d1-      -0.0000    0.0000    0.0000    0.0000    0.0000    0.0000   -0.0000   -0.0000   -0.0000    0.0000
   47 O2     4d1-       0.0000    0.0000   -0.0000    0.0000    0.0000    0.0000   -0.0000   -0.0000   -0.0000    0.0000
   48 O2     3d0        0.0010   -0.0000   -0.0010   -0.0054   -0.0000   -0.0104   -0.0240   -0.0000    0.0000    0.0158
   49 O2     4d0        0.0006   -0.0000   -0.0005    0.0009   -0.0000   -0.0010   -0.0012   -0.0000   -0.0000    0.0018
   50 O2     3d1+       0.0000    0.0000    0.0000   -0.0000   -0.0000    0.0000    0.0000    0.0000    0.0295    0.0000
   51 O2     4d1+      -0.0000    0.0000    0.0000   -0.0000    0.0000   -0.0000    0.0000    0.0000    0.0034    0.0000
   52 O2     3d2+       0.0003   -0.0000   -0.0006   -0.0141    0.0000    0.0049    0.0136   -0.0000    0.0000    0.0393
   53 O2     4d2+       0.0001   -0.0000   -0.0003   -0.0014   -0.0000    0.0008    0.0019   -0.0000    0.0000    0.0070
   54 O2     4f3-       0.0000   -0.0000    0.0000   -0.0000   -0.0011    0.0000    0.0000   -0.0016   -0.0000   -0.0000
   55 O2     4f2-      -0.0000    0.0000   -0.0000   -0.0000    0.0000   -0.0000   -0.0000   -0.0000   -0.0000    0.0000
   56 O2     4f1-      -0.0000    0.0001   -0.0000    0.0000    0.0032   -0.0000   -0.0000   -0.0079    0.0000    0.0000
   57 O2     4f0       -0.0000   -0.0000   -0.0000    0.0000    0.0000    0.0000   -0.0000   -0.0000   -0.0079   -0.0000
   58 O2     4f1+       0.0002   -0.0000   -0.0001   -0.0017    0.0000   -0.0016   -0.0059   -0.0000   -0.0000    0.0005
   59 O2     4f2+      -0.0000    0.0000    0.0000    0.0000    0.0000    0.0000   -0.0000   -0.0000   -0.0038    0.0000
   60 O2     4f3+       0.0002   -0.0000   -0.0002   -0.0056    0.0000   -0.0008   -0.0074   -0.0000    0.0000    0.0064
   61 O3     1s         0.0037    0.7065    0.7064   -0.0058    0.0003    0.0103   -0.0175    0.0243   -0.0000    0.0005
   62 O3     2s         0.0042   -0.0044   -0.0047    0.4772    0.7078    0.5416   -0.1043    0.1070    0.0000   -0.0388
   63 O3     3s         0.0024   -0.0033   -0.0034    0.0035    0.0078    0.0179   -0.0319    0.0549   -0.0000    0.0107
   64 O3     4s         0.0004   -0.0006   -0.0006    0.0016    0.0009    0.0019   -0.0055    0.0112   -0.0000    0.0035
   65 O3     2px       -0.0011    0.0011    0.0011   -0.0206    0.0568    0.0840   -0.0358    0.2839    0.0000    0.6730
   66 O3     3px       -0.0008    0.0013    0.0011    0.0124   -0.0049   -0.0202    0.0040   -0.0331    0.0000    0.0007
   67 O3     4px        0.0001   -0.0006   -0.0007    0.0016   -0.0009    0.0006    0.0005   -0.0014   -0.0000   -0.0070
   68 O3     2py        0.0024   -0.0016   -0.0018   -0.0606   -0.0818   -0.0498    0.3740   -0.3326    0.0000    0.1647
   69 O3     3py        0.0014   -0.0019   -0.0020    0.0023    0.0030    0.0118   -0.0433    0.0417   -0.0000    0.0090
   70 O3     4py       -0.0006    0.0012    0.0012    0.0016   -0.0016   -0.0024   -0.0032    0.0036   -0.0000   -0.0014
   71 O3     2pz        0.0000   -0.0000   -0.0000    0.0000   -0.0000    0.0000    0.0000    0.0000    0.3364   -0.0000
   72 O3     3pz       -0.0000   -0.0000    0.0000    0.0000    0.0000   -0.0000   -0.0000   -0.0000   -0.0267    0.0000
   73 O3     4pz        0.0000   -0.0000   -0.0000    0.0000    0.0000   -0.0000   -0.0000   -0.0000   -0.0048    0.0000
   74 O3     3d2-      -0.0005    0.0009    0.0009   -0.0096   -0.0015    0.0113   -0.0150    0.0300   -0.0000    0.0125
   75 O3     4d2-      -0.0002    0.0005    0.0005   -0.0011   -0.0005    0.0008   -0.0013    0.0025   -0.0000    0.0012
   76 O3     3d1-       0.0000    0.0000   -0.0000    0.0000   -0.0000   -0.0000    0.0000    0.0000    0.0230   -0.0000
   77 O3     4d1-      -0.0000    0.0000    0.0000    0.0000   -0.0000   -0.0000    0.0000    0.0000    0.0027   -0.0000
   78 O3     3d0       -0.0004    0.0005    0.0005   -0.0044   -0.0014    0.0039   -0.0138    0.0169   -0.0000    0.0026
   79 O3     4d0       -0.0002    0.0004    0.0003   -0.0001   -0.0007   -0.0000   -0.0005    0.0012   -0.0000   -0.0005
   80 O3     3d1+       0.0000    0.0000    0.0000    0.0000    0.0000   -0.0000   -0.0000   -0.0000   -0.0139    0.0000
   81 O3     4d1+       0.0000   -0.0000   -0.0000    0.0000    0.0000    0.0000    0.0000   -0.0000   -0.0019    0.0000
   82 O3     3d2+      -0.0005    0.0004    0.0004    0.0012   -0.0011   -0.0019   -0.0258    0.0068   -0.0000   -0.0071
   83 O3     4d2+      -0.0003    0.0002    0.0003    0.0000   -0.0006   -0.0000   -0.0021    0.0004   -0.0000   -0.0018
   84 O3     4f3-      -0.0001   -0.0000   -0.0000    0.0016    0.0002   -0.0023   -0.0042   -0.0028   -0.0000   -0.0028
   85 O3     4f2-       0.0000    0.0000    0.0000    0.0000    0.0000    0.0000   -0.0000   -0.0000   -0.0052    0.0000
   86 O3     4f1-      -0.0001    0.0001    0.0001   -0.0016   -0.0011    0.0005   -0.0041    0.0041   -0.0000    0.0007
   87 O3     4f0        0.0000    0.0000    0.0000   -0.0000    0.0000    0.0000   -0.0000   -0.0000   -0.0044    0.0000
   88 O3     4f1+       0.0000   -0.0001   -0.0001    0.0014    0.0007   -0.0010    0.0013   -0.0030    0.0000   -0.0012
   89 O3     4f2+      -0.0000   -0.0000   -0.0000   -0.0000    0.0000   -0.0000   -0.0000   -0.0000   -0.0028    0.0000
   90 O3     4f3+       0.0001   -0.0002   -0.0002    0.0027    0.0016   -0.0016    0.0061   -0.0068    0.0000   -0.0016
 
 
      Orbital               11        12        13        14        15        16        17        18        19        20
      Energy            0.0000    0.0000    0.0000    0.0000    0.0000    0.1904    0.2008    0.2380    0.3314    0.3542
      Occ. No.          1.6507    1.7843    0.9059    0.0572    0.0477    0.0000    0.0000    0.0000    0.0000    0.0000
 
    1 O1     1s         0.0009    0.0000    0.0000   -0.0315   -0.0407   -0.1880   -0.1447   -0.0000    0.0692   -0.0073
    2 O1     2s        -0.0325   -0.0000   -0.0000   -0.3636   -0.4209   -1.3651   -0.9997   -0.0000    0.4790    0.0221
    3 O1     3s         0.0052    0.0000    0.0000   -0.0544   -0.0822   -0.8385   -0.6422   -0.0000    0.3146    0.0466
    4 O1     4s         0.0016    0.0000    0.0000   -0.0057   -0.0124   -0.1911   -0.1382   -0.0000    0.0621    0.0176
    5 O1     2px       -0.5454    0.0000   -0.0000    0.2483    0.4389    0.3967    0.1898   -0.0000   -0.2060   -0.2077
    6 O1     3px       -0.0085    0.0000    0.0000    0.0074   -0.0747    0.4359    0.4211    0.0000    0.1435   -0.8244
    7 O1     4px        0.0050   -0.0000    0.0000   -0.0069    0.0028    0.0399    0.1073    0.0000    0.1446   -0.3208
    8 O1     2py        0.4958   -0.0000    0.0000    0.6446    0.5017    0.4249    0.5594    0.0000   -0.4452   -0.2360
    9 O1     3py        0.0019   -0.0000   -0.0000   -0.0806   -0.0082    0.7236    0.5949    0.0000   -0.9323   -0.2788
   10 O1     4py       -0.0048    0.0000   -0.0000   -0.0053   -0.0124    0.1345    0.0373    0.0000   -0.2644   -0.0626
   11 O1     2pz       -0.0000   -0.7120    0.6510   -0.0000    0.0000    0.0000    0.0000   -0.0712    0.0000    0.0000
   12 O1     3pz        0.0000   -0.0026    0.0097   -0.0000    0.0000   -0.0000    0.0000    0.3653    0.0000    0.0000
   13 O1     4pz        0.0000    0.0086   -0.0045    0.0000   -0.0000   -0.0000    0.0000    0.1999    0.0000    0.0000
   14 O1     3d2-       0.0026   -0.0000    0.0000   -0.0217   -0.0103   -0.0980   -0.0713   -0.0000    0.0633    0.0257
   15 O1     4d2-       0.0011   -0.0000    0.0000   -0.0073   -0.0063   -0.0584   -0.0453   -0.0000    0.0427    0.0290
   16 O1     3d1-       0.0000    0.0151    0.0036    0.0000    0.0000    0.0000   -0.0000    0.0128    0.0000   -0.0000
   17 O1     4d1-       0.0000    0.0027    0.0006    0.0000   -0.0000    0.0000   -0.0000    0.0047   -0.0000   -0.0000
   18 O1     3d0        0.0023    0.0000    0.0000    0.0097    0.0125    0.0657    0.0562    0.0000   -0.0271   -0.0251
   19 O1     4d0        0.0001   -0.0000    0.0000    0.0019    0.0062    0.0414    0.0337    0.0000   -0.0172   -0.0219
   20 O1     3d1+       0.0000    0.0093    0.0032    0.0000    0.0000   -0.0000   -0.0000    0.0040   -0.0000    0.0000
   21 O1     4d1+       0.0000    0.0014    0.0003    0.0000    0.0000   -0.0000   -0.0000   -0.0007    0.0000    0.0000
   22 O1     3d2+       0.0172   -0.0000    0.0000    0.0109    0.0212    0.0388    0.0690    0.0000   -0.0375   -0.0049
   23 O1     4d2+       0.0031   -0.0000   -0.0000    0.0049    0.0076    0.0242    0.0412    0.0000   -0.0290   -0.0042
   24 O1     4f3-      -0.0041    0.0000   -0.0000    0.0005   -0.0031    0.0007   -0.0006    0.0000    0.0065   -0.0063
   25 O1     4f2-      -0.0000   -0.0031   -0.0006   -0.0000   -0.0000   -0.0000    0.0000    0.0031    0.0000   -0.0000
   26 O1     4f1-      -0.0013   -0.0000   -0.0000   -0.0024   -0.0041   -0.0072   -0.0049   -0.0000    0.0055    0.0070
   27 O1     4f0        0.0000    0.0023    0.0016    0.0000    0.0000    0.0000   -0.0000   -0.0015    0.0000   -0.0000
   28 O1     4f1+       0.0001   -0.0000    0.0000   -0.0020   -0.0014   -0.0031   -0.0036   -0.0000    0.0028    0.0066
   29 O1     4f2+       0.0000    0.0015   -0.0001    0.0000    0.0000   -0.0000   -0.0000   -0.0006    0.0000    0.0000
   30 O1     4f3+      -0.0016   -0.0000    0.0000   -0.0036   -0.0043   -0.0098   -0.0057   -0.0000    0.0122    0.0104
   31 O2     1s         0.0000    0.0000    0.0000    0.0834   -0.0000   -0.0000    0.3022   -0.0000   -0.2209    0.0000
   32 O2     2s         0.0000    0.0000    0.0000    0.8385    0.0000   -0.0000    2.1087   -0.0000   -1.4785    0.0000
   33 O2     3s         0.0000    0.0000    0.0000    0.0908   -0.0000   -0.0000    1.3134   -0.0000   -0.8953    0.0000
   34 O2     4s         0.0000    0.0000    0.0000    0.0295   -0.0000   -0.0000    0.2826   -0.0000   -0.1832    0.0000
   35 O2     2px        0.0000   -0.0000    0.0000    0.7116    0.0000   -0.0000    0.6342   -0.0000   -0.5103    0.0000
   36 O2     3px        0.0000   -0.0000    0.0000   -0.1418   -0.0000   -0.0000    0.9676   -0.0000   -0.4993   -0.0000
   37 O2     4px       -0.0000   -0.0000   -0.0000    0.0248    0.0000   -0.0000    0.1709   -0.0000    0.0122   -0.0000
   38 O2     2py       -0.0329   -0.0000   -0.0000   -0.0000    1.0195    1.1175    0.0000    0.0000    0.0000   -0.0381
   39 O2     3py       -0.0161   -0.0000    0.0000   -0.0000   -0.1187    1.2911    0.0000    0.0000    0.0000    0.3828
   40 O2     4py       -0.0033    0.0000   -0.0000    0.0000    0.0053    0.1393    0.0000    0.0000   -0.0000    0.2264
   41 O2     2pz       -0.0000    0.0000   -0.7294    0.0000   -0.0000    0.0000   -0.0000   -0.0873   -0.0000   -0.0000
   42 O2     3pz        0.0000    0.0000   -0.0268   -0.0000   -0.0000    0.0000    0.0000    0.2977   -0.0000   -0.0000
   43 O2     4pz        0.0000    0.0000    0.0029    0.0000    0.0000   -0.0000    0.0000    0.1828   -0.0000   -0.0000
[...]

>>> EXPORT i = B

>>> EXPORT j = P

>>> IF (-FILE GMJ_e2_${i}_${j}_${k}_.csv)

>>> COPY /lustre/isaac/scratch/gjones39/scpfiles/ANO-RCC-VTZP/ozone_115.25/3252696/GMJ_RHS_B_P_3_.csv /lustre/isaac/scratch/gjones39/scpfiles/ANO-RCC-VTZP/ozone_115.25/GMJ_RHS_B_P_3_.csv

>>> COPY /lustre/isaac/scratch/gjones39/scpfiles/ANO-RCC-VTZP/ozone_115.25/3252696/GMJ_IVECW_B_P_3_.csv /lustre/isaac/scratch/gjones39/scpfiles/ANO-RCC-VTZP/ozone_115.25/GMJ_IVECW_B_P_3_.csv

>>> COPY /lustre/isaac/scratch/gjones39/scpfiles/ANO-RCC-VTZP/ozone_115.25/3252696/GMJ_IVECX_B_P_3_.csv /lustre/isaac/scratch/gjones39/scpfiles/ANO-RCC-VTZP/ozone_115.25/GMJ_IVECX_B_P_3_.csv

>>> COPY /lustre/isaac/scratch/gjones39/scpfiles/ANO-RCC-VTZP/ozone_115.25/3252696/GMJ_IVECC2_B_P_3_.csv /lustre/isaac/scratch/gjones39/scpfiles/ANO-RCC-VTZP/ozone_115.25/GMJ_IVECC2_B_P_3_.csv

>>> COPY /lustre/isaac/scratch/gjones39/scpfiles/ANO-RCC-VTZP/ozone_115.25/3252696/GMJ_e2_B_P_3_.csv /lustre/isaac/scratch/gjones39/scpfiles/ANO-RCC-VTZP/ozone_115.25/GMJ_e2_B_P_3_.csv

>>> END FOREACH

>>> EXPORT j = M

>>> IF (-FILE GMJ_e2_${i}_${j}_${k}_.csv)

>>> COPY /lustre/isaac/scratch/gjones39/scpfiles/ANO-RCC-VTZP/ozone_115.25/3252696/GMJ_RHS_B_M_3_.csv /lustre/isaac/scratch/gjones39/scpfiles/ANO-RCC-VTZP/ozone_115.25/GMJ_RHS_B_M_3_.csv

>>> COPY /lustre/isaac/scratch/gjones39/scpfiles/ANO-RCC-VTZP/ozone_115.25/3252696/GMJ_IVECW_B_M_3_.csv /lustre/isaac/scratch/gjones39/scpfiles/ANO-RCC-VTZP/ozone_115.25/GMJ_IVECW_B_M_3_.csv

>>> COPY /lustre/isaac/scratch/gjones39/scpfiles/ANO-RCC-VTZP/ozone_115.25/3252696/GMJ_IVECX_B_M_3_.csv /lustre/isaac/scratch/gjones39/scpfiles/ANO-RCC-VTZP/ozone_115.25/GMJ_IVECX_B_M_3_.csv

>>> COPY /lustre/isaac/scratch/gjones39/scpfiles/ANO-RCC-VTZP/ozone_115.25/3252696/GMJ_IVECC2_B_M_3_.csv /lustre/isaac/scratch/gjones39/scpfiles/ANO-RCC-VTZP/ozone_115.25/GMJ_IVECC2_B_M_3_.csv

>>> COPY /lustre/isaac/scratch/gjones39/scpfiles/ANO-RCC-VTZP/ozone_115.25/3252696/GMJ_e2_B_M_3_.csv /lustre/isaac/scratch/gjones39/scpfiles/ANO-RCC-VTZP/ozone_115.25/GMJ_e2_B_M_3_.csv

>>> END FOREACH

>>> END FOREACH

>>> EXPORT i = E

>>> EXPORT j = P

>>> IF (-FILE GMJ_e2_${i}_${j}_${k}_.csv)

>>> COPY /lustre/isaac/scratch/gjones39/scpfiles/ANO-RCC-VTZP/ozone_115.25/3252696/GMJ_RHS_E_P_3_.csv /lustre/isaac/scratch/gjones39/scpfiles/ANO-RCC-VTZP/ozone_115.25/GMJ_RHS_E_P_3_.csv

>>> COPY /lustre/isaac/scratch/gjones39/scpfiles/ANO-RCC-VTZP/ozone_115.25/3252696/GMJ_IVECW_E_P_3_.csv /lustre/isaac/scratch/gjones39/scpfiles/ANO-RCC-VTZP/ozone_115.25/GMJ_IVECW_E_P_3_.csv

>>> COPY /lustre/isaac/scratch/gjones39/scpfiles/ANO-RCC-VTZP/ozone_115.25/3252696/GMJ_IVECX_E_P_3_.csv /lustre/isaac/scratch/gjones39/scpfiles/ANO-RCC-VTZP/ozone_115.25/GMJ_IVECX_E_P_3_.csv

>>> COPY /lustre/isaac/scratch/gjones39/scpfiles/ANO-RCC-VTZP/ozone_115.25/3252696/GMJ_IVECC2_E_P_3_.csv /lustre/isaac/scratch/gjones39/scpfiles/ANO-RCC-VTZP/ozone_115.25/GMJ_IVECC2_E_P_3_.csv

>>> COPY /lustre/isaac/scratch/gjones39/scpfiles/ANO-RCC-VTZP/ozone_115.25/3252696/GMJ_e2_E_P_3_.csv /lustre/isaac/scratch/gjones39/scpfiles/ANO-RCC-VTZP/ozone_115.25/GMJ_e2_E_P_3_.csv

>>> END FOREACH

>>> EXPORT j = M

>>> IF (-FILE GMJ_e2_${i}_${j}_${k}_.csv)

>>> COPY /lustre/isaac/scratch/gjones39/scpfiles/ANO-RCC-VTZP/ozone_115.25/3252696/GMJ_RHS_E_M_3_.csv /lustre/isaac/scratch/gjones39/scpfiles/ANO-RCC-VTZP/ozone_115.25/GMJ_RHS_E_M_3_.csv

>>> COPY /lustre/isaac/scratch/gjones39/scpfiles/ANO-RCC-VTZP/ozone_115.25/3252696/GMJ_IVECW_E_M_3_.csv /lustre/isaac/scratch/gjones39/scpfiles/ANO-RCC-VTZP/ozone_115.25/GMJ_IVECW_E_M_3_.csv

>>> COPY /lustre/isaac/scratch/gjones39/scpfiles/ANO-RCC-VTZP/ozone_115.25/3252696/GMJ_IVECX_E_M_3_.csv /lustre/isaac/scratch/gjones39/scpfiles/ANO-RCC-VTZP/ozone_115.25/GMJ_IVECX_E_M_3_.csv

>>> COPY /lustre/isaac/scratch/gjones39/scpfiles/ANO-RCC-VTZP/ozone_115.25/3252696/GMJ_IVECC2_E_M_3_.csv /lustre/isaac/scratch/gjones39/scpfiles/ANO-RCC-VTZP/ozone_115.25/GMJ_IVECC2_E_M_3_.csv

>>> COPY /lustre/isaac/scratch/gjones39/scpfiles/ANO-RCC-VTZP/ozone_115.25/3252696/GMJ_e2_E_M_3_.csv /lustre/isaac/scratch/gjones39/scpfiles/ANO-RCC-VTZP/ozone_115.25/GMJ_e2_E_M_3_.csv

>>> END FOREACH

>>> END FOREACH

>>> EXPORT i = F

>>> EXPORT j = P

>>> IF (-FILE GMJ_e2_${i}_${j}_${k}_.csv)

>>> COPY /lustre/isaac/scratch/gjones39/scpfiles/ANO-RCC-VTZP/ozone_115.25/3252696/GMJ_RHS_F_P_3_.csv /lustre/isaac/scratch/gjones39/scpfiles/ANO-RCC-VTZP/ozone_115.25/GMJ_RHS_F_P_3_.csv

>>> COPY /lustre/isaac/scratch/gjones39/scpfiles/ANO-RCC-VTZP/ozone_115.25/3252696/GMJ_IVECW_F_P_3_.csv /lustre/isaac/scratch/gjones39/scpfiles/ANO-RCC-VTZP/ozone_115.25/GMJ_IVECW_F_P_3_.csv

>>> COPY /lustre/isaac/scratch/gjones39/scpfiles/ANO-RCC-VTZP/ozone_115.25/3252696/GMJ_IVECX_F_P_3_.csv /lustre/isaac/scratch/gjones39/scpfiles/ANO-RCC-VTZP/ozone_115.25/GMJ_IVECX_F_P_3_.csv

>>> COPY /lustre/isaac/scratch/gjones39/scpfiles/ANO-RCC-VTZP/ozone_115.25/3252696/GMJ_IVECC2_F_P_3_.csv /lustre/isaac/scratch/gjones39/scpfiles/ANO-RCC-VTZP/ozone_115.25/GMJ_IVECC2_F_P_3_.csv

>>> COPY /lustre/isaac/scratch/gjones39/scpfiles/ANO-RCC-VTZP/ozone_115.25/3252696/GMJ_e2_F_P_3_.csv /lustre/isaac/scratch/gjones39/scpfiles/ANO-RCC-VTZP/ozone_115.25/GMJ_e2_F_P_3_.csv

>>> END FOREACH

>>> EXPORT j = M

>>> IF (-FILE GMJ_e2_${i}_${j}_${k}_.csv)

>>> COPY /lustre/isaac/scratch/gjones39/scpfiles/ANO-RCC-VTZP/ozone_115.25/3252696/GMJ_RHS_F_M_3_.csv /lustre/isaac/scratch/gjones39/scpfiles/ANO-RCC-VTZP/ozone_115.25/GMJ_RHS_F_M_3_.csv

>>> COPY /lustre/isaac/scratch/gjones39/scpfiles/ANO-RCC-VTZP/ozone_115.25/3252696/GMJ_IVECW_F_M_3_.csv /lustre/isaac/scratch/gjones39/scpfiles/ANO-RCC-VTZP/ozone_115.25/GMJ_IVECW_F_M_3_.csv

>>> COPY /lustre/isaac/scratch/gjones39/scpfiles/ANO-RCC-VTZP/ozone_115.25/3252696/GMJ_IVECX_F_M_3_.csv /lustre/isaac/scratch/gjones39/scpfiles/ANO-RCC-VTZP/ozone_115.25/GMJ_IVECX_F_M_3_.csv

>>> COPY /lustre/isaac/scratch/gjones39/scpfiles/ANO-RCC-VTZP/ozone_115.25/3252696/GMJ_IVECC2_F_M_3_.csv /lustre/isaac/scratch/gjones39/scpfiles/ANO-RCC-VTZP/ozone_115.25/GMJ_IVECC2_F_M_3_.csv

>>> COPY /lustre/isaac/scratch/gjones39/scpfiles/ANO-RCC-VTZP/ozone_115.25/3252696/GMJ_e2_F_M_3_.csv /lustre/isaac/scratch/gjones39/scpfiles/ANO-RCC-VTZP/ozone_115.25/GMJ_e2_F_M_3_.csv

>>> END FOREACH

>>> END FOREACH

>>> EXPORT i = G

>>> EXPORT j = P

>>> IF (-FILE GMJ_e2_${i}_${j}_${k}_.csv)

>>> COPY /lustre/isaac/scratch/gjones39/scpfiles/ANO-RCC-VTZP/ozone_115.25/3252696/GMJ_RHS_G_P_3_.csv /lustre/isaac/scratch/gjones39/scpfiles/ANO-RCC-VTZP/ozone_115.25/GMJ_RHS_G_P_3_.csv

>>> COPY /lustre/isaac/scratch/gjones39/scpfiles/ANO-RCC-VTZP/ozone_115.25/3252696/GMJ_IVECW_G_P_3_.csv /lustre/isaac/scratch/gjones39/scpfiles/ANO-RCC-VTZP/ozone_115.25/GMJ_IVECW_G_P_3_.csv

>>> COPY /lustre/isaac/scratch/gjones39/scpfiles/ANO-RCC-VTZP/ozone_115.25/3252696/GMJ_IVECX_G_P_3_.csv /lustre/isaac/scratch/gjones39/scpfiles/ANO-RCC-VTZP/ozone_115.25/GMJ_IVECX_G_P_3_.csv

>>> COPY /lustre/isaac/scratch/gjones39/scpfiles/ANO-RCC-VTZP/ozone_115.25/3252696/GMJ_IVECC2_G_P_3_.csv /lustre/isaac/scratch/gjones39/scpfiles/ANO-RCC-VTZP/ozone_115.25/GMJ_IVECC2_G_P_3_.csv

>>> COPY /lustre/isaac/scratch/gjones39/scpfiles/ANO-RCC-VTZP/ozone_115.25/3252696/GMJ_e2_G_P_3_.csv /lustre/isaac/scratch/gjones39/scpfiles/ANO-RCC-VTZP/ozone_115.25/GMJ_e2_G_P_3_.csv

>>> END FOREACH

>>> EXPORT j = M

>>> IF (-FILE GMJ_e2_${i}_${j}_${k}_.csv)

>>> COPY /lustre/isaac/scratch/gjones39/scpfiles/ANO-RCC-VTZP/ozone_115.25/3252696/GMJ_RHS_G_M_3_.csv /lustre/isaac/scratch/gjones39/scpfiles/ANO-RCC-VTZP/ozone_115.25/GMJ_RHS_G_M_3_.csv

>>> COPY /lustre/isaac/scratch/gjones39/scpfiles/ANO-RCC-VTZP/ozone_115.25/3252696/GMJ_IVECW_G_M_3_.csv /lustre/isaac/scratch/gjones39/scpfiles/ANO-RCC-VTZP/ozone_115.25/GMJ_IVECW_G_M_3_.csv

>>> COPY /lustre/isaac/scratch/gjones39/scpfiles/ANO-RCC-VTZP/ozone_115.25/3252696/GMJ_IVECX_G_M_3_.csv /lustre/isaac/scratch/gjones39/scpfiles/ANO-RCC-VTZP/ozone_115.25/GMJ_IVECX_G_M_3_.csv

>>> COPY /lustre/isaac/scratch/gjones39/scpfiles/ANO-RCC-VTZP/ozone_115.25/3252696/GMJ_IVECC2_G_M_3_.csv /lustre/isaac/scratch/gjones39/scpfiles/ANO-RCC-VTZP/ozone_115.25/GMJ_IVECC2_G_M_3_.csv

>>> COPY /lustre/isaac/scratch/gjones39/scpfiles/ANO-RCC-VTZP/ozone_115.25/3252696/GMJ_e2_G_M_3_.csv /lustre/isaac/scratch/gjones39/scpfiles/ANO-RCC-VTZP/ozone_115.25/GMJ_e2_G_M_3_.csv

>>> END FOREACH

>>> END FOREACH

>>> EXPORT i = H

>>> EXPORT j = P

>>> IF (-FILE GMJ_e2_${i}_${j}_${k}_.csv)

>>> COPY /lustre/isaac/scratch/gjones39/scpfiles/ANO-RCC-VTZP/ozone_115.25/3252696/GMJ_RHS_H_P_3_.csv /lustre/isaac/scratch/gjones39/scpfiles/ANO-RCC-VTZP/ozone_115.25/GMJ_RHS_H_P_3_.csv

>>> COPY /lustre/isaac/scratch/gjones39/scpfiles/ANO-RCC-VTZP/ozone_115.25/3252696/GMJ_IVECW_H_P_3_.csv /lustre/isaac/scratch/gjones39/scpfiles/ANO-RCC-VTZP/ozone_115.25/GMJ_IVECW_H_P_3_.csv

>>> COPY /lustre/isaac/scratch/gjones39/scpfiles/ANO-RCC-VTZP/ozone_115.25/3252696/GMJ_IVECX_H_P_3_.csv /lustre/isaac/scratch/gjones39/scpfiles/ANO-RCC-VTZP/ozone_115.25/GMJ_IVECX_H_P_3_.csv

>>> COPY /lustre/isaac/scratch/gjones39/scpfiles/ANO-RCC-VTZP/ozone_115.25/3252696/GMJ_IVECC2_H_P_3_.csv /lustre/isaac/scratch/gjones39/scpfiles/ANO-RCC-VTZP/ozone_115.25/GMJ_IVECC2_H_P_3_.csv

>>> COPY /lustre/isaac/scratch/gjones39/scpfiles/ANO-RCC-VTZP/ozone_115.25/3252696/GMJ_e2_H_P_3_.csv /lustre/isaac/scratch/gjones39/scpfiles/ANO-RCC-VTZP/ozone_115.25/GMJ_e2_H_P_3_.csv

>>> END FOREACH

>>> EXPORT j = M

>>> IF (-FILE GMJ_e2_${i}_${j}_${k}_.csv)

>>> COPY /lustre/isaac/scratch/gjones39/scpfiles/ANO-RCC-VTZP/ozone_115.25/3252696/GMJ_RHS_H_M_3_.csv /lustre/isaac/scratch/gjones39/scpfiles/ANO-RCC-VTZP/ozone_115.25/GMJ_RHS_H_M_3_.csv

>>> COPY /lustre/isaac/scratch/gjones39/scpfiles/ANO-RCC-VTZP/ozone_115.25/3252696/GMJ_IVECW_H_M_3_.csv /lustre/isaac/scratch/gjones39/scpfiles/ANO-RCC-VTZP/ozone_115.25/GMJ_IVECW_H_M_3_.csv

>>> COPY /lustre/isaac/scratch/gjones39/scpfiles/ANO-RCC-VTZP/ozone_115.25/3252696/GMJ_IVECX_H_M_3_.csv /lustre/isaac/scratch/gjones39/scpfiles/ANO-RCC-VTZP/ozone_115.25/GMJ_IVECX_H_M_3_.csv

>>> COPY /lustre/isaac/scratch/gjones39/scpfiles/ANO-RCC-VTZP/ozone_115.25/3252696/GMJ_IVECC2_H_M_3_.csv /lustre/isaac/scratch/gjones39/scpfiles/ANO-RCC-VTZP/ozone_115.25/GMJ_IVECC2_H_M_3_.csv

>>> COPY /lustre/isaac/scratch/gjones39/scpfiles/ANO-RCC-VTZP/ozone_115.25/3252696/GMJ_e2_H_M_3_.csv /lustre/isaac/scratch/gjones39/scpfiles/ANO-RCC-VTZP/ozone_115.25/GMJ_e2_H_M_3_.csv

>>> END FOREACH

>>> END FOREACH

>>> END FOREACH

>>> EXPORT j = 1

>>> EXPORT i = A

>>> IF (-FILE GMJ_e2_${i}_${j}_.csv)

>>> COPY /lustre/isaac/scratch/gjones39/scpfiles/ANO-RCC-VTZP/ozone_115.25/3252696/GMJ_RHS_A_1_.csv /lustre/isaac/scratch/gjones39/scpfiles/ANO-RCC-VTZP/ozone_115.25/GMJ_RHS_A_1_.csv

>>> COPY /lustre/isaac/scratch/gjones39/scpfiles/ANO-RCC-VTZP/ozone_115.25/3252696/GMJ_IVECW_A_1_.csv /lustre/isaac/scratch/gjones39/scpfiles/ANO-RCC-VTZP/ozone_115.25/GMJ_IVECW_A_1_.csv

>>> COPY /lustre/isaac/scratch/gjones39/scpfiles/ANO-RCC-VTZP/ozone_115.25/3252696/GMJ_IVECX_A_1_.csv /lustre/isaac/scratch/gjones39/scpfiles/ANO-RCC-VTZP/ozone_115.25/GMJ_IVECX_A_1_.csv

>>> COPY /lustre/isaac/scratch/gjones39/scpfiles/ANO-RCC-VTZP/ozone_115.25/3252696/GMJ_IVECC2_A_1_.csv /lustre/isaac/scratch/gjones39/scpfiles/ANO-RCC-VTZP/ozone_115.25/GMJ_IVECC2_A_1_.csv

>>> COPY /lustre/isaac/scratch/gjones39/scpfiles/ANO-RCC-VTZP/ozone_115.25/3252696/GMJ_e2_A_1_.csv /lustre/isaac/scratch/gjones39/scpfiles/ANO-RCC-VTZP/ozone_115.25/GMJ_e2_A_1_.csv

>>> END FOREACH

>>> EXPORT i = C

>>> IF (-FILE GMJ_e2_${i}_${j}_.csv)

>>> COPY /lustre/isaac/scratch/gjones39/scpfiles/ANO-RCC-VTZP/ozone_115.25/3252696/GMJ_RHS_C_1_.csv /lustre/isaac/scratch/gjones39/scpfiles/ANO-RCC-VTZP/ozone_115.25/GMJ_RHS_C_1_.csv

>>> COPY /lustre/isaac/scratch/gjones39/scpfiles/ANO-RCC-VTZP/ozone_115.25/3252696/GMJ_IVECW_C_1_.csv /lustre/isaac/scratch/gjones39/scpfiles/ANO-RCC-VTZP/ozone_115.25/GMJ_IVECW_C_1_.csv

>>> COPY /lustre/isaac/scratch/gjones39/scpfiles/ANO-RCC-VTZP/ozone_115.25/3252696/GMJ_IVECX_C_1_.csv /lustre/isaac/scratch/gjones39/scpfiles/ANO-RCC-VTZP/ozone_115.25/GMJ_IVECX_C_1_.csv

>>> COPY /lustre/isaac/scratch/gjones39/scpfiles/ANO-RCC-VTZP/ozone_115.25/3252696/GMJ_IVECC2_C_1_.csv /lustre/isaac/scratch/gjones39/scpfiles/ANO-RCC-VTZP/ozone_115.25/GMJ_IVECC2_C_1_.csv

>>> COPY /lustre/isaac/scratch/gjones39/scpfiles/ANO-RCC-VTZP/ozone_115.25/3252696/GMJ_e2_C_1_.csv /lustre/isaac/scratch/gjones39/scpfiles/ANO-RCC-VTZP/ozone_115.25/GMJ_e2_C_1_.csv

>>> END FOREACH

>>> EXPORT i = D

>>> IF (-FILE GMJ_e2_${i}_${j}_.csv)

>>> COPY /lustre/isaac/scratch/gjones39/scpfiles/ANO-RCC-VTZP/ozone_115.25/3252696/GMJ_RHS_D_1_.csv /lustre/isaac/scratch/gjones39/scpfiles/ANO-RCC-VTZP/ozone_115.25/GMJ_RHS_D_1_.csv

>>> COPY /lustre/isaac/scratch/gjones39/scpfiles/ANO-RCC-VTZP/ozone_115.25/3252696/GMJ_IVECW_D_1_.csv /lustre/isaac/scratch/gjones39/scpfiles/ANO-RCC-VTZP/ozone_115.25/GMJ_IVECW_D_1_.csv

>>> COPY /lustre/isaac/scratch/gjones39/scpfiles/ANO-RCC-VTZP/ozone_115.25/3252696/GMJ_IVECX_D_1_.csv /lustre/isaac/scratch/gjones39/scpfiles/ANO-RCC-VTZP/ozone_115.25/GMJ_IVECX_D_1_.csv

>>> COPY /lustre/isaac/scratch/gjones39/scpfiles/ANO-RCC-VTZP/ozone_115.25/3252696/GMJ_IVECC2_D_1_.csv /lustre/isaac/scratch/gjones39/scpfiles/ANO-RCC-VTZP/ozone_115.25/GMJ_IVECC2_D_1_.csv

>>> COPY /lustre/isaac/scratch/gjones39/scpfiles/ANO-RCC-VTZP/ozone_115.25/3252696/GMJ_e2_D_1_.csv /lustre/isaac/scratch/gjones39/scpfiles/ANO-RCC-VTZP/ozone_115.25/GMJ_e2_D_1_.csv

>>> END FOREACH

>>> END FOREACH

>>> EXPORT j = 2

>>> EXPORT i = A

>>> IF (-FILE GMJ_e2_${i}_${j}_.csv)

>>> COPY /lustre/isaac/scratch/gjones39/scpfiles/ANO-RCC-VTZP/ozone_115.25/3252696/GMJ_RHS_A_2_.csv /lustre/isaac/scratch/gjones39/scpfiles/ANO-RCC-VTZP/ozone_115.25/GMJ_RHS_A_2_.csv

>>> COPY /lustre/isaac/scratch/gjones39/scpfiles/ANO-RCC-VTZP/ozone_115.25/3252696/GMJ_IVECW_A_2_.csv /lustre/isaac/scratch/gjones39/scpfiles/ANO-RCC-VTZP/ozone_115.25/GMJ_IVECW_A_2_.csv

>>> COPY /lustre/isaac/scratch/gjones39/scpfiles/ANO-RCC-VTZP/ozone_115.25/3252696/GMJ_IVECX_A_2_.csv /lustre/isaac/scratch/gjones39/scpfiles/ANO-RCC-VTZP/ozone_115.25/GMJ_IVECX_A_2_.csv

>>> COPY /lustre/isaac/scratch/gjones39/scpfiles/ANO-RCC-VTZP/ozone_115.25/3252696/GMJ_IVECC2_A_2_.csv /lustre/isaac/scratch/gjones39/scpfiles/ANO-RCC-VTZP/ozone_115.25/GMJ_IVECC2_A_2_.csv

>>> COPY /lustre/isaac/scratch/gjones39/scpfiles/ANO-RCC-VTZP/ozone_115.25/3252696/GMJ_e2_A_2_.csv /lustre/isaac/scratch/gjones39/scpfiles/ANO-RCC-VTZP/ozone_115.25/GMJ_e2_A_2_.csv

>>> END FOREACH

>>> EXPORT i = C

>>> IF (-FILE GMJ_e2_${i}_${j}_.csv)

>>> COPY /lustre/isaac/scratch/gjones39/scpfiles/ANO-RCC-VTZP/ozone_115.25/3252696/GMJ_RHS_C_2_.csv /lustre/isaac/scratch/gjones39/scpfiles/ANO-RCC-VTZP/ozone_115.25/GMJ_RHS_C_2_.csv

>>> COPY /lustre/isaac/scratch/gjones39/scpfiles/ANO-RCC-VTZP/ozone_115.25/3252696/GMJ_IVECW_C_2_.csv /lustre/isaac/scratch/gjones39/scpfiles/ANO-RCC-VTZP/ozone_115.25/GMJ_IVECW_C_2_.csv

>>> COPY /lustre/isaac/scratch/gjones39/scpfiles/ANO-RCC-VTZP/ozone_115.25/3252696/GMJ_IVECX_C_2_.csv /lustre/isaac/scratch/gjones39/scpfiles/ANO-RCC-VTZP/ozone_115.25/GMJ_IVECX_C_2_.csv

>>> COPY /lustre/isaac/scratch/gjones39/scpfiles/ANO-RCC-VTZP/ozone_115.25/3252696/GMJ_IVECC2_C_2_.csv /lustre/isaac/scratch/gjones39/scpfiles/ANO-RCC-VTZP/ozone_115.25/GMJ_IVECC2_C_2_.csv

>>> COPY /lustre/isaac/scratch/gjones39/scpfiles/ANO-RCC-VTZP/ozone_115.25/3252696/GMJ_e2_C_2_.csv /lustre/isaac/scratch/gjones39/scpfiles/ANO-RCC-VTZP/ozone_115.25/GMJ_e2_C_2_.csv

>>> END FOREACH

>>> EXPORT i = D

>>> IF (-FILE GMJ_e2_${i}_${j}_.csv)

>>> COPY /lustre/isaac/scratch/gjones39/scpfiles/ANO-RCC-VTZP/ozone_115.25/3252696/GMJ_RHS_D_2_.csv /lustre/isaac/scratch/gjones39/scpfiles/ANO-RCC-VTZP/ozone_115.25/GMJ_RHS_D_2_.csv

>>> COPY /lustre/isaac/scratch/gjones39/scpfiles/ANO-RCC-VTZP/ozone_115.25/3252696/GMJ_IVECW_D_2_.csv /lustre/isaac/scratch/gjones39/scpfiles/ANO-RCC-VTZP/ozone_115.25/GMJ_IVECW_D_2_.csv

>>> COPY /lustre/isaac/scratch/gjones39/scpfiles/ANO-RCC-VTZP/ozone_115.25/3252696/GMJ_IVECX_D_2_.csv /lustre/isaac/scratch/gjones39/scpfiles/ANO-RCC-VTZP/ozone_115.25/GMJ_IVECX_D_2_.csv

>>> COPY /lustre/isaac/scratch/gjones39/scpfiles/ANO-RCC-VTZP/ozone_115.25/3252696/GMJ_IVECC2_D_2_.csv /lustre/isaac/scratch/gjones39/scpfiles/ANO-RCC-VTZP/ozone_115.25/GMJ_IVECC2_D_2_.csv

>>> COPY /lustre/isaac/scratch/gjones39/scpfiles/ANO-RCC-VTZP/ozone_115.25/3252696/GMJ_e2_D_2_.csv /lustre/isaac/scratch/gjones39/scpfiles/ANO-RCC-VTZP/ozone_115.25/GMJ_e2_D_2_.csv

>>> END FOREACH

>>> END FOREACH

>>> EXPORT j = 3

>>> EXPORT i = A

>>> IF (-FILE GMJ_e2_${i}_${j}_.csv)

>>> COPY /lustre/isaac/scratch/gjones39/scpfiles/ANO-RCC-VTZP/ozone_115.25/3252696/GMJ_RHS_A_3_.csv /lustre/isaac/scratch/gjones39/scpfiles/ANO-RCC-VTZP/ozone_115.25/GMJ_RHS_A_3_.csv

>>> COPY /lustre/isaac/scratch/gjones39/scpfiles/ANO-RCC-VTZP/ozone_115.25/3252696/GMJ_IVECW_A_3_.csv /lustre/isaac/scratch/gjones39/scpfiles/ANO-RCC-VTZP/ozone_115.25/GMJ_IVECW_A_3_.csv

>>> COPY /lustre/isaac/scratch/gjones39/scpfiles/ANO-RCC-VTZP/ozone_115.25/3252696/GMJ_IVECX_A_3_.csv /lustre/isaac/scratch/gjones39/scpfiles/ANO-RCC-VTZP/ozone_115.25/GMJ_IVECX_A_3_.csv

>>> COPY /lustre/isaac/scratch/gjones39/scpfiles/ANO-RCC-VTZP/ozone_115.25/3252696/GMJ_IVECC2_A_3_.csv /lustre/isaac/scratch/gjones39/scpfiles/ANO-RCC-VTZP/ozone_115.25/GMJ_IVECC2_A_3_.csv

>>> COPY /lustre/isaac/scratch/gjones39/scpfiles/ANO-RCC-VTZP/ozone_115.25/3252696/GMJ_e2_A_3_.csv /lustre/isaac/scratch/gjones39/scpfiles/ANO-RCC-VTZP/ozone_115.25/GMJ_e2_A_3_.csv

>>> END FOREACH

>>> EXPORT i = C

>>> IF (-FILE GMJ_e2_${i}_${j}_.csv)

>>> COPY /lustre/isaac/scratch/gjones39/scpfiles/ANO-RCC-VTZP/ozone_115.25/3252696/GMJ_RHS_C_3_.csv /lustre/isaac/scratch/gjones39/scpfiles/ANO-RCC-VTZP/ozone_115.25/GMJ_RHS_C_3_.csv

>>> COPY /lustre/isaac/scratch/gjones39/scpfiles/ANO-RCC-VTZP/ozone_115.25/3252696/GMJ_IVECW_C_3_.csv /lustre/isaac/scratch/gjones39/scpfiles/ANO-RCC-VTZP/ozone_115.25/GMJ_IVECW_C_3_.csv

>>> COPY /lustre/isaac/scratch/gjones39/scpfiles/ANO-RCC-VTZP/ozone_115.25/3252696/GMJ_IVECX_C_3_.csv /lustre/isaac/scratch/gjones39/scpfiles/ANO-RCC-VTZP/ozone_115.25/GMJ_IVECX_C_3_.csv

>>> COPY /lustre/isaac/scratch/gjones39/scpfiles/ANO-RCC-VTZP/ozone_115.25/3252696/GMJ_IVECC2_C_3_.csv /lustre/isaac/scratch/gjones39/scpfiles/ANO-RCC-VTZP/ozone_115.25/GMJ_IVECC2_C_3_.csv

>>> COPY /lustre/isaac/scratch/gjones39/scpfiles/ANO-RCC-VTZP/ozone_115.25/3252696/GMJ_e2_C_3_.csv /lustre/isaac/scratch/gjones39/scpfiles/ANO-RCC-VTZP/ozone_115.25/GMJ_e2_C_3_.csv

>>> END FOREACH

>>> EXPORT i = D

>>> IF (-FILE GMJ_e2_${i}_${j}_.csv)

>>> COPY /lustre/isaac/scratch/gjones39/scpfiles/ANO-RCC-VTZP/ozone_115.25/3252696/GMJ_RHS_D_3_.csv /lustre/isaac/scratch/gjones39/scpfiles/ANO-RCC-VTZP/ozone_115.25/GMJ_RHS_D_3_.csv

>>> COPY /lustre/isaac/scratch/gjones39/scpfiles/ANO-RCC-VTZP/ozone_115.25/3252696/GMJ_IVECW_D_3_.csv /lustre/isaac/scratch/gjones39/scpfiles/ANO-RCC-VTZP/ozone_115.25/GMJ_IVECW_D_3_.csv

>>> COPY /lustre/isaac/scratch/gjones39/scpfiles/ANO-RCC-VTZP/ozone_115.25/3252696/GMJ_IVECX_D_3_.csv /lustre/isaac/scratch/gjones39/scpfiles/ANO-RCC-VTZP/ozone_115.25/GMJ_IVECX_D_3_.csv

>>> COPY /lustre/isaac/scratch/gjones39/scpfiles/ANO-RCC-VTZP/ozone_115.25/3252696/GMJ_IVECC2_D_3_.csv /lustre/isaac/scratch/gjones39/scpfiles/ANO-RCC-VTZP/ozone_115.25/GMJ_IVECC2_D_3_.csv

>>> COPY /lustre/isaac/scratch/gjones39/scpfiles/ANO-RCC-VTZP/ozone_115.25/3252696/GMJ_e2_D_3_.csv /lustre/isaac/scratch/gjones39/scpfiles/ANO-RCC-VTZP/ozone_115.25/GMJ_e2_D_3_.csv

>>> END FOREACH

>>> END FOREACH

    Timing: Wall=65.79 User=42.37 System=20.29
****************************************************************************************************
*** WorkDir at /lustre/isaac/scratch/gjones39/scpfiles/ANO-RCC-VTZP/ozone_115.25/3252696 cleaned ***
****************************************************************************************************
