[Molden Format]
[N_Atoms]
                     2
[Atoms] (AU)
F1          1      9           0.00000000      0.00000000      0.00000000
F2          2      9           0.00000000      0.00000000      5.29123315
[Charge] (Mulliken)
  0.999467583076390     
   1.00053241692357     
[GTO] (AU)
   1
   s  14
  1.031094600E+05  1.713099991E-04
  1.528100700E+04  7.123999962E-04
  3.441539200E+03  2.990479984E-03
  9.670948300E+02  1.164036994E-02
  3.140353400E+02  3.968642979E-02
  1.134423000E+02  1.128546094E-01
  4.464472700E+01  2.473650687E-01
  1.894287400E+01  3.672702681E-01
  8.532743000E+00  2.896286985E-01
  3.919401000E+00  7.786681959E-02
  1.568157000E+00  4.562139976E-03
  6.232900000E-01  2.468879987E-03
  2.408610000E-01  1.106309994E-03
  8.430100000E-02  1.739699991E-04
   s  14
  1.031094600E+05 -4.044999995E-05
  1.528100700E+04 -1.682299998E-04
  3.441539200E+03 -7.084299991E-04
  9.670948300E+02 -2.767999996E-03
  3.140353400E+02 -9.611379987E-03
  1.134423000E+02 -2.833957996E-02
  4.464472700E+01 -6.839343991E-02
  1.894287400E+01 -1.237379298E-01
  8.532743000E+00 -1.512859698E-01
  3.919401000E+00 -9.099909988E-03
  1.568157000E+00  3.716257695E-01
  6.232900000E-01  5.500214393E-01
  2.408610000E-01  2.092318697E-01
  8.430100000E-02  8.074639989E-03
   p   9
  2.453302900E+02  1.024860004E-03
  5.691900500E+01  8.344290032E-03
  1.760456800E+01  4.078927016E-02
  6.274995000E+00  1.351370605E-01
  2.447030000E+00  2.798830811E-01
  9.950600000E-01  3.597966414E-01
  4.039730000E-01  3.055347412E-01
  1.548100000E-01  1.354703905E-01
  5.418400000E-02  2.804449011E-02
 
   2
   s  14
  1.031094600E+05  1.713099991E-04
  1.528100700E+04  7.123999962E-04
  3.441539200E+03  2.990479984E-03
  9.670948300E+02  1.164036994E-02
  3.140353400E+02  3.968642979E-02
  1.134423000E+02  1.128546094E-01
  4.464472700E+01  2.473650687E-01
  1.894287400E+01  3.672702681E-01
  8.532743000E+00  2.896286985E-01
  3.919401000E+00  7.786681959E-02
  1.568157000E+00  4.562139976E-03
  6.232900000E-01  2.468879987E-03
  2.408610000E-01  1.106309994E-03
  8.430100000E-02  1.739699991E-04
   s  14
  1.031094600E+05 -4.044999995E-05
  1.528100700E+04 -1.682299998E-04
  3.441539200E+03 -7.084299991E-04
  9.670948300E+02 -2.767999996E-03
  3.140353400E+02 -9.611379987E-03
  1.134423000E+02 -2.833957996E-02
  4.464472700E+01 -6.839343991E-02
  1.894287400E+01 -1.237379298E-01
  8.532743000E+00 -1.512859698E-01
  3.919401000E+00 -9.099909988E-03
  1.568157000E+00  3.716257695E-01
  6.232900000E-01  5.500214393E-01
  2.408610000E-01  2.092318697E-01
  8.430100000E-02  8.074639989E-03
   p   9
  2.453302900E+02  1.024860004E-03
  5.691900500E+01  8.344290032E-03
  1.760456800E+01  4.078927016E-02
  6.274995000E+00  1.351370605E-01
  2.447030000E+00  2.798830811E-01
  9.950600000E-01  3.597966414E-01
  4.039730000E-01  3.055347412E-01
  1.548100000E-01  1.354703905E-01
  5.418400000E-02  2.804449011E-02
 
[MO]
Sym=     1a  
Ene=   -27.8680
Spin= Alpha
Occup=    2.00000
   1        -0.99998812
   2         0.00487498
   3         0.00000000
   4        -0.00000000
   5        -0.00008360
   6         0.00004762
   7         0.00001101
   8        -0.00000000
   9         0.00000000
  10        -0.00000489
Sym=     2a  
Ene=   -27.8580
Spin= Alpha
Occup=    2.00000
   1         0.00004571
   2        -0.00001053
   3         0.00000000
   4         0.00000000
   5        -0.00000750
   6         0.99998812
   7        -0.00487700
   8         0.00000000
   9        -0.00000000
  10         0.00002139
Sym=     3a  
Ene=    -2.5857
Spin= Alpha
Occup=    2.00000
   1         0.00486444
   2         0.99832377
   3         0.00000000
   4         0.00000000
   5         0.02754755
   6         0.00009663
   7         0.04696549
   8        -0.00000000
   9         0.00000000
  10         0.00268716
Sym=     4a  
Ene=    -2.5746
Spin= Alpha
Occup=    2.00000
   1        -0.00037260
   2        -0.05232122
   3        -0.00000000
   4         0.00000000
   5        -0.00594994
   6         0.00488576
   7         0.99885564
   8         0.00000000
   9        -0.00000000
  10        -0.01687716
Sym=     5a  
Ene=    -1.7249
Spin= Alpha
Occup=    2.00000
   1         0.00020388
   2         0.02742186
   3         0.00000000
   4         0.00000000
   5        -1.00014086
   6         0.00159008
   7         0.01889175
   8        -0.00000000
   9        -0.00000000
  10        -0.00744556
Sym=     6a  
Ene=    -1.7068
Spin= Alpha
Occup=    2.00000
   1         0.00000000
   2         0.00000000
   3         0.00224472
   4        -0.00525839
   5         0.00000000
   6         0.00000000
   7         0.00000000
   8        -0.39262562
   9         0.91974775
  10         0.00000000
Sym=     7a  
Ene=    -1.7068
Spin= Alpha
Occup=    2.00000
   1         0.00000000
   2        -0.00000000
   3         0.00525839
   4         0.00224472
   5         0.00000000
   6        -0.00000000
   7         0.00000000
   8        -0.91974775
   9        -0.39262562
  10         0.00000000
Sym=     8a  
Ene=    -1.3745
Spin= Alpha
Occup=    1.00000
   1        -0.00000000
   2        -0.00000000
   3         0.74876618
   4        -0.66289753
   5         0.00000000
   6        -0.00000000
   7        -0.00000000
   8        -0.00380465
   9         0.00336833
  10         0.00000000
Sym=     9a  
Ene=    -0.0000
Spin= Alpha
Occup=    1.00000
   1         0.00000000
   2         0.00000000
   3        -0.66289753
   4        -0.74876618
   5        -0.00000000
   6         0.00000000
   7         0.00000000
   8         0.00336833
   9         0.00380465
  10        -0.00000000
Sym=    10a  
Ene=    -1.0278
Spin= Alpha
Occup=    0.00000
   1         0.00159991
   2         0.01965794
   3        -0.00000000
   4         0.00000000
   5         0.03200577
   6         0.00000552
   7         0.01584281
   8         0.00000000
   9        -0.00000000
  10         1.00087606
