[Molden Format]
[N_Atoms]
                     2
[Atoms] (AU)
F1          1      9           0.00000000      0.00000000      0.00000000
F2          2      9           0.00000000      0.00000000      5.29123315
[Charge] (Mulliken)
 -7.283063041541027E-014
  5.151434834260726E-014
[GTO] (AU)
   1
   s  14
  1.031094600E+05  1.713099991E-04
  1.528100700E+04  7.123999962E-04
  3.441539200E+03  2.990479984E-03
  9.670948300E+02  1.164036994E-02
  3.140353400E+02  3.968642979E-02
  1.134423000E+02  1.128546094E-01
  4.464472700E+01  2.473650687E-01
  1.894287400E+01  3.672702681E-01
  8.532743000E+00  2.896286985E-01
  3.919401000E+00  7.786681959E-02
  1.568157000E+00  4.562139976E-03
  6.232900000E-01  2.468879987E-03
  2.408610000E-01  1.106309994E-03
  8.430100000E-02  1.739699991E-04
   s  14
  1.031094600E+05 -4.044999995E-05
  1.528100700E+04 -1.682299998E-04
  3.441539200E+03 -7.084299991E-04
  9.670948300E+02 -2.767999996E-03
  3.140353400E+02 -9.611379987E-03
  1.134423000E+02 -2.833957996E-02
  4.464472700E+01 -6.839343991E-02
  1.894287400E+01 -1.237379298E-01
  8.532743000E+00 -1.512859698E-01
  3.919401000E+00 -9.099909988E-03
  1.568157000E+00  3.716257695E-01
  6.232900000E-01  5.500214393E-01
  2.408610000E-01  2.092318697E-01
  8.430100000E-02  8.074639989E-03
   p   9
  2.453302900E+02  1.024860004E-03
  5.691900500E+01  8.344290032E-03
  1.760456800E+01  4.078927016E-02
  6.274995000E+00  1.351370605E-01
  2.447030000E+00  2.798830811E-01
  9.950600000E-01  3.597966414E-01
  4.039730000E-01  3.055347412E-01
  1.548100000E-01  1.354703905E-01
  5.418400000E-02  2.804449011E-02
 
   2
   s  14
  1.031094600E+05  1.713099991E-04
  1.528100700E+04  7.123999962E-04
  3.441539200E+03  2.990479984E-03
  9.670948300E+02  1.164036994E-02
  3.140353400E+02  3.968642979E-02
  1.134423000E+02  1.128546094E-01
  4.464472700E+01  2.473650687E-01
  1.894287400E+01  3.672702681E-01
  8.532743000E+00  2.896286985E-01
  3.919401000E+00  7.786681959E-02
  1.568157000E+00  4.562139976E-03
  6.232900000E-01  2.468879987E-03
  2.408610000E-01  1.106309994E-03
  8.430100000E-02  1.739699991E-04
   s  14
  1.031094600E+05 -4.044999995E-05
  1.528100700E+04 -1.682299998E-04
  3.441539200E+03 -7.084299991E-04
  9.670948300E+02 -2.767999996E-03
  3.140353400E+02 -9.611379987E-03
  1.134423000E+02 -2.833957996E-02
  4.464472700E+01 -6.839343991E-02
  1.894287400E+01 -1.237379298E-01
  8.532743000E+00 -1.512859698E-01
  3.919401000E+00 -9.099909988E-03
  1.568157000E+00  3.716257695E-01
  6.232900000E-01  5.500214393E-01
  2.408610000E-01  2.092318697E-01
  8.430100000E-02  8.074639989E-03
   p   9
  2.453302900E+02  1.024860004E-03
  5.691900500E+01  8.344290032E-03
  1.760456800E+01  4.078927016E-02
  6.274995000E+00  1.351370605E-01
  2.447030000E+00  2.798830811E-01
  9.950600000E-01  3.597966414E-01
  4.039730000E-01  3.055347412E-01
  1.548100000E-01  1.354703905E-01
  5.418400000E-02  2.804449011E-02
 
[MO]
Sym=     1a  
Ene=   -26.4680
Spin= Alpha
Occup=    2.00000
   1         0.70710193
   2        -0.00240948
   3        -0.00000000
   4        -0.00000000
   5         0.00004236
   6         0.70710187
   7        -0.00240948
   8        -0.00000000
   9        -0.00000000
  10        -0.00004236
Sym=     2a  
Ene=   -26.4680
Spin= Alpha
Occup=    2.00000
   1        -0.70710346
   2         0.00239724
   3        -0.00000000
   4        -0.00000000
   5        -0.00003556
   6         0.70710351
   7        -0.00239724
   8        -0.00000000
   9        -0.00000000
  10        -0.00003556
Sym=     3a  
Ene=    -1.6163
Spin= Alpha
Occup=    2.00000
   1         0.00231742
   2         0.70536757
   3        -0.00000000
   4         0.00000000
   5         0.00532867
   6         0.00231742
   7         0.70536757
   8        -0.00000000
   9         0.00000000
  10        -0.00532867
Sym=     4a  
Ene=    -1.6084
Spin= Alpha
Occup=    2.00000
   1        -0.00246597
   2        -0.70843862
   3        -0.00000000
   4         0.00000000
   5         0.00912439
   6         0.00246597
   7         0.70843862
   8         0.00000000
   9         0.00000000
  10         0.00912439
Sym=     5a  
Ene=    -0.7408
Spin= Alpha
Occup=    2.00000
   1        -0.00000000
   2        -0.00000000
   3        -0.04270259
   4         0.70202216
   5         0.00000000
   6        -0.00000000
   7        -0.00000000
   8        -0.04270259
   9         0.70202216
  10        -0.00000000
Sym=     6a  
Ene=    -0.7370
Spin= Alpha
Occup=    2.00000
   1         0.00000000
   2        -0.00000000
   3         0.04316621
   4        -0.70964404
   5        -0.00000000
   6         0.00000000
   7         0.00000000
   8        -0.04316621
   9         0.70964404
  10         0.00000000
Sym=     7a  
Ene=    -0.6865
Spin= Alpha
Occup=    2.00000
   1        -0.00000000
   2        -0.00000000
   3         0.70202216
   4         0.04270259
   5         0.00000000
   6         0.00000000
   7         0.00000000
   8         0.70202216
   9         0.04270259
  10        -0.00000000
Sym=     8a  
Ene=    -0.5612
Spin= Alpha
Occup=    2.00000
   1         0.00118320
   2         0.02129080
   3         0.00000000
   4         0.00000000
   5        -0.69368175
   6         0.00118320
   7         0.02129080
   8         0.00000000
   9         0.00000000
  10         0.69368175
Sym=     9a  
Ene=    -0.6419
Spin= Alpha
Occup=    1.56517
   1        -0.00000000
   2         0.00000000
   3        -0.70964404
   4        -0.04316621
   5        -0.00000000
   6        -0.00000000
   7        -0.00000000
   8         0.70964404
   9         0.04316621
  10        -0.00000000
Sym=    10a  
Ene=     0.0001
Spin= Alpha
Occup=    0.43483
   1         0.00116805
   2         0.02562194
   3        -0.00000000
   4        -0.00000000
   5         0.72166084
   6        -0.00116805
   7        -0.02562194
   8         0.00000000
   9         0.00000000
  10         0.72166084
