   This run of MOLCAS is using the pymolcas driver

                             OPE
                             OPE          NMOL  CASOP  ENMOLC A   SO
                 OPE        NMOLC        AS  OP EN  MO LC     AS  OP
                OPENM       OL CA        SO  PE NM  OL CA     SOP EN
                OP EN      MO   LC       AS  OP ENMOL  CASO   PENMOL
                OP  EN     MO   LC       AS  OP EN     MO     LC ASO
               OP   E  NMOL  C  AS       OP  EN MO     LC     AS  OP
               OP  E   NMO   LC AS        OPEN  MO     LCASOP EN   M
               O  PEN   MO  LCA  SO
            OPE   NMO   L   CAS    OP
        OPENMOL  CASOP     ENMOL   CASOPE
     OPENMOLCA   SOPENMOLCASOPEN   MOLCASOPE
    OPENMOLCAS   OP           EN   MOL    CAS
    OPENMOLCAS       OP  ENM        O     LCA
    OPENMOLCAS    OPEN  MOLCASO     P  E  NMO
    OPENMOLCAS     OP               E  N  MOL
    OPENMOLCA   SO           PENM   O  L  CAS    OPEN    MO    LCAS
    OPENMOLCA   SOP           ENM   O  L  CAS   OP  EN  MOLC  AS   O
    OPENMOLCA   SOPE           NM      O  LCA   S      OP  EN MO
    OPENMOLC                AS         O  PEN   M      OL  CA  SOPE
    OPENMO        LCASOPE  NMOL        C  ASO   P      ENMOLC     AS
    OPE     NMO      LCA  SO     P     E   NM   OL  CA SO  PE N   MO
          OPENMOLCA            SOPE   NMO        LCAS  O    P  ENMO
     OPENMOLCASOPENMOLCASOPENMOLCASOPENMOLCA
        OPENMOLCASOPENMOLCASOPENMOLCASOPE
            OPENMOLCASOPENMOLCASOPENM
               OPENMOLCASOPENMOLCA        version: 1d1d16313-dirty
                   OPENMOLCASO
                       OPE                tag:

 OpenMolcas is free software; you can redistribute it and/or modify it
 under the terms of the GNU Lesser General Public License version 2.1.
 OpenMolcas is distributed in the hope that it will be useful, but it
 is provided "as is" and without any express or implied warranties.
 For more details see the full text of the license in the file
 LICENSE or in <http://www.gnu.org/licenses/>.

                 Copyright (C) The OpenMolcas Authors
           For the author list and the recommended citation,
                   consult the file CONTRIBUTORS.md

           *************************************************
           * pymolcas version py2.28                       *
           *   build c4a6d18ded8cb6cad61d2372a9abd97c      *
           *   (after the EMIL interpreter by V. Veryazov) *
           *************************************************

configuration info
------------------
C Compiler ID: IntelLLVM
C flags: -std=gnu99
Fortran Compiler ID: IntelLLVM
Fortran flags: -standard-semantics -fltconsistency -fpp -i8 -heap-arrays
Definitions: _MOLCAS_;_I8_;_LINUX_
Parallel: OFF (GA=OFF)


   --------------------------------------------------------------------------------
  |
  |              Project: ozone_108.00
  |       Submitted from: /home/grierjones/DDCASPT2/ozone/ANO-RCC-VDZP/ozone_108.00
  |         Scratch area: /tmp/ozone_108.00
  |      Save outputs to: /home/grierjones/DDCASPT2/ozone/ANO-RCC-VDZP/ozone_108.00
  |               Molcas: /home/grierjones/Test/build
  |
  | Scratch area is empty
  |
  |       MOLCAS_DRIVER = /usr/local/pymolcas
  | MOLCAS_KEEP_WORKDIR = NO
  |  MOLCAS_NEW_WORKDIR = YES
  |       MOLCAS_NPROCS = 1
  |        MOLCAS_PRINT = NORMAL
  |       MOLCAS_SOURCE = /home/grierjones/Test
  |    MOLCAS_STRUCTURE = 0
  |
   --------------------------------------------------------------------------------

++ ---------   Input file   ---------

&GATEWAY
coord=ozone_108.00.xyz
Basis = ANO-RCC-VDZP
Group = nosymm
Expert
End of Input

&SEWARD
End of Input

&SCF

>>> COPY $WorkDir/ozone_108.00.scf.h5 $CurrDir/

&RASSCF
Title= RASSCF
FileOrb
/home/grierjones/DDCASPT2/ozone/ANO-RCC-VDZP/ozone_107.75/ozone_107.75.RasOrb
NACTEL
4 0 0
Inactive
10
RAS2
3
Symmetry
1
Spin
1
orblisting
all
ITERation
300 200

>>> COPY $WorkDir/ozone_108.00.rasscf.h5 $CurrDir/

>>> COPY $WorkDir/GMJ_Fock_MO.csv $CurrDir/ozone_108.00.GMJ_Fock_MO.csv

>>> COPY $WorkDir/GMJ_PT2_Fock_MO.csv $CurrDir/ozone_108.00.GMJ_PT2_Fock_MO.csv

&MOTRA
Frozen=0
LUMORB

>>> COPY $WorkDir/GMJ_one_int_indx.csv $CurrDir/ozone_108.00.GMJ_one_int_indx.csv

>>> COPY $WorkDir/GMJ_one_int.csv $CurrDir/ozone_108.00.GMJ_one_int.csv

>>> COPY $WorkDir/GMJ_two_int_indx.csv $CurrDir/ozone_108.00.GMJ_two_int_indx.csv

>>> COPY $WorkDir/GMJ_two_int.csv $CurrDir/ozone_108.00.GMJ_two_int.csv

&CASPT2
Frozen
0
MAXITER
50

>>> FOREACH i IN (B,E,F,G,H)

  >>> FOREACH j IN (P,M)

    >>> IF (-FILE GMJ_e2_${i}_${j}.csv)

      >>> COPY $WorkDir/GMJ_RHS_${i}_${j}.csv $CurrDir/GMJ_RHS_${i}_${j}.csv

      >>> COPY $WorkDir/GMJ_IVECW_${i}_${j}.csv $CurrDir/GMJ_IVECW_${i}_${j}.csv

      >>> COPY $WorkDir/GMJ_IVECX_${i}_${j}.csv $CurrDir/GMJ_IVECX_${i}_${j}.csv

      >>> COPY $WorkDir/GMJ_IVECC2_${i}_${j}.csv $CurrDir/GMJ_IVECC2_${i}_${j}.csv

      >>> COPY $WorkDir/GMJ_e2_${i}_${j}.csv $CurrDir/GMJ_e2_${i}_${j}.csv

    >>> END IF

  >>> END FOREACH

>>> END FOREACH

>>> FOREACH i IN (A,C,D)

  >>> IF (-FILE GMJ_e2_$i.csv)

    >>> COPY $WorkDir/GMJ_RHS_$i.csv $CurrDir/GMJ_RHS_$i.csv

    >>> COPY $WorkDir/GMJ_IVECW_$i.csv $CurrDir/GMJ_IVECW_$i.csv

    >>> COPY $WorkDir/GMJ_IVECX_$i.csv $CurrDir/GMJ_IVECX_$i.csv

    >>> COPY $WorkDir/GMJ_IVECC2_$i.csv $CurrDir/GMJ_IVECC2_$i.csv

    >>> COPY $WorkDir/GMJ_e2_$i.csv $CurrDir/GMJ_e2_$i.csv

  >>> END IF

>>> END FOREACH

-- ----------------------------------

--- Start Module: gateway at Fri Jan 24 14:17:49 2025 ---
 
()()()()()()()()()()()()()()()()()()()()()()()()()()()()()()()()()()()()()()()()()()()()()()()()()()

                                              &GATEWAY

                                   only a single process is used
                       available to each process: 2.0 GB of memory, 1 thread?
()()()()()()()()()()()()()()()()()()()()()()()()()()()()()()()()()()()()()()()()()()()()()()()()()()
 
 ###############################################################################
 ###############################################################################
 ###                                                                         ###
 ###                                                                         ###
 ###                                                                         ###
 ###    WARNING: EXPERT option is ON!                                        ###
 ###                                                                         ###
 ###                                                                         ###
 ###############################################################################
 ###############################################################################
 
++    Symmetry information:
      ---------------------
 
                    Character Table for C1 
 
                             E  
                    a        1  x, y, xy, Rz, z, xz, Ry, yz, Rx, I
--
 
 
++    Basis set information:
      ----------------------
 
 
      Basis set label: O.ANO-RCC...3S2P1D.
 
      Electronic valence basis set:
      ------------------
      Associated Effective Charge   8.000000 au
      Associated Actual Charge      8.000000 au
      Nuclear Model: Point charge
 
      Shell  nPrim  nBasis  Cartesian Spherical Contaminant
         s      14       3        X                  
         p       9       2        X                  
         d       4       1                 X         
--
 
 
++    Molecular structure info:
      -------------------------
 
                    ************************************************ 
                    **** Cartesian Coordinates / Bohr, Angstrom **** 
                    ************************************************ 
 
     Center  Label                x              y              z                     x              y              z
        1      O1               1.419543       1.953833       0.000000              0.751190       1.033924       0.000000
        2      O2               0.000000       0.000000       0.000000              0.000000       0.000000       0.000000
        3      O3               1.419543      -1.953833       0.000000              0.751190      -1.033924       0.000000
 
                    *************************************** 
                    *    InterNuclear Distances / Bohr    * 
                    *************************************** 
 
               1 O1            2 O2            3 O3    
    1 O1       0.000000
    2 O2       2.415071        0.000000
    3 O3       3.907666        2.415071        0.000000
 
                    ******************************************* 
                    *    InterNuclear Distances / Angstrom    * 
                    ******************************************* 
 
               1 O1            2 O2            3 O3    
    1 O1       0.000000
    2 O2       1.278000        0.000000
    3 O3       2.067848        1.278000        0.000000
 
                    ************************************** 
                    *    Valence Bond Angles / Degree    * 
                    ************************************** 
                          Atom centers                 Phi
                      1 O1       2 O2       3 O3       108.00
--
 
 
            Nuclear Potential Energy             69.37857544 au
 
 ###############################################################################
 ###############################################################################
 ###                                                                         ###
 ###                                                                         ###
 ###    There were warnings during the execution                             ###
 ###    Please, check the output with care!                                  ###
 ###                                                                         ###
 ###                                                                         ###
 ###############################################################################
 ###############################################################################
--- Stop Module: gateway at Fri Jan 24 14:17:50 2025 /rc=_RC_ALL_IS_WELL_ ---
*** files: xmldump
    saved to directory /home/grierjones/DDCASPT2/ozone/ANO-RCC-VDZP/ozone_108.00

--- Start Module: seward at Fri Jan 24 14:17:50 2025 ---
 
()()()()()()()()()()()()()()()()()()()()()()()()()()()()()()()()()()()()()()()()()()()()()()()()()()

                                              &SEWARD

                                   only a single process is used
                       available to each process: 2.0 GB of memory, 1 thread?
()()()()()()()()()()()()()()()()()()()()()()()()()()()()()()()()()()()()()()()()()()()()()()()()()()
 
 ###############################################################################
 ###############################################################################
 ###                                                                         ###
 ###                                                                         ###
 ###                                                                         ###
 ###    WARNING: EXPERT option is ON!                                        ###
 ###                                                                         ###
 ###                                                                         ###
 ###############################################################################
 ###############################################################################
               SEWARD will generate:
                  Multipole Moment integrals up to order  2
                  Kinetic Energy integrals
                  Nuclear Attraction integrals (point charge)
                  One-Electron Hamiltonian integrals
                  Velocity integrals
                  Relativistic Douglas-Kroll-Hess integrals:
                    - Parametrization         : EXP
                    - DKH order of Hamiltonian: 2
                    - DKH order of Properties : 0
                         - multipole moment operators
                         - electric potential operators
                         - contact operators
                  Atomic mean-field integrals
                  Two-Electron Repulsion integrals
 
                   Integrals are discarded if absolute value <: 0.10E-13
                   Integral cutoff threshold is set to       <: 0.10E-15
 
            Nuclear Potential Energy             69.37857544 au
 
 
      Basis set specifications :
      Symmetry species         a  
      Basis functions           42
 
 
  Input file to MOLDEN was generated!
 
 ###############################################################################
 ###############################################################################
 ###                                                                         ###
 ###                                                                         ###
 ###    There were warnings during the execution                             ###
 ###    Please, check the output with care!                                  ###
 ###                                                                         ###
 ###                                                                         ###
 ###############################################################################
 ###############################################################################
forrtl: warning (525): IEEE_DIVIDE_BY_ZERO is signaling
forrtl: warning (526): IEEE_INVALID is signaling
forrtl: warning (528): IEEE_UNDERFLOW is signaling
--- Stop Module: seward at Fri Jan 24 14:17:51 2025 /rc=_RC_ALL_IS_WELL_ ---
*** files: ozone_108.00.GssOrb ozone_108.00.guessorb.h5 ozone_108.00.guessorb.molden xmldump
    saved to directory /home/grierjones/DDCASPT2/ozone/ANO-RCC-VDZP/ozone_108.00
--- Module seward spent 1 second ---

*** symbolic link created: INPORB -> ozone_108.00.GssOrb
--- Start Module: scf at Fri Jan 24 14:17:51 2025 ---
 
()()()()()()()()()()()()()()()()()()()()()()()()()()()()()()()()()()()()()()()()()()()()()()()()()()

                                                &SCF

                                   only a single process is used
                       available to each process: 2.0 GB of memory, 1 thread?
()()()()()()()()()()()()()()()()()()()()()()()()()()()()()()()()()()()()()()()()()()()()()()()()()()
 
++    Input section:
      --------------
 
      Header of the integral files:
      
       Integrals generated by seward 4.2.0  , Fri Jan 24 14:17:50 2025
 
 
      Cartesian coordinates in Angstrom:
      -----------------------------------------------------
      No.  Label        X            Y            Z        
      -----------------------------------------------------
       1   O1         0.75119000   1.03392400   0.00000000
       2   O2         0.00000000   0.00000000   0.00000000
       3   O3         0.75119000  -1.03392400   0.00000000
      -----------------------------------------------------
      Nuclear repulsion energy =   69.37857544
--
 
++    Orbital specifications:
      -----------------------
 
      Symmetry species               1
                                     a
      Frozen orbitals                0
      Occupied orbitals             12
      Secondary orbitals            30
      Deleted orbitals               0
      Total number of orbitals      42
      Number of basis functions     42
--
 
      Molecular charge                           0.000
 
++    Optimization specifications:
      ----------------------------
 
      SCF Algorithm: Conventional
      Minimized density differences are used
      Number of density matrices in core                5
      Maximum number of NDDO SCF iterations           400
      Maximum number of HF SCF iterations             400
      Threshold for SCF energy change            0.10E-08
      Threshold for density matrix               0.10E-03
      Threshold for Fock matrix                  0.15E-03
      Threshold for linear dependence            0.10E-08
      Threshold at which DIIS is turned on       0.15E+00
      Threshold at which QNR/C2DIIS is turned on 0.75E-01
      Threshold for Norm(delta) (QNR/C2DIIS)     0.20E-04
      DIIS extrapolation of the SCF procedure
      All orbitals punched on: SCFORB
--
 
      Input vectors read from INPORB
      Orbital file label: *Guess orbitals
 
 
++ Convergence information
                                   SCF        iterations: Energy and convergence statistics
 
Iter     Tot. SCF        One-elec.       Two-elec.     Energy      Max Dij or  Max Fij      DNorm      TNorm      AccCon     Time
         Energy          Energy          Energy        Change      Delta Norm                                                in Sec.
   1  -223.854672664  -442.497661345   149.264413237   0.00E+00    0.67E+00*   0.28E+00*    0.74E+01   0.77E+02   None         0.
   2  -224.068803157  -448.509379804   155.062001203  -0.21E+00*   0.21E+00*   0.18E+00*    0.27E+01   0.78E+02   EDIIS        0.
   3  -224.447315537  -446.200523858   152.374632877  -0.38E+00*   0.23E+00*   0.85E-01*    0.73E+00   0.78E+02   EDIIS        0.
   4  -224.446825211  -446.635141826   152.809741170   0.49E-03*   0.16E-01*   0.44E-01*    0.25E+00   0.78E+02   EDIIS        0.
   5  -224.484359875  -446.363493431   152.500558111  -0.38E-01*   0.67E-02*   0.28E-02*    0.38E-01   0.78E+02   c2DIIS       0.
   6  -224.484470658  -446.391940408   152.528894306  -0.11E-03*   0.25E-02*   0.11E-02*    0.70E-02   0.78E+02   QNRc2DIIS    0.
   7  -224.484489413  -446.385172094   152.522107237  -0.19E-04*   0.26E-02*   0.50E-03*    0.33E-02   0.78E+02   QNRc2DIIS    0.
   8  -224.484495537  -446.389584882   152.526513900  -0.61E-05*   0.41E-03*   0.27E-03*    0.21E-02   0.78E+02   QNRc2DIIS    0.
   9  -224.484496070  -446.389055213   152.525983699  -0.53E-06*   0.53E-03*   0.22E-03*    0.33E-03   0.78E+02   QNRc2DIIS    0.
  10  -224.484496357  -446.386747291   152.523675490  -0.29E-06*   0.11E-03*   0.56E-04     0.15E-03   0.78E+02   QNRc2DIIS    0.
  11  -224.484496385  -446.388320785   152.525248956  -0.28E-07*   0.27E-04*   0.94E-05     0.85E-04   0.78E+02   QNRc2DIIS    0.
  12  -224.484496387  -446.388302034   152.525230203  -0.19E-08*   0.14E-04    0.38E-05     0.90E-04   0.78E+02   QNRc2DIIS    0.
  13  -224.484496387  -446.388242186   152.525170355  -0.29E-09    0.44E-05    0.11E-05     0.13E-03   0.78E+02   QNRc2DIIS    0.
 
       Convergence after 13 Macro Iterations
--
 
 *****************************************************************************************************************************
 *                                                                                                                           *
 *                                             SCF/KS-DFT Program, Final results                                             *
 *                                                                                                                           *
 *                                                                                                                           *
 *                                                                                                                           *
 *                                                       Final Results                                                       *
 *                                                                                                                           *
 *****************************************************************************************************************************
 
::    Total SCF energy                               -224.4844963868
      One-electron energy                            -446.3882421864
      Two-electron energy                             152.5251703549
      Nuclear repulsion energy                         69.3785754446
      Kinetic energy (interpolated)                   225.4512954827
      Virial theorem                                    0.9957117164
      Total spin, S(S+1)                                0.0000000000
      Total spin, S                                     0.0000000000
      Max non-diagonal density matrix element           0.0000052850
      Max non-diagonal Fock matrix element              0.0000011701
 
 
      All orbitals with orbital energies smaller than  E(LUMO)+0.5 are printed
 
++    Molecular orbitals:
      -------------------
 
      Title: SCF orbitals

      Molecular orbitals for symmetry species 1: a  
 
          Orbital            1         2         3         4         5         6         7         8         9        10    
          Energy          -20.9223  -20.7138  -20.7138   -1.7628   -1.4211   -1.1109   -0.8345   -0.7986   -0.7852   -0.5716
          Occ. No.          2.0000    2.0000    2.0000    2.0000    2.0000    2.0000    2.0000    2.0000    2.0000    2.0000
 
        1 O1     1s         0.0017   -0.7072    0.7072   -0.0161    0.0097    0.0077   -0.0150   -0.0197   -0.0000    0.0066
        2 O1     2s        -0.0003   -0.0005    0.0006    0.3149   -0.5889    0.5636   -0.3091   -0.4042   -0.0000    0.0484
        3 O1     3s        -0.0002    0.0002   -0.0001   -0.0243    0.0113    0.0099   -0.0302   -0.0288   -0.0000    0.0209
        4 O1     2px        0.0001    0.0006   -0.0005   -0.0595    0.0702    0.1097    0.0825   -0.3527   -0.0000    0.6203
        5 O1     3px        0.0003   -0.0001    0.0003    0.0154   -0.0108   -0.0177   -0.0056    0.0256    0.0000    0.0022
        6 O1     2py        0.0002    0.0006   -0.0008   -0.0978    0.0598    0.0588   -0.3746   -0.2339   -0.0000   -0.2030
        7 O1     3py        0.0002   -0.0004    0.0003    0.0257   -0.0098   -0.0084    0.0374    0.0162    0.0000   -0.0231
        8 O1     2pz        0.0000    0.0000    0.0000    0.0000   -0.0000   -0.0000   -0.0000   -0.0000    0.3603   -0.0000
        9 O1     3pz       -0.0000   -0.0000   -0.0000   -0.0000    0.0000    0.0000    0.0000    0.0000   -0.0258    0.0000
       10 O1     3d2-      -0.0001    0.0001   -0.0001    0.0183   -0.0138   -0.0106    0.0128    0.0287    0.0000   -0.0153
       11 O1     3d1-      -0.0000    0.0000    0.0000    0.0000    0.0000    0.0000   -0.0000    0.0000   -0.0243   -0.0000
       12 O1     3d0        0.0001    0.0001   -0.0001   -0.0100    0.0083    0.0026   -0.0106   -0.0159   -0.0000    0.0052
       13 O1     3d1+       0.0000   -0.0000   -0.0000    0.0000    0.0000    0.0000   -0.0000    0.0000   -0.0181    0.0000
       14 O1     3d2+       0.0001   -0.0000    0.0000   -0.0072    0.0017   -0.0020   -0.0223    0.0005   -0.0000   -0.0060
       15 O2     1s         1.0001   -0.0000   -0.0026   -0.0211    0.0000   -0.0166   -0.0075    0.0000    0.0000    0.0148
       16 O2     2s         0.0008   -0.0000   -0.0007    0.6490    0.0000   -0.6786   -0.0860   -0.0000    0.0000    0.2028
       17 O2     3s         0.0000   -0.0000   -0.0006   -0.0413    0.0000   -0.0050   -0.0136    0.0000    0.0000    0.0236
       18 O2     2px        0.0011   -0.0000   -0.0005    0.1346   -0.0000    0.2710    0.6494   -0.0000    0.0000   -0.4746
       19 O2     3px       -0.0007   -0.0000   -0.0006   -0.0283    0.0000   -0.0320   -0.0539    0.0000    0.0000   -0.0116
       20 O2     2py       -0.0000    0.0005   -0.0000    0.0000   -0.3273   -0.0000    0.0000    0.5627    0.0000    0.0000
       21 O2     3py        0.0000    0.0007   -0.0000   -0.0000    0.0683    0.0000   -0.0000   -0.0684   -0.0000    0.0000
       22 O2     2pz       -0.0000    0.0000    0.0000    0.0000   -0.0000   -0.0000   -0.0000   -0.0000    0.7120    0.0000
       23 O2     3pz        0.0000   -0.0000    0.0000    0.0000    0.0000   -0.0000   -0.0000    0.0000   -0.0276   -0.0000
       24 O2     3d2-       0.0000    0.0003   -0.0000    0.0000   -0.0422   -0.0000    0.0000    0.0304    0.0000    0.0000
       25 O2     3d1-      -0.0000   -0.0000   -0.0000    0.0000    0.0000   -0.0000    0.0000   -0.0000    0.0000   -0.0000
       26 O2     3d0       -0.0003    0.0000    0.0003   -0.0185   -0.0000   -0.0076   -0.0164    0.0000   -0.0000    0.0177
       27 O2     3d1+       0.0000   -0.0000    0.0000    0.0000   -0.0000   -0.0000   -0.0000   -0.0000    0.0369    0.0000
       28 O2     3d2+       0.0000    0.0000    0.0001   -0.0056   -0.0000    0.0049    0.0255   -0.0000   -0.0000    0.0342
       29 O3     1s         0.0017    0.7072    0.7072   -0.0161   -0.0097    0.0077   -0.0150    0.0197    0.0000    0.0066
       30 O3     2s        -0.0003    0.0005    0.0006    0.3149    0.5889    0.5636   -0.3091    0.4042    0.0000    0.0484
       31 O3     3s        -0.0002   -0.0002   -0.0001   -0.0243   -0.0113    0.0099   -0.0302    0.0288    0.0000    0.0209
       32 O3     2px        0.0001   -0.0006   -0.0005   -0.0595   -0.0702    0.1097    0.0825    0.3527    0.0000    0.6203
       33 O3     3px        0.0003    0.0001    0.0003    0.0154    0.0108   -0.0177   -0.0056   -0.0256    0.0000    0.0022
       34 O3     2py       -0.0002    0.0006    0.0008    0.0978    0.0598   -0.0588    0.3746   -0.2339   -0.0000    0.2030
       35 O3     3py       -0.0002   -0.0004   -0.0003   -0.0257   -0.0098    0.0084   -0.0374    0.0162    0.0000    0.0231
       36 O3     2pz       -0.0000   -0.0000    0.0000    0.0000    0.0000   -0.0000   -0.0000   -0.0000    0.3603    0.0000
       37 O3     3pz       -0.0000   -0.0000   -0.0000    0.0000    0.0000    0.0000    0.0000    0.0000   -0.0258    0.0000
       38 O3     3d2-       0.0001    0.0001    0.0001   -0.0183   -0.0138    0.0106   -0.0128    0.0287    0.0000    0.0153
       39 O3     3d1-      -0.0000   -0.0000   -0.0000    0.0000   -0.0000   -0.0000   -0.0000   -0.0000    0.0243    0.0000
       40 O3     3d0        0.0001   -0.0001   -0.0001   -0.0100   -0.0083    0.0026   -0.0106    0.0159    0.0000    0.0052
       41 O3     3d1+       0.0000    0.0000    0.0000    0.0000   -0.0000   -0.0000    0.0000    0.0000   -0.0181   -0.0000
       42 O3     3d2+       0.0001    0.0000    0.0000   -0.0072   -0.0017   -0.0020   -0.0223   -0.0005   -0.0000   -0.0060
 
          Orbital           11        12        13        14        15    
          Energy           -0.5510   -0.4833   -0.0567    0.2564    0.2657
          Occ. No.          2.0000    2.0000    0.0000    0.0000    0.0000
 
        1 O1     1s         0.0016    0.0000   -0.0000   -0.0697   -0.1163
        2 O1     2s         0.0055    0.0000   -0.0000   -0.5885   -0.9180
        3 O1     3s         0.0036    0.0000   -0.0000   -0.1803   -0.2841
        4 O1     2px       -0.4886   -0.0000    0.0000    0.3267    0.5723
        5 O1     3px       -0.0201   -0.0000    0.0000    0.2312    0.3109
        6 O1     2py        0.5682    0.0000    0.0000    0.6970    0.4418
        7 O1     3py        0.0072   -0.0000    0.0000    0.3700    0.3891
        8 O1     2pz        0.0000   -0.7231    0.6539   -0.0000   -0.0000
        9 O1     3pz       -0.0000   -0.0517    0.1264    0.0000   -0.0000
       10 O1     3d2-      -0.0059   -0.0000   -0.0000    0.0014   -0.0163
       11 O1     3d1-       0.0000    0.0193    0.0049    0.0000    0.0000
       12 O1     3d0        0.0035    0.0000   -0.0000    0.0052    0.0083
       13 O1     3d1+       0.0000    0.0154    0.0053    0.0000   -0.0000
       14 O1     3d2+       0.0168    0.0000   -0.0000    0.0017    0.0094
       15 O2     1s         0.0000   -0.0000    0.0000    0.1809   -0.0000
       16 O2     2s         0.0000   -0.0000    0.0000    1.4270   -0.0000
       17 O2     3s         0.0000   -0.0000    0.0000    0.3934   -0.0000
       18 O2     2px       -0.0000   -0.0000    0.0000    0.7552   -0.0000
       19 O2     3px       -0.0000   -0.0000    0.0000    0.4906   -0.0000
       20 O2     2py       -0.1372   -0.0000    0.0000    0.0000    1.2065
       21 O2     3py        0.0039   -0.0000    0.0000    0.0000    0.7454
       22 O2     2pz       -0.0000   -0.0000   -0.8287    0.0000    0.0000
       23 O2     3pz        0.0000   -0.0000   -0.1365    0.0000    0.0000
       24 O2     3d2-      -0.0333   -0.0000    0.0000    0.0000    0.0146
       25 O2     3d1-       0.0000   -0.0482    0.0000   -0.0000   -0.0000
       26 O2     3d0        0.0000   -0.0000    0.0000    0.0003    0.0000
       27 O2     3d1+      -0.0000   -0.0000    0.0071   -0.0000   -0.0000
       28 O2     3d2+       0.0000   -0.0000   -0.0000   -0.0002    0.0000
       29 O3     1s        -0.0016   -0.0000    0.0000   -0.0697    0.1163
       30 O3     2s        -0.0055   -0.0000    0.0000   -0.5885    0.9180
       31 O3     3s        -0.0036   -0.0000    0.0000   -0.1803    0.2841
       32 O3     2px        0.4886   -0.0000   -0.0000    0.3267   -0.5723
       33 O3     3px        0.0201   -0.0000    0.0000    0.2312   -0.3109
       34 O3     2py        0.5682    0.0000   -0.0000   -0.6970    0.4418
       35 O3     3py        0.0072    0.0000   -0.0000   -0.3700    0.3891
       36 O3     2pz       -0.0000    0.7231    0.6539   -0.0000   -0.0000
       37 O3     3pz        0.0000    0.0517    0.1264    0.0000   -0.0000
       38 O3     3d2-      -0.0059   -0.0000    0.0000   -0.0014   -0.0163
       39 O3     3d1-      -0.0000    0.0193   -0.0049   -0.0000    0.0000
       40 O3     3d0       -0.0035   -0.0000    0.0000    0.0052   -0.0083
       41 O3     3d1+       0.0000   -0.0154    0.0053    0.0000    0.0000
       42 O3     3d2+      -0.0168   -0.0000    0.0000    0.0017   -0.0094
--
 
 
++    Molecular charges:
      ------------------
 
      Mulliken charges per centre and basis function type
      ---------------------------------------------------
 
                O1      O2      O3    
      1s       2.0003  2.0003  2.0003
      2s       1.9227  1.7843  1.9227
      2px      1.5930  1.5139  1.5930
      2pz      1.3687  1.2319  1.3687
      2py      1.2647  1.0590  1.2647
      3s      -0.0072 -0.0100 -0.0072
      3px     -0.0137 -0.0172 -0.0137
      3pz     -0.0178 -0.0083 -0.0178
      3py     -0.0019  0.0106 -0.0019
      3d2+     0.0072  0.0345  0.0072
      3d1+     0.0053  0.0113  0.0053
      3d0      0.0055  0.0079  0.0055
      3d1-     0.0087  0.0354  0.0087
      3d2-     0.0189  0.0379  0.0189
      Total    8.1542  7.6915  8.1542
 
      N-E     -0.1542  0.3085 -0.1542
 
      Total electronic charge=   24.000000
 
      Total            charge=   -0.000000
--
 
 
  Input file to MOLDEN was generated!
 
 
++    Static properties:
      ------------------
 
 
      LoProp Charges per center
 

                   O1       O2       O3    
      Nuclear      8.0000   8.0000   8.0000
      Electronic  -8.2040  -7.5921  -8.2040
 
      Total       -0.2040   0.4079  -0.2040
--
 
 
++    Natural Bond Order analysis
      ---------------------------
      Based on LoProp computed density
      -------------------------------------------------------------------------------------
      Atom A       Atom B       Bond Order | Atom A       Atom B       Bond Order
        O1           O2             2.000  |   O2           O3             2.000
      -------------------------------------------------------------------------------------
      NBO located     12.000 core electrons.
      NBO located      3.968 lone pair electrons.
      NBO located      8.000 electrons involved in    2 bonds.
      The remaining    0.032 electrons are to be considered as diffuse
--
 
 
++    Molecular properties:
      ---------------------
 
      Charge (e):
                      =   -0.0000
      Dipole Moment (Debye):
      Origin of the operator (Ang)=    0.0000    0.0000    0.0000
                   X= -9.7081E-01               Y=  2.7409E-10               Z= -4.5474E-14           Total=  9.7081E-01
      Quadrupole Moment (Debye*Ang):
      Origin of the operator (Ang)=    0.5008    0.0000    0.0000
                  XX= -1.5690E+01              XY=  1.5491E-10              XZ= -9.6929E-14              YY= -1.7861E+01
                  YZ= -2.5393E-13              ZZ= -1.5123E+01
      In traceless form (Debye*Ang)
                  XX=  8.0189E-01              XY=  2.3236E-10              XZ= -1.4539E-13              YY= -2.4549E+00
                  YZ= -3.8090E-13              ZZ=  1.6530E+00
--
 
 
  Input file to MOLDEN was generated!
 
 ###############################################################################
 ###############################################################################
 ###                                                                         ###
 ###                                                                         ###
 ###    RunFile label nBas                                                   ###
 ###    was used       78 times                                              ###
 ###                                                                         ###
 ###                                                                         ###
 ###############################################################################
 ###############################################################################
forrtl: warning (528): IEEE_UNDERFLOW is signaling
--- Stop Module: scf at Fri Jan 24 14:17:52 2025 /rc=_RC_ALL_IS_WELL_ ---
*** files: ozone_108.00.LprOrb ozone_108.00.LoProp.molden ozone_108.00.scf.molden ozone_108.00.ScfOrb ozone_108.00.scf.h5 xmldump
    saved to directory /home/grierjones/DDCASPT2/ozone/ANO-RCC-VDZP/ozone_108.00

>>> COPY /tmp/ozone_108.00/ozone_108.00.scf.h5 /home/grierjones/DDCASPT2/ozone/ANO-RCC-VDZP/ozone_108.00/

*** symbolic link created: INPORB -> ozone_108.00.ScfOrb
--- Start Module: rasscf at Fri Jan 24 14:17:52 2025 ---
 
()()()()()()()()()()()()()()()()()()()()()()()()()()()()()()()()()()()()()()()()()()()()()()()()()()

                                              &RASSCF

                                   only a single process is used
                       available to each process: 2.0 GB of memory, 1 thread?
()()()()()()()()()()()()()()()()()()()()()()()()()()()()()()()()()()()()()()()()()()()()()()()()()()
 
 
 *************** WARNING ****************
 ###############################################################################
 ###############################################################################
 ###                                                                         ###
 ###                                                                         ###
 ###    Too many macro-iterations.                                           ###
 ###                                                                         ###
 ###                                                                         ###
 ###############################################################################
 ###############################################################################
 Too many macro-iterations requested.
 Reset to maximum, new MAXIT=     200
 ****************************************
 
 *************** WARNING ****************
 ###############################################################################
 ###############################################################################
 ###                                                                         ###
 ###                                                                         ###
 ###    Too many SX-iterations.                                              ###
 ###                                                                         ###
 ###                                                                         ###
 ###############################################################################
 ###############################################################################
 Too many SX-iterations requested.
 Reset to maximum, new ITMAX=     100
 ****************************************
 
      Header of the ONEINT file:
      --------------------------
      
      Integrals generated by seward 4.2.0  , Fri Jan 24 14:17:50 2025
 
 
      OrdInt status: non-squared
 
 
      Cartesian coordinates in Angstrom:
      -----------------------------------------------------
      No.  Label        X            Y            Z        
      -----------------------------------------------------
       1   O1         0.75119000   1.03392400   0.00000000
       2   O2         0.00000000   0.00000000   0.00000000
       3   O3         0.75119000  -1.03392400   0.00000000
      -----------------------------------------------------
      Nuclear repulsion energy =   69.37857544
 
++    Wave function specifications:
      -----------------------------
 
      Number of closed shell electrons          20
      Number of electrons in active shells       4
      Max number of holes in RAS1 space          0
      Max nr of electrons in RAS3 space          0
      Number of inactive orbitals               10
      Number of active orbitals                  3
      Number of secondary orbitals              29
      Spin quantum number                      0.0
      State symmetry                             1
--
 
++    Orbital specifications:
      -----------------------
 
      Symmetry species                           1
                                                 a
      Frozen orbitals                            0
      Inactive orbitals                         10
      Active orbitals                            3
      RAS1 orbitals                              0
      RAS2 orbitals                              3
      RAS3 orbitals                              0
      Secondary orbitals                        29
      Deleted orbitals                           0
      Number of basis functions                 42
--
 
++    CI expansion specifications:
      ----------------------------
 
      Number of CSFs                             6
      Number of determinants                     6
      Number of root(s) required                 1
      Root chosen for geometry opt.              1
      CI root used                               1
         
      highest root included in the CI            1
      max. size of the explicit Hamiltonian      6
--
 
++    Optimization specifications:
      ----------------------------
 
      RASSCF algorithm: Conventional
      Maximum number of macro iterations       200
      Maximum number of SX iterations          100
      Threshold for RASSCF energy            0.100E-07
      Threshold for max MO rotation          0.100E+00
      Threshold for max BLB element          0.100E-03
      Level shift parameter                  0.500E+00
      Make Quasi-Newton update
--
 
      The MO-coefficients are taken from the file:
      /home/grierjones/DDCASPT2/ozone/ANO-RCC-VDZP/ozone_107.75/ozone_107.75.RasOrb                                                   
      Title: RASSCF average (pseudo-natural) orbitals                                      
 
      Total molecular charge    0.00
 
      ************************************************************************************************************************
      *                                                                                                                      *
      *                                            Wave function control section                                             *
      *                                                                                                                      *
      ************************************************************************************************************************
 
 
                                         RASSCF iterations: Energy and convergence statistics
                                         ----------------------------------------------------
 
      Iter CI   SX   CI       RASSCF       Energy    max ROT     max BLB   max BLB  Level Ln srch  Step   QN   Walltime
          iter iter root      energy       change     param      element    value   shift minimum  type update hh:mm:ss
 Nr of preliminary CI iterations:   1
        1   1    3    1  -224.58699528    0.00E+00  -0.47E-03    4  42 1  0.12E-02*  0.18   0.00    SX    NO    0:00:00
        2   1    3    1  -224.58700064   -0.54E-05* -0.28E-03    9  14 1 -0.56E-03*  0.18   0.00    SX    NO    0:00:00
        3   1    3    1  -224.58700188   -0.12E-05* -0.16E-03   10  18 1 -0.39E-03*  0.18   0.00    SX    NO    0:00:00
        4   1    3    1  -224.58700229   -0.41E-06* -0.99E-04   10  18 1 -0.21E-03*  0.18   0.00    SX    NO    0:00:00
        5   1    3    1  -224.58700243   -0.14E-06* -0.14E-03   10  18 1 -0.15E-03*  0.18   2.45    LS   YES    0:00:00
        6   1    3    1  -224.58700250   -0.64E-07* -0.38E-04    8  18 1  0.12E-03*  0.18   0.87    QN   YES    0:00:00
        7   1    3    1  -224.58700251   -0.17E-07* -0.12E-04    8  18 1 -0.58E-04   0.18   0.73    QN   YES    0:00:00
        8   1    3    1  -224.58700251   -0.14E-09  -0.60E-05    8  18 1  0.40E-04   0.18   0.44    QN   YES    0:00:00
      Convergence after  8 iterations
 
  Dmat in MO in SXCTL bf call to SXHAM                                                                                    
  mat. size =     3x    3
 
        1.9936778602226870
        0.0000000000024606      1.5661677002951653
        0.0006207176172451      0.0000000000030121      0.4401544394821477
        9   1    3    1  -224.58700252   -0.63E-09  -0.60E-05    8  18 1  0.25E-05   0.18   0.44    QN   YES    0:00:00
 
      ************************************************************************************************************************
                                                      Wave function printout:
                       occupation of active orbitals, and spin coupling of open shells (u,d: Spin up or down)
      ************************************************************************************************************************
 
      Note: transformation to natural orbitals
      has been made, which may change the order of the CSFs.
 
      printout of CI-coefficients larger than  0.05 for root  1
      energy=    -224.587003
      conf/sym  111     Coeff  Weight
             1  220  -0.88313 0.77992
             3  202   0.46574 0.21692
             6  022   0.05622 0.00316
 
      Natural orbitals and occupation numbers for root  1
      sym 1:   1.993678   1.566168   0.440154
 
      ************************************************************************************************************************
      *                                                                                                                      *
      *                                                    Final results                                                     *
      *                                                                                                                      *
      ************************************************************************************************************************
 
 
++    Wave function specifications:
      -----------------------------
 
      Number of closed shell electrons          20
      Number of electrons in active shells       4
      Max number of holes in RAS1 space          0
      Max nr of electrons in RAS3 space          0
      Number of inactive orbitals               10
      Number of active orbitals                  3
      Number of secondary orbitals              29
      Spin quantum number                      0.0
      State symmetry                             1
--
 
++    Orbital specifications:
      -----------------------
 
      Symmetry species                           1
                                                 a
      Frozen orbitals                            0
      Inactive orbitals                         10
      Active orbitals                            3
      RAS1 orbitals                              0
      RAS2 orbitals                              3
      RAS3 orbitals                              0
      Secondary orbitals                        29
      Deleted orbitals                           0
      Number of basis functions                 42
--
 
++    CI expansion specifications:
      ----------------------------
 
      Number of CSFs                             6
      Number of determinants                     6
      Number of root(s) required                 1
      CI root used                               1
      highest root included in the CI            1
      Root passed to geometry opt.               1
--
 
++    Final optimization conditions:
      ------------------------------
 
      Average CI energy                            -224.58700252
      RASSCF energy for state  1                   -224.58700252
      Super-CI energy                                -0.00000000
      RASSCF energy change                           -0.00000000
      Max change in MO coefficients               0.661E-05
      Max non-diagonal density matrix element    -0.602E-05
      Maximum BLB matrix element                  0.252E-05
      (orbital pair   8,  18 in symmetry   1)
      Norm of electronic gradient            0.176E-04
--
 
 
      Final state energy(ies):
      ------------------------
 
::    RASSCF root number  1 Total energy:   -224.58700252
 
++    Molecular orbitals:
      -------------------
 
      Pseudonatural active orbitals and approximate occupation numbers
 
 
 
 
      Molecular orbitals for symmetry species 1: a  
 
 
      Orbital                1         2         3         4         5         6         7         8         9        10
      Energy          -20.8153  -20.7066  -20.7065   -1.7264   -1.4039   -1.0865   -0.8010   -0.7788   -0.5578   -0.5526
      Occ. No.          2.0000    2.0000    2.0000    2.0000    2.0000    2.0000    2.0000    2.0000    2.0000    2.0000
 
    1 O1     1s         0.0031   -0.7072    0.7072   -0.0158    0.0085    0.0098   -0.0131   -0.0184    0.0068    0.0018
    2 O1     2s        -0.0002   -0.0004    0.0006    0.3359   -0.6088    0.5784   -0.2492   -0.3652    0.0438    0.0057
    3 O1     3s        -0.0002    0.0003   -0.0002   -0.0248    0.0100    0.0139   -0.0278   -0.0271    0.0250    0.0039
    4 O1     2px        0.0002    0.0005   -0.0005   -0.0613    0.0681    0.1248    0.1331   -0.3856    0.6204   -0.4790
    5 O1     3px        0.0003   -0.0002    0.0003    0.0154   -0.0101   -0.0180   -0.0096    0.0234    0.0062   -0.0212
    6 O1     2py        0.0001    0.0006   -0.0007   -0.1027    0.0586    0.0880   -0.4072   -0.2530   -0.1507    0.5785
    7 O1     3py        0.0002   -0.0005    0.0003    0.0259   -0.0090   -0.0125    0.0332    0.0142   -0.0265    0.0089
    8 O1     2pz       -0.0000    0.0000    0.0000   -0.0000    0.0000    0.0000   -0.0000    0.0000   -0.0000    0.0000
    9 O1     3pz       -0.0000   -0.0000   -0.0000    0.0000   -0.0000    0.0000    0.0000   -0.0000   -0.0000   -0.0000
   10 O1     3d2-      -0.0001    0.0001   -0.0001    0.0182   -0.0132   -0.0127    0.0103    0.0290   -0.0155   -0.0059
   11 O1     3d1-      -0.0000   -0.0000    0.0000    0.0000   -0.0000    0.0000    0.0000   -0.0000    0.0000   -0.0000
   12 O1     3d0        0.0001    0.0002   -0.0001   -0.0112    0.0090    0.0037   -0.0103   -0.0162    0.0059    0.0039
   13 O1     3d1+       0.0000    0.0000   -0.0000   -0.0000    0.0000   -0.0000    0.0000   -0.0000    0.0000   -0.0000
   14 O1     3d2+       0.0001   -0.0000    0.0000   -0.0077    0.0018   -0.0006   -0.0232    0.0000   -0.0028    0.0163
   15 O2     1s         1.0001   -0.0000   -0.0045   -0.0226   -0.0000   -0.0145   -0.0106    0.0000    0.0188   -0.0000
   16 O2     2s         0.0009   -0.0000   -0.0006    0.6173    0.0000   -0.6823   -0.1511    0.0000    0.2669   -0.0000
   17 O2     3s        -0.0002   -0.0000   -0.0006   -0.0355    0.0000   -0.0121   -0.0174    0.0000    0.0321   -0.0000
   18 O2     2px        0.0011   -0.0000   -0.0004    0.1349    0.0000    0.1994    0.5995   -0.0000   -0.5199    0.0000
   19 O2     3px       -0.0009   -0.0000   -0.0006   -0.0271    0.0000   -0.0225   -0.0402    0.0000   -0.0218    0.0000
   20 O2     2py        0.0000    0.0005   -0.0000    0.0000   -0.2910   -0.0000    0.0000    0.5223   -0.0000   -0.1363
   21 O2     3py       -0.0000    0.0006   -0.0000   -0.0000    0.0633    0.0000   -0.0000   -0.0616    0.0000   -0.0024
   22 O2     2pz       -0.0000    0.0000    0.0000    0.0000    0.0000    0.0000   -0.0000    0.0000   -0.0000    0.0000
   23 O2     3pz       -0.0000   -0.0000   -0.0000   -0.0000    0.0000   -0.0000    0.0000   -0.0000   -0.0000   -0.0000
   24 O2     3d2-       0.0000    0.0003   -0.0000    0.0000   -0.0411   -0.0000    0.0000    0.0342   -0.0000   -0.0331
   25 O2     3d1-      -0.0000   -0.0000   -0.0000   -0.0000   -0.0000    0.0000   -0.0000    0.0000   -0.0000   -0.0000
   26 O2     3d0       -0.0000    0.0000    0.0003   -0.0181   -0.0000   -0.0073   -0.0177    0.0000    0.0217   -0.0000
   27 O2     3d1+      -0.0000   -0.0000    0.0000   -0.0000    0.0000    0.0000    0.0000    0.0000   -0.0000    0.0000
   28 O2     3d2+       0.0000    0.0000    0.0001   -0.0048   -0.0000    0.0051    0.0294   -0.0000    0.0278   -0.0000
   29 O3     1s         0.0031    0.7072    0.7072   -0.0158   -0.0085    0.0098   -0.0131    0.0184    0.0068   -0.0018
   30 O3     2s        -0.0002    0.0004    0.0006    0.3359    0.6088    0.5784   -0.2492    0.3652    0.0438   -0.0057
   31 O3     3s        -0.0002   -0.0003   -0.0002   -0.0248   -0.0100    0.0139   -0.0278    0.0271    0.0250   -0.0039
   32 O3     2px        0.0002   -0.0005   -0.0005   -0.0613   -0.0681    0.1248    0.1331    0.3856    0.6204    0.4790
   33 O3     3px        0.0003    0.0002    0.0003    0.0154    0.0101   -0.0180   -0.0096   -0.0234    0.0062    0.0212
   34 O3     2py       -0.0001    0.0006    0.0007    0.1027    0.0586   -0.0880    0.4072   -0.2530    0.1507    0.5785
   35 O3     3py       -0.0002   -0.0005   -0.0003   -0.0259   -0.0090    0.0125   -0.0332    0.0142    0.0265    0.0089
   36 O3     2pz        0.0000    0.0000   -0.0000    0.0000    0.0000   -0.0000    0.0000    0.0000    0.0000    0.0000
   37 O3     3pz        0.0000   -0.0000    0.0000   -0.0000   -0.0000   -0.0000   -0.0000   -0.0000    0.0000   -0.0000
   38 O3     3d2-       0.0001    0.0001    0.0001   -0.0182   -0.0132    0.0127   -0.0103    0.0290    0.0155   -0.0059
   39 O3     3d1-      -0.0000    0.0000    0.0000    0.0000    0.0000    0.0000    0.0000    0.0000    0.0000    0.0000
   40 O3     3d0        0.0001   -0.0002   -0.0001   -0.0112   -0.0090    0.0037   -0.0103    0.0162    0.0059   -0.0039
   41 O3     3d1+      -0.0000    0.0000    0.0000    0.0000    0.0000    0.0000   -0.0000   -0.0000   -0.0000   -0.0000
   42 O3     3d2+       0.0001    0.0000    0.0000   -0.0077   -0.0018   -0.0006   -0.0232   -0.0000   -0.0028   -0.0163
 
 
      Orbital               11        12        13        14        15        16        17        18        19        20
      Energy            0.0000    0.0000    0.0000    0.2693    0.2785    0.4669    0.4858    0.5328    0.6663    0.6859
      Occ. No.          1.9937    1.5662    0.4402    0.0000    0.0000    0.0000    0.0000    0.0000    0.0000    0.0000
 
    1 O1     1s         0.0000    0.0000   -0.0000   -0.0723   -0.1209   -0.0000   -0.0329   -0.0415    0.0249    0.0011
    2 O1     2s         0.0000    0.0000   -0.0000   -0.6078   -0.9435   -0.0000   -0.1429   -0.1965    0.1034    0.0381
    3 O1     3s         0.0000   -0.0000   -0.0000   -0.1832   -0.2960   -0.0000   -0.1447   -0.1497    0.1893    0.0308
    4 O1     2px        0.0000   -0.0000    0.0000    0.3148    0.5504    0.0000   -0.1552   -0.2248    0.0026   -0.0725
    5 O1     3px        0.0000   -0.0000   -0.0000    0.2401    0.3241    0.0000    0.3994    0.0069    0.2516   -0.7635
    6 O1     2py       -0.0000    0.0000   -0.0000    0.6910    0.4151   -0.0000   -0.1721   -0.2003   -0.0144   -0.1221
    7 O1     3py       -0.0000    0.0000    0.0000    0.3810    0.4158    0.0000    0.0350    0.4166   -0.7258   -0.2437
    8 O1     2pz        0.2413   -0.7211    0.6929   -0.0000   -0.0000   -0.0229    0.0000    0.0000   -0.0000   -0.0000
    9 O1     3pz       -0.0307   -0.0106   -0.0429   -0.0000   -0.0000    0.4612    0.0000   -0.0000   -0.0000   -0.0000
   10 O1     3d2-       0.0000    0.0000    0.0000    0.0024   -0.0177   -0.0000   -0.0440   -0.0757    0.0196   -0.0375
   11 O1     3d1-      -0.0234    0.0148    0.0049    0.0000   -0.0000    0.0255    0.0000   -0.0000   -0.0000    0.0000
   12 O1     3d0       -0.0000    0.0000   -0.0000    0.0049    0.0093    0.0000    0.0293    0.0452   -0.0042    0.0062
   13 O1     3d1+      -0.0163    0.0112    0.0013    0.0000   -0.0000    0.0209   -0.0000   -0.0000    0.0000    0.0000
   14 O1     3d2+      -0.0000    0.0000   -0.0000    0.0007    0.0093   -0.0000    0.0630   -0.0152   -0.0145    0.0096
   15 O2     1s         0.0000   -0.0000    0.0000    0.1827   -0.0000    0.0000    0.0471    0.0000   -0.0925   -0.0000
   16 O2     2s         0.0000   -0.0000    0.0000    1.4481   -0.0000    0.0000    0.1747    0.0000   -0.4917    0.0000
   17 O2     3s         0.0000   -0.0000    0.0000    0.4184   -0.0000    0.0000    0.2289    0.0000   -0.2404   -0.0000
   18 O2     2px       -0.0000    0.0000    0.0000    0.7812   -0.0000    0.0000   -0.2452   -0.0000   -0.1360   -0.0000
   19 O2     3px       -0.0000    0.0000    0.0000    0.5014   -0.0000    0.0000    0.5225    0.0000   -0.5782   -0.0000
   20 O2     2py        0.0000   -0.0000    0.0000    0.0000    1.2093    0.0000    0.0000   -0.3849   -0.0000    0.0323
   21 O2     3py       -0.0000    0.0000    0.0000    0.0000    0.7906    0.0000    0.0000    0.5524   -0.0000    0.2546
   22 O2     2pz        0.8402   -0.0000   -0.6029    0.0000    0.0000   -0.2091    0.0000   -0.0000    0.0000    0.0000
   23 O2     3pz       -0.0173    0.0000   -0.0660    0.0000    0.0000    0.3777    0.0000   -0.0000    0.0000    0.0000
   24 O2     3d2-       0.0000    0.0000    0.0000    0.0000    0.0295    0.0000   -0.0000    0.1271   -0.0000   -0.1157
   25 O2     3d1-      -0.0000   -0.0364    0.0000   -0.0000    0.0000   -0.0000   -0.0000   -0.0000    0.0000    0.0000
   26 O2     3d0        0.0000   -0.0000   -0.0000   -0.0032    0.0000   -0.0000   -0.0657   -0.0000    0.0967    0.0000
   27 O2     3d1+       0.0350   -0.0000   -0.0071    0.0000    0.0000   -0.0487   -0.0000    0.0000   -0.0000   -0.0000
   28 O2     3d2+      -0.0000   -0.0000    0.0000   -0.0005    0.0000    0.0000   -0.0921   -0.0000   -0.0070    0.0000
   29 O3     1s        -0.0000    0.0000    0.0000   -0.0723    0.1209    0.0000   -0.0329    0.0415    0.0249   -0.0011
   30 O3     2s        -0.0000    0.0000    0.0000   -0.6078    0.9435    0.0000   -0.1429    0.1965    0.1034   -0.0381
   31 O3     3s        -0.0000   -0.0000    0.0000   -0.1832    0.2960    0.0000   -0.1447    0.1497    0.1893   -0.0308
   32 O3     2px       -0.0000   -0.0000   -0.0000    0.3148   -0.5504   -0.0000   -0.1552    0.2248    0.0026    0.0725
   33 O3     3px       -0.0000   -0.0000    0.0000    0.2401   -0.3241   -0.0000    0.3994   -0.0069    0.2516    0.7635
   34 O3     2py       -0.0000   -0.0000   -0.0000   -0.6910    0.4151   -0.0000    0.1721   -0.2003    0.0144   -0.1221
   35 O3     3py       -0.0000   -0.0000    0.0000   -0.3810    0.4158    0.0000   -0.0350    0.4166    0.7258   -0.2437
   36 O3     2pz        0.2413    0.7211    0.6929    0.0000   -0.0000   -0.0229   -0.0000    0.0000    0.0000   -0.0000
   37 O3     3pz       -0.0307    0.0106   -0.0429    0.0000   -0.0000    0.4612   -0.0000   -0.0000    0.0000   -0.0000
   38 O3     3d2-       0.0000   -0.0000    0.0000   -0.0024   -0.0177   -0.0000    0.0440   -0.0757   -0.0196   -0.0375
   39 O3     3d1-       0.0234    0.0148   -0.0049    0.0000    0.0000   -0.0255    0.0000    0.0000   -0.0000   -0.0000
   40 O3     3d0        0.0000    0.0000    0.0000    0.0049   -0.0093   -0.0000    0.0293   -0.0452   -0.0042   -0.0062
   41 O3     3d1+      -0.0163   -0.0112    0.0013   -0.0000   -0.0000    0.0209    0.0000   -0.0000   -0.0000    0.0000
   42 O3     3d2+       0.0000    0.0000    0.0000    0.0007   -0.0093    0.0000    0.0630    0.0152   -0.0145   -0.0096
 
 
      Orbital               21        22        23        24        25        26        27        28        29        30
      Energy            0.7344    0.8188    0.8636    0.8780    1.0359    1.6767    1.7005    1.7018    1.7797    1.7945
      Occ. No.          0.0000    0.0000    0.0000    0.0000    0.0000    0.0000    0.0000    0.0000    0.0000    0.0000
 
    1 O1     1s        -0.0000    0.0315   -0.0000   -0.0503    0.0805   -0.0308    0.0000   -0.0000   -0.1427   -0.0643
    2 O1     2s        -0.0000    0.1621   -0.0000   -0.2852    0.4229   -0.2124    0.0000   -0.0000   -1.0627   -0.4782
    3 O1     3s        -0.0000    0.3501   -0.0000    0.3532    0.1169   -0.2106    0.0000   -0.0000   -1.3336   -0.6055
    4 O1     2px       -0.0000    0.1776    0.0000   -0.1845   -0.3582    0.2084   -0.0000   -0.0000    0.3864    0.1143
    5 O1     3px       -0.0000    0.5360   -0.0000   -0.3696   -0.7086    0.0749   -0.0000    0.0000    0.4142    0.2620
    6 O1     2py       -0.0000   -0.0470   -0.0000    0.0775    0.3079    0.0318   -0.0000    0.0000    0.3268    0.2904
    7 O1     3py        0.0000    0.3516   -0.0000    0.0546    0.7254    0.1167   -0.0000   -0.0000    0.2349    0.2915
    8 O1     2pz       -0.1370    0.0000    0.3895   -0.0000   -0.0000   -0.0000   -0.1354   -0.1559   -0.0000    0.0000
    9 O1     3pz       -0.8901   -0.0000    0.7897    0.0000    0.0000   -0.0000   -0.0790   -0.0079   -0.0000    0.0000
   10 O1     3d2-      -0.0000   -0.0137   -0.0000   -0.0899    0.0621    0.2676   -0.0000   -0.0000    0.0426    0.0537
   11 O1     3d1-      -0.0356   -0.0000   -0.0379    0.0000    0.0000   -0.0000   -0.4583   -0.2134   -0.0000    0.0000
   12 O1     3d0        0.0000   -0.0292   -0.0000    0.0895   -0.0744    0.2269    0.0000   -0.0000   -0.2187    0.2341
   13 O1     3d1+      -0.0016   -0.0000    0.0244    0.0000    0.0000   -0.0000    0.1006   -0.3950   -0.0000    0.0000
   14 O1     3d2+       0.0000   -0.0116   -0.0000    0.0079   -0.1006    0.2923   -0.0000   -0.0000    0.0112   -0.2893
   15 O2     1s         0.0000    0.0500    0.0000   -0.0368    0.0000    0.0617    0.0000    0.0000    0.0000    0.1690
   16 O2     2s         0.0000    0.2111    0.0000   -0.1258    0.0000    0.4524   -0.0000    0.0000    0.0000    1.1778
   17 O2     3s         0.0000    0.3949   -0.0000    0.3190    0.0000    0.5061   -0.0000    0.0000    0.0000    1.1773
   18 O2     2px        0.0000   -0.3666   -0.0000    0.3845    0.0000    0.2652   -0.0000   -0.0000    0.0000    0.1867
   19 O2     3px        0.0000   -0.9338   -0.0000    0.7412    0.0000    0.0132   -0.0000    0.0000    0.0000    0.1939
   20 O2     2py       -0.0000   -0.0000    0.0000   -0.0000   -0.7232    0.0000   -0.0000   -0.0000    0.9892   -0.0000
   21 O2     3py       -0.0000   -0.0000    0.0000   -0.0000   -1.4387    0.0000   -0.0000   -0.0000    1.1741   -0.0000
   22 O2     2pz       -0.0000    0.0000   -0.6018   -0.0000    0.0000   -0.0000   -0.1093   -0.0000   -0.0000    0.0000
   23 O2     3pz       -0.0000    0.0000   -1.4936   -0.0000   -0.0000    0.0000    0.1913    0.0000    0.0000   -0.0000
   24 O2     3d2-       0.0000   -0.0000   -0.0000   -0.0000    0.1050    0.0000   -0.0000   -0.0000    0.0670   -0.0000
   25 O2     3d1-       0.0509    0.0000   -0.0000   -0.0000   -0.0000    0.0000   -0.0000    0.6062    0.0000   -0.0000
   26 O2     3d0       -0.0000   -0.0600   -0.0000    0.1601    0.0000    0.3051   -0.0000   -0.0000    0.0000    0.2424
   27 O2     3d1+       0.0000   -0.0000    0.0465    0.0000   -0.0000    0.0000    0.5772    0.0000    0.0000   -0.0000
   28 O2     3d2+       0.0000    0.0011   -0.0000    0.0506    0.0000   -0.4266    0.0000    0.0000    0.0000    0.3569
   29 O3     1s        -0.0000    0.0315    0.0000   -0.0503   -0.0805   -0.0308   -0.0000   -0.0000    0.1427   -0.0643
   30 O3     2s        -0.0000    0.1621    0.0000   -0.2852   -0.4229   -0.2124   -0.0000   -0.0000    1.0627   -0.4782
   31 O3     3s        -0.0000    0.3501    0.0000    0.3532   -0.1169   -0.2106   -0.0000   -0.0000    1.3336   -0.6055
   32 O3     2px       -0.0000    0.1776   -0.0000   -0.1845    0.3582    0.2084    0.0000   -0.0000   -0.3864    0.1143
   33 O3     3px       -0.0000    0.5360    0.0000   -0.3696    0.7086    0.0749    0.0000    0.0000   -0.4142    0.2620
   34 O3     2py        0.0000    0.0470   -0.0000   -0.0775    0.3079   -0.0318   -0.0000   -0.0000    0.3268   -0.2904
   35 O3     3py       -0.0000   -0.3516   -0.0000   -0.0546    0.7254   -0.1167   -0.0000    0.0000    0.2349   -0.2915
   36 O3     2pz        0.1370   -0.0000    0.3895    0.0000   -0.0000    0.0000   -0.1354    0.1559   -0.0000   -0.0000
   37 O3     3pz        0.8901    0.0000    0.7897   -0.0000    0.0000    0.0000   -0.0790    0.0079   -0.0000   -0.0000
   38 O3     3d2-       0.0000    0.0137   -0.0000    0.0899    0.0621   -0.2676   -0.0000    0.0000    0.0426   -0.0537
   39 O3     3d1-      -0.0356   -0.0000    0.0379    0.0000   -0.0000   -0.0000    0.4583   -0.2134    0.0000    0.0000
   40 O3     3d0        0.0000   -0.0292    0.0000    0.0895    0.0744    0.2269   -0.0000   -0.0000    0.2187    0.2341
   41 O3     3d1+       0.0016    0.0000    0.0244   -0.0000    0.0000    0.0000    0.1006    0.3950   -0.0000   -0.0000
   42 O3     3d2+       0.0000   -0.0116    0.0000    0.0079    0.1006    0.2923    0.0000   -0.0000   -0.0112   -0.2893
 
 
      Orbital               31        32        33        34        35        36        37        38        39        40
      Energy            2.1749    2.1947    2.2374    2.2621    2.7253    2.7536    2.7723    3.1039    3.1647    3.2965
      Occ. No.          0.0000    0.0000    0.0000    0.0000    0.0000    0.0000    0.0000    0.0000    0.0000    0.0000
 
    1 O1     1s        -0.0833   -0.0000    0.1271    0.0000    0.1028    0.0160   -0.0743   -0.1505   -0.0000    0.0000
    2 O1     2s        -0.5645   -0.0000    0.8699    0.0000    0.5715    0.2444   -0.3501   -1.0452   -0.0000    0.0000
    3 O1     3s        -0.4514   -0.0000    0.6666    0.0000    0.1266    0.4642    0.0584   -0.6712   -0.0000    0.0000
    4 O1     2px        0.1995    0.0000   -0.2249   -0.0000   -0.0270   -0.2181    0.3100    0.2828    0.0000   -0.0000
    5 O1     3px        0.1231    0.0000   -0.0514   -0.0000    0.2020   -0.3471    0.3187    0.0782    0.0000   -0.0000
    6 O1     2py        0.1572    0.0000   -0.4224   -0.0000   -0.1850   -0.1256   -0.1757    0.6945    0.0000   -0.0000
    7 O1     3py       -0.0426    0.0000   -0.2706   -0.0000    0.1113   -0.2325   -0.5343    0.4078   -0.0000   -0.0000
    8 O1     2pz        0.0000   -0.0431    0.0000   -0.0174   -0.0000   -0.0000    0.0000   -0.0000   -0.3682   -0.2909
    9 O1     3pz        0.0000   -0.1509    0.0000   -0.1175   -0.0000   -0.0000    0.0000   -0.0000   -0.3652   -0.2386
   10 O1     3d2-       0.3144    0.0000    0.2191    0.0000   -0.4415    0.5599   -0.2261   -0.4167   -0.0000    0.0000
   11 O1     3d1-       0.0000   -0.0905   -0.0000    0.5816    0.0000    0.0000   -0.0000    0.0000    0.6221    0.4765
   12 O1     3d0        0.5168    0.0000    0.4880    0.0000    0.0547   -0.3253   -0.3208    0.3993    0.0000   -0.0000
   13 O1     3d1+      -0.0000    0.6732    0.0000   -0.4375   -0.0000    0.0000    0.0000    0.0000    0.3168    0.4733
   14 O1     3d2+      -0.3017   -0.0000   -0.1561   -0.0000    0.1062    0.2178   -0.6447    0.4973   -0.0000   -0.0000
   15 O2     1s         0.0000    0.0000   -0.1863   -0.0000    0.0316    0.0000    0.0000    0.3296    0.0000   -0.0000
   16 O2     2s         0.0000    0.0000   -1.4440   -0.0000   -0.0992    0.0000    0.0000    2.2406    0.0000   -0.0000
   17 O2     3s         0.0000    0.0000   -1.4691   -0.0000   -0.6970    0.0000    0.0000    1.3206    0.0000   -0.0000
   18 O2     2px        0.0000    0.0000   -0.6770   -0.0000   -0.3348    0.0000    0.0000    1.1295    0.0000   -0.0000
   19 O2     3px        0.0000    0.0000   -0.6113   -0.0000   -0.6462    0.0000   -0.0000    0.5633    0.0000   -0.0000
   20 O2     2py        0.5984    0.0000    0.0000    0.0000   -0.0000   -0.6216    0.7039   -0.0000    0.0000   -0.0000
   21 O2     3py        0.6664    0.0000    0.0000    0.0000   -0.0000   -0.0208    0.9419   -0.0000    0.0000   -0.0000
   22 O2     2pz       -0.0000    0.2951    0.0000   -0.0000    0.0000    0.0000   -0.0000   -0.0000    0.7159    0.0000
   23 O2     3pz       -0.0000    0.2142    0.0000   -0.0000    0.0000    0.0000    0.0000   -0.0000    0.7028    0.0000
   24 O2     3d2-       0.2537    0.0000    0.0000    0.0000   -0.0000    0.4752    0.3391   -0.0000    0.0000   -0.0000
   25 O2     3d1-       0.0000   -0.0000    0.0000   -0.1356    0.0000   -0.0000    0.0000    0.0000   -0.0000    0.9962
   26 O2     3d0        0.0000   -0.0000   -0.1220   -0.0000    0.7896   -0.0000    0.0000   -0.6405   -0.0000    0.0000
   27 O2     3d1+       0.0000   -0.3499   -0.0000    0.0000    0.0000    0.0000   -0.0000   -0.0000    0.9048    0.0000
   28 O2     3d2+      -0.0000   -0.0000    0.1229    0.0000    0.0677   -0.0000    0.0000    0.3668    0.0000    0.0000
   29 O3     1s         0.0833    0.0000    0.1271    0.0000    0.1028   -0.0160    0.0743   -0.1505    0.0000    0.0000
   30 O3     2s         0.5645    0.0000    0.8699    0.0000    0.5715   -0.2444    0.3501   -1.0452    0.0000    0.0000
   31 O3     3s         0.4514    0.0000    0.6666    0.0000    0.1266   -0.4642   -0.0584   -0.6712    0.0000    0.0000
   32 O3     2px       -0.1995   -0.0000   -0.2249   -0.0000   -0.0270    0.2181   -0.3100    0.2828   -0.0000   -0.0000
   33 O3     3px       -0.1231   -0.0000   -0.0514   -0.0000    0.2020    0.3471   -0.3187    0.0782   -0.0000   -0.0000
   34 O3     2py        0.1572    0.0000    0.4224    0.0000    0.1850   -0.1256   -0.1757   -0.6945    0.0000    0.0000
   35 O3     3py       -0.0426    0.0000    0.2706    0.0000   -0.1113   -0.2325   -0.5343   -0.4078   -0.0000    0.0000
   36 O3     2pz        0.0000   -0.0431   -0.0000    0.0174    0.0000   -0.0000    0.0000    0.0000   -0.3682    0.2909
   37 O3     3pz        0.0000   -0.1509   -0.0000    0.1175    0.0000   -0.0000    0.0000    0.0000   -0.3652    0.2386
   38 O3     3d2-       0.3144    0.0000   -0.2191   -0.0000    0.4415    0.5599   -0.2261    0.4167   -0.0000   -0.0000
   39 O3     3d1-      -0.0000    0.0905   -0.0000    0.5816    0.0000   -0.0000    0.0000    0.0000   -0.6221    0.4765
   40 O3     3d0       -0.5168   -0.0000    0.4880    0.0000    0.0547    0.3253    0.3208    0.3993   -0.0000   -0.0000
   41 O3     3d1+      -0.0000    0.6732   -0.0000    0.4375    0.0000    0.0000    0.0000   -0.0000    0.3168   -0.4733
   42 O3     3d2+       0.3017    0.0000   -0.1561   -0.0000    0.1062   -0.2178    0.6447    0.4973    0.0000   -0.0000
 
 
      Orbital               41        42
      Energy            3.4298    3.6931
      Occ. No.          0.0000    0.0000
 
    1 O1     1s        -0.1731    0.0844
    2 O1     2s        -1.1677    0.6135
    3 O1     3s        -0.6808    0.3962
    4 O1     2px        0.4214   -0.5621
    5 O1     3px        0.2032   -0.3169
    6 O1     2py        0.5938   -0.2446
    7 O1     3py        0.1321   -0.1370
    8 O1     2pz        0.0000    0.0000
    9 O1     3pz        0.0000    0.0000
   10 O1     3d2-      -0.4881    0.4863
   11 O1     3d1-      -0.0000   -0.0000
   12 O1     3d0        0.2241   -0.2657
   13 O1     3d1+      -0.0000   -0.0000
   14 O1     3d2+       0.3440    0.4624
   15 O2     1s         0.0000   -0.2164
   16 O2     2s         0.0000   -1.4557
   17 O2     3s         0.0000   -0.8314
   18 O2     2px        0.0000   -0.0850
   19 O2     3px        0.0000    0.2310
   20 O2     2py        1.2042   -0.0000
   21 O2     3py        0.6479   -0.0000
   22 O2     2pz       -0.0000    0.0000
   23 O2     3pz       -0.0000    0.0000
   24 O2     3d2-       1.1547   -0.0000
   25 O2     3d1-       0.0000   -0.0000
   26 O2     3d0       -0.0000    0.3147
   27 O2     3d1+      -0.0000    0.0000
   28 O2     3d2+       0.0000    1.0513
   29 O3     1s         0.1731    0.0844
   30 O3     2s         1.1677    0.6135
   31 O3     3s         0.6808    0.3962
   32 O3     2px       -0.4214   -0.5621
   33 O3     3px       -0.2032   -0.3169
   34 O3     2py        0.5938    0.2446
   35 O3     3py        0.1321    0.1370
   36 O3     2pz        0.0000   -0.0000
   37 O3     3pz        0.0000   -0.0000
   38 O3     3d2-      -0.4881   -0.4863
   39 O3     3d1-       0.0000   -0.0000
   40 O3     3d0       -0.2241   -0.2657
   41 O3     3d1+      -0.0000    0.0000
   42 O3     3d2+      -0.3440    0.4624
--
 
      Von Neumann Entropy (Root  1) =  0.76143
 

      Mulliken population analysis for root number:  1
      -----------------------------------------------
 
 
++    Molecular charges:
      ------------------
 
      Mulliken charges per centre and basis function type
      ---------------------------------------------------
 
                O1      O2      O3    
      1s       2.0002  2.0003  2.0002
      2s       1.9187  1.7859  1.9187
      2px      1.6403  1.4386  1.6403
      2pz      1.1579  1.6631  1.1579
      2py      1.3276  0.9506  1.3276
      3s      -0.0057 -0.0142 -0.0057
      3px     -0.0156 -0.0287 -0.0156
      3pz     -0.0122 -0.0110 -0.0122
      3py     -0.0021 -0.0013 -0.0021
      3d2+     0.0074  0.0319  0.0074
      3d1+     0.0050  0.0074  0.0050
      3d0      0.0055  0.0092  0.0055
      3d1-     0.0097  0.0197  0.0097
      3d2-     0.0178  0.0392  0.0178
      Total    8.0547  7.8907  8.0547
 
      N-E     -0.0547  0.1093 -0.0547
 
      Total electronic charge=   24.000000
 
      Total            charge=   -0.000000
--
 
 

      Expectation values of various properties for root number:  1
      -----------------------------------------------------------
 
 
++    Molecular properties:
      ---------------------
 
      Charge (e):
                      =   -0.0000
      Dipole Moment (Debye):
      Origin of the operator (Ang)=    0.0000    0.0000    0.0000
                   X= -2.6950E-01               Y=  1.5303E-10               Z= -1.1433E-12           Total=  2.6950E-01
      Quadrupole Moment (Debye*Ang):
      Origin of the operator (Ang)=    0.5008    0.0000    0.0000
                  XX= -1.6097E+01              XY=  1.1286E-10              XZ= -8.7718E-12              YY= -1.6900E+01
                  YZ= -2.3455E-06              ZZ= -1.4547E+01
      In traceless form (Debye*Ang)
                  XX= -3.7415E-01              XY=  1.6930E-10              XZ= -1.3158E-11              YY= -1.5774E+00
                  YZ= -3.5182E-06              ZZ=  1.9515E+00
--
 

      LoProp population analysis for root number:  1
      -----------------------------------------------
 
 
++    LoProp analysis:
      ----------------
 
 
 
  Input file to MOLDEN was generated!
 
 
++    Static properties:
      ------------------
 
 
      LoProp Charges per center
 

                   O1       O2       O3    
      Nuclear      8.0000   8.0000   8.0000
      Electronic  -8.0835  -7.8331  -8.0835
 
      Total       -0.0835   0.1669  -0.0835
--
 
 
      Natural Bond Order analysis for root number:  1
 
++    Natural Bond Order analysis
      ---------------------------
      Based on LoProp computed density
      -------------------------------------------------------------------------------------
      Atom A       Atom B       Bond Order | Atom A       Atom B       Bond Order
        O1           O2             1.967  |   O2           O3             1.967
      -------------------------------------------------------------------------------------
      NBO located     12.000 core electrons.
      NBO located      3.972 lone pair electrons.
      NBO located      7.868 electrons involved in    2 bonds.
      The remaining    0.161 electrons are to be considered as diffuse
--
 
--
 
 
  Input file to MOLDEN was generated!
 
      Average orbitals are written to the RASORB file
      Natural orbitals for root   1 are written to the RASORB.1 file
      Spin density orbitals for root   1 are written to the SPDORB.1 file
 
forrtl: warning (525): IEEE_DIVIDE_BY_ZERO is signaling
forrtl: warning (526): IEEE_INVALID is signaling
forrtl: warning (528): IEEE_UNDERFLOW is signaling
--- Stop Module: rasscf at Fri Jan 24 14:17:53 2025 /rc=_RC_ALL_IS_WELL_ ---
*** files: ozone_108.00.LprOrb ozone_108.00.rasscf.molden ozone_108.00.LoProp.molden ozone_108.00.RasOrb ozone_108.00.RasOrb.1 ozone_108.00.rasscf.h5 ozone_108.00.SpdOrb.1 xmldump
    saved to directory /home/grierjones/DDCASPT2/ozone/ANO-RCC-VDZP/ozone_108.00

>>> COPY /tmp/ozone_108.00/ozone_108.00.rasscf.h5 /home/grierjones/DDCASPT2/ozone/ANO-RCC-VDZP/ozone_108.00/

>>> COPY /tmp/ozone_108.00/GMJ_Fock_MO.csv /home/grierjones/DDCASPT2/ozone/ANO-RCC-VDZP/ozone_108.00/ozone_108.00.GMJ_Fock_MO.csv

>>> COPY /tmp/ozone_108.00/GMJ_PT2_Fock_MO.csv /home/grierjones/DDCASPT2/ozone/ANO-RCC-VDZP/ozone_108.00/ozone_108.00.GMJ_PT2_Fock_MO.csv

*** symbolic link created: INPORB -> ozone_108.00.RasOrb
--- Start Module: motra at Fri Jan 24 14:17:53 2025 ---
 
()()()()()()()()()()()()()()()()()()()()()()()()()()()()()()()()()()()()()()()()()()()()()()()()()()

                                               &MOTRA

                                   only a single process is used
                       available to each process: 2.0 GB of memory, 1 thread?
()()()()()()()()()()()()()()()()()()()()()()()()()()()()()()()()()()()()()()()()()()()()()()()()()()
 
 
      *** WARNING: Default frozen orbitals is overwritten by user input.
      *** Default values:   3
 
      Header of the integral files:
      
       Integrals generated by seward 4.2.0  , Fri Jan 24 14:17:50 2025
 
 
      Header of MO coefficients source file:
      * RASSCF average (pseudo-natural) orbitals                                      
 
 
      Cartesian coordinates in Angstrom:
      -----------------------------------------------------
      No.  Label        X            Y            Z        
      -----------------------------------------------------
       1   O1         0.75119000   1.03392400   0.00000000
       2   O2         0.00000000   0.00000000   0.00000000
       3   O3         0.75119000  -1.03392400   0.00000000
      -----------------------------------------------------
      Nuclear repulsion energy =   69.37857544
 
      Orbital specifications:
      -----------------------
 
      Symmetry species:              1
      Number of basis functions:    42
      Frozen orbitals:               0
      Deleted orbitals:              0
      Number of orbitals used:      42

       SYMMETRY  BASIS FUNCTIONS       ORBITALS      INTEGRALS   CPU(SEC)  I/O(SEC)
 
        1 1 1 1   42  42  42  42    42  42  42  42      408156       0.00      0.00

       TOTAL CPU TIME(SEC)    0.34TOTAL I/O TIME(SEC)    0.92
 
--- Stop Module: motra at Fri Jan 24 14:17:54 2025 /rc=_RC_ALL_IS_WELL_ ---
*** files: xmldump
    saved to directory /home/grierjones/DDCASPT2/ozone/ANO-RCC-VDZP/ozone_108.00

>>> COPY /tmp/ozone_108.00/GMJ_one_int_indx.csv /home/grierjones/DDCASPT2/ozone/ANO-RCC-VDZP/ozone_108.00/ozone_108.00.GMJ_one_int_indx.csv

>>> COPY /tmp/ozone_108.00/GMJ_one_int.csv /home/grierjones/DDCASPT2/ozone/ANO-RCC-VDZP/ozone_108.00/ozone_108.00.GMJ_one_int.csv

>>> COPY /tmp/ozone_108.00/GMJ_two_int_indx.csv /home/grierjones/DDCASPT2/ozone/ANO-RCC-VDZP/ozone_108.00/ozone_108.00.GMJ_two_int_indx.csv

>>> COPY /tmp/ozone_108.00/GMJ_two_int.csv /home/grierjones/DDCASPT2/ozone/ANO-RCC-VDZP/ozone_108.00/ozone_108.00.GMJ_two_int.csv

*** symbolic link created: INPORB -> ozone_108.00.RasOrb
--- Start Module: caspt2 at Fri Jan 24 14:17:54 2025 ---
 
()()()()()()()()()()()()()()()()()()()()()()()()()()()()()()()()()()()()()()()()()()()()()()()()()()

                                              &CASPT2

                                   only a single process is used
                       available to each process: 2.0 GB of memory, 1 thread?
()()()()()()()()()()()()()()()()()()()()()()()()()()()()()()()()()()()()()()()()()()()()()()()()()()
 
 Cholesky algorithm in CASPT2 =    1
 
 ###############################################################################
 ###############################################################################
 ###                                                                         ###
 ###                                                                         ###
 ###    User changed nr of frozen orbitals.                                  ###
 ###                                                                         ###
 ###                                                                         ###
 ###############################################################################
 ###############################################################################
 
++    Wave function specifications:
      -----------------------------
 
      Number of closed shell electrons          20
      Number of electrons in active shells       4
      Max number of holes in RAS1 space          0
      Max number of electrons in RAS3 space      0
      Number of inactive orbitals               10
      Number of active orbitals                  3
      Number of secondary orbitals              29
      Spin quantum number                      0.0
      State symmetry                             1
      Number of CSFs                             6
      Number of root(s) available                1
      Root passed to geometry opt.               1
      A file JOBMIX will be created.
      This is a CASSCF or RASSCF reference function
--
 
++    Orbital specifications:
      -----------------------
 
      Symmetry species                           1
                                                 a
      Frozen orbitals                            0
      Inactive orbitals                         10
      Active orbitals                            3
      Secondary orbitals                        29
      Deleted orbitals                           0
      Number of basis functions                 42
--
 
      Type of Fock operator: STANDARD
      Type of 0-order Hamiltonian: STANDARD WITH DEFAULT IPEA
        "IP-EA" denominator shift =      0.25
      The input orbitals and the CI vector will be transformed.
 
--------------------------------------------------------------------------------
 Estimated memory requirements:
  POLY3 :                   250202
  RHS:                      279634
  SIGMA :                   302200
  PRPCTL:                        0
 Available workspace:    230396563
 
++ CASPT2 computation for group   1
 
********************************************************************************
 Multi-State initialization phase begins for group   1
--------------------------------------------------------------------------------
********************************************************************************
 Compute H0 matrices for state    1
--------------------------------------------------------------------------------
--------------------------------------------------------------------------------
 H0 matrices have been computed.
 
********************************************************************************
  CASPT2 EQUATION SOLUTION
--------------------------------------------------------------------------------
 
  Total nr of CASPT2 parameters:
   Before reduction:       86691
   After  reduction:       82880
 
 The contributions to the second order correlation energy in atomic units.
-----------------------------------------------------------------------------------------------------------------------------
  IT.      VJTU        VJTI        ATVX        AIVX        VJAI        BVAT        BJAT        BJAI        TOTAL       RNORM  
-----------------------------------------------------------------------------------------------------------------------------
   1    -0.000000   -0.000984   -0.010959   -0.084464   -0.017521   -0.016693   -0.126676   -0.271664   -0.528960    0.002133
   2    -0.000000   -0.000998   -0.011001   -0.084740   -0.017537   -0.016698   -0.126724   -0.271666   -0.529364    0.000166
   3    -0.000000   -0.000999   -0.011001   -0.084745   -0.017537   -0.016698   -0.126725   -0.271667   -0.529371    0.000020
   4    -0.000000   -0.000999   -0.011001   -0.084743   -0.017537   -0.016698   -0.126724   -0.271667   -0.529369    0.000003
-------------------------------------------------------------------------------------------------------------------
 
  FINAL CASPT2 RESULT:
 
  Correlation energy /Case, /Symm, and sums:
 VJTU     -0.00000000 -0.00000000
 VJTIP    -0.00099868 -0.00099868
 VJTIM     0.00000000  0.00000000
 ATVX     -0.01100101 -0.01100101
 AIVX     -0.08474326 -0.08474326
 VJAIP    -0.01226327 -0.01226327
 VJAIM    -0.00527360 -0.00527360
 BVATP    -0.01566997 -0.01566997
 BVATM    -0.00102775 -0.00102775
 BJATP    -0.04663435 -0.04663435
 BJATM    -0.08009007 -0.08009007
 BJAIP    -0.18291750 -0.18291750
 BJAIM    -0.08874922 -0.08874922
 Summed:  -0.52936868 -0.52936868
 
      Reference energy:        -224.5870025151
      E2 (Non-variational):      -0.5293686811
      E2 (Variational):          -0.5293687047
      Total energy:            -225.1163712198
      Residual norm:              0.0000002487
      Reference weight:           0.86034
 
      Contributions to the CASPT2 correlation energy
      Active & Virtual Only:         -0.0276987307
      One Inactive Excited:          -0.2114676827
      Two Inactive Excited:          -0.2902022677
 
 
++ Denominators, etc.
----------------------------------------------------------------------------------------------------
 Report on small energy denominators, large coefficients, and large energy contributions.
CASE  SYMM ACTIVE-MIX  NON-ACTIVE INDICES          DENOMINATOR     RHS VALUE       COEFFICIENT     CONTRIBUTION
ATVX     1  Mu1.0007  Se1.016                       1.87220914     -0.05549203      0.03024649     -0.00167844
ATVX     1  Mu1.0005  Se1.021                       1.79973807     -0.08755656      0.04775937     -0.00418165
AIVX     1  Mu1.0004  In1.007 Se1.014               1.64600535      0.04854807     -0.03017373     -0.00146488
AIVX     1  Mu1.0002  In1.008 Se1.014               1.28055651      0.03849554     -0.02967231     -0.00114225
AIVX     1  Mu1.0002  In1.010 Se1.014               1.05439711     -0.03293129      0.03038320     -0.00100056
AIVX     1  Mu1.0004  In1.008 Se1.015               1.63299720      0.05687663     -0.03551562     -0.00202001
AIVX     1  Mu1.0002  In1.009 Se1.015               1.06871850     -0.04024739      0.03683720     -0.00148260
AIVX     1  Mu1.0004  In1.007 Se1.017               1.86247773     -0.06298301      0.03432818     -0.00216209
AIVX     1  Mu1.0002  In1.008 Se1.017               1.49702889     -0.05688093      0.03702250     -0.00210587
AIVX     1  Mu1.0004  In1.009 Se1.017               1.61929801      0.05524607     -0.03485320     -0.00192550
AIVX     1  Mu1.0002  In1.007 Se1.018               1.56617475     -0.04368522      0.02709311     -0.00118357
AIVX     1  Mu1.0004  In1.008 Se1.018               1.88727372     -0.10143015      0.05469345     -0.00554756
AIVX     1  Mu1.0006  In1.008 Se1.018               2.06148645      0.06416149     -0.03133868     -0.00201074
AIVX     1  Mu1.0004  In1.007 Se1.019               2.04295424      0.05451917     -0.02722348     -0.00148420
AIVX     1  Mu1.0002  In1.010 Se1.019               1.45134600     -0.06715453      0.04463682     -0.00299756
AIVX     1  Mu1.0003  In1.010 Se1.019               1.53140884     -0.04801785      0.03038019     -0.00145879
AIVX     1  Mu1.0002  In1.009 Se1.020               1.47608306     -0.05012249      0.03277462     -0.00164275
BJAIP    1  Se1.017 In1.007 Se1.018 In1.008         2.59834315      0.07733765     -0.02976421     -0.00230189
BJAIP    1  Se1.015 In1.008 Se1.018 In1.008         2.36886262     -0.06615228      0.02792574     -0.00184735
BJAIP    1  Se1.018 In1.008 Se1.018 In1.008         2.62313914      0.09612010     -0.03664314     -0.00352214
BJAIP    1  Se1.017 In1.008 Se1.018 In1.009         2.35516342     -0.06804550      0.02889204     -0.00196597
BJAIP    1  Se1.019 In1.010 Se1.019 In1.010         2.43783151      0.06853220     -0.02811195     -0.00192657
--
 
   (Skipping property calculation,
    use PROP keyword to activate)
--
 
  Total CASPT2 energies:
::    CASPT2 Root  1     Total energy:   -225.11637122
 
  A NEW JOBIPH FILE NAMED 'JOBMIX' IS PREPARED.
********************************************************************************
forrtl: warning (528): IEEE_UNDERFLOW is signaling
--- Stop Module: caspt2 at Fri Jan 24 14:17:55 2025 /rc=_RC_ALL_IS_WELL_ ---
*** files: xmldump
    saved to directory /home/grierjones/DDCASPT2/ozone/ANO-RCC-VDZP/ozone_108.00

>>> EXPORT i = B

>>> EXPORT j = P

>>> IF (-FILE GMJ_e2_${i}_${j}.csv)

>>> COPY /tmp/ozone_108.00/GMJ_RHS_B_P.csv /home/grierjones/DDCASPT2/ozone/ANO-RCC-VDZP/ozone_108.00/GMJ_RHS_B_P.csv

>>> COPY /tmp/ozone_108.00/GMJ_IVECW_B_P.csv /home/grierjones/DDCASPT2/ozone/ANO-RCC-VDZP/ozone_108.00/GMJ_IVECW_B_P.csv

>>> COPY /tmp/ozone_108.00/GMJ_IVECX_B_P.csv /home/grierjones/DDCASPT2/ozone/ANO-RCC-VDZP/ozone_108.00/GMJ_IVECX_B_P.csv

>>> COPY /tmp/ozone_108.00/GMJ_IVECC2_B_P.csv /home/grierjones/DDCASPT2/ozone/ANO-RCC-VDZP/ozone_108.00/GMJ_IVECC2_B_P.csv

>>> COPY /tmp/ozone_108.00/GMJ_e2_B_P.csv /home/grierjones/DDCASPT2/ozone/ANO-RCC-VDZP/ozone_108.00/GMJ_e2_B_P.csv

>>> END FOREACH

>>> EXPORT j = M

>>> IF (-FILE GMJ_e2_${i}_${j}.csv)
(Skipped)

>>> END FOREACH

>>> END FOREACH

>>> EXPORT i = E

>>> EXPORT j = P

>>> IF (-FILE GMJ_e2_${i}_${j}.csv)

>>> COPY /tmp/ozone_108.00/GMJ_RHS_E_P.csv /home/grierjones/DDCASPT2/ozone/ANO-RCC-VDZP/ozone_108.00/GMJ_RHS_E_P.csv

>>> COPY /tmp/ozone_108.00/GMJ_IVECW_E_P.csv /home/grierjones/DDCASPT2/ozone/ANO-RCC-VDZP/ozone_108.00/GMJ_IVECW_E_P.csv

>>> COPY /tmp/ozone_108.00/GMJ_IVECX_E_P.csv /home/grierjones/DDCASPT2/ozone/ANO-RCC-VDZP/ozone_108.00/GMJ_IVECX_E_P.csv

>>> COPY /tmp/ozone_108.00/GMJ_IVECC2_E_P.csv /home/grierjones/DDCASPT2/ozone/ANO-RCC-VDZP/ozone_108.00/GMJ_IVECC2_E_P.csv

>>> COPY /tmp/ozone_108.00/GMJ_e2_E_P.csv /home/grierjones/DDCASPT2/ozone/ANO-RCC-VDZP/ozone_108.00/GMJ_e2_E_P.csv

>>> END FOREACH

>>> EXPORT j = M

>>> IF (-FILE GMJ_e2_${i}_${j}.csv)

>>> COPY /tmp/ozone_108.00/GMJ_RHS_E_M.csv /home/grierjones/DDCASPT2/ozone/ANO-RCC-VDZP/ozone_108.00/GMJ_RHS_E_M.csv

>>> COPY /tmp/ozone_108.00/GMJ_IVECW_E_M.csv /home/grierjones/DDCASPT2/ozone/ANO-RCC-VDZP/ozone_108.00/GMJ_IVECW_E_M.csv

>>> COPY /tmp/ozone_108.00/GMJ_IVECX_E_M.csv /home/grierjones/DDCASPT2/ozone/ANO-RCC-VDZP/ozone_108.00/GMJ_IVECX_E_M.csv

>>> COPY /tmp/ozone_108.00/GMJ_IVECC2_E_M.csv /home/grierjones/DDCASPT2/ozone/ANO-RCC-VDZP/ozone_108.00/GMJ_IVECC2_E_M.csv

>>> COPY /tmp/ozone_108.00/GMJ_e2_E_M.csv /home/grierjones/DDCASPT2/ozone/ANO-RCC-VDZP/ozone_108.00/GMJ_e2_E_M.csv

>>> END FOREACH

>>> END FOREACH

>>> EXPORT i = F

>>> EXPORT j = P

>>> IF (-FILE GMJ_e2_${i}_${j}.csv)

>>> COPY /tmp/ozone_108.00/GMJ_RHS_F_P.csv /home/grierjones/DDCASPT2/ozone/ANO-RCC-VDZP/ozone_108.00/GMJ_RHS_F_P.csv

>>> COPY /tmp/ozone_108.00/GMJ_IVECW_F_P.csv /home/grierjones/DDCASPT2/ozone/ANO-RCC-VDZP/ozone_108.00/GMJ_IVECW_F_P.csv

>>> COPY /tmp/ozone_108.00/GMJ_IVECX_F_P.csv /home/grierjones/DDCASPT2/ozone/ANO-RCC-VDZP/ozone_108.00/GMJ_IVECX_F_P.csv

>>> COPY /tmp/ozone_108.00/GMJ_IVECC2_F_P.csv /home/grierjones/DDCASPT2/ozone/ANO-RCC-VDZP/ozone_108.00/GMJ_IVECC2_F_P.csv

>>> COPY /tmp/ozone_108.00/GMJ_e2_F_P.csv /home/grierjones/DDCASPT2/ozone/ANO-RCC-VDZP/ozone_108.00/GMJ_e2_F_P.csv

>>> END FOREACH

>>> EXPORT j = M

>>> IF (-FILE GMJ_e2_${i}_${j}.csv)

>>> COPY /tmp/ozone_108.00/GMJ_RHS_F_M.csv /home/grierjones/DDCASPT2/ozone/ANO-RCC-VDZP/ozone_108.00/GMJ_RHS_F_M.csv

>>> COPY /tmp/ozone_108.00/GMJ_IVECW_F_M.csv /home/grierjones/DDCASPT2/ozone/ANO-RCC-VDZP/ozone_108.00/GMJ_IVECW_F_M.csv

>>> COPY /tmp/ozone_108.00/GMJ_IVECX_F_M.csv /home/grierjones/DDCASPT2/ozone/ANO-RCC-VDZP/ozone_108.00/GMJ_IVECX_F_M.csv

>>> COPY /tmp/ozone_108.00/GMJ_IVECC2_F_M.csv /home/grierjones/DDCASPT2/ozone/ANO-RCC-VDZP/ozone_108.00/GMJ_IVECC2_F_M.csv

>>> COPY /tmp/ozone_108.00/GMJ_e2_F_M.csv /home/grierjones/DDCASPT2/ozone/ANO-RCC-VDZP/ozone_108.00/GMJ_e2_F_M.csv

>>> END FOREACH

>>> END FOREACH

>>> EXPORT i = G

>>> EXPORT j = P

>>> IF (-FILE GMJ_e2_${i}_${j}.csv)

>>> COPY /tmp/ozone_108.00/GMJ_RHS_G_P.csv /home/grierjones/DDCASPT2/ozone/ANO-RCC-VDZP/ozone_108.00/GMJ_RHS_G_P.csv

>>> COPY /tmp/ozone_108.00/GMJ_IVECW_G_P.csv /home/grierjones/DDCASPT2/ozone/ANO-RCC-VDZP/ozone_108.00/GMJ_IVECW_G_P.csv

>>> COPY /tmp/ozone_108.00/GMJ_IVECX_G_P.csv /home/grierjones/DDCASPT2/ozone/ANO-RCC-VDZP/ozone_108.00/GMJ_IVECX_G_P.csv

>>> COPY /tmp/ozone_108.00/GMJ_IVECC2_G_P.csv /home/grierjones/DDCASPT2/ozone/ANO-RCC-VDZP/ozone_108.00/GMJ_IVECC2_G_P.csv

>>> COPY /tmp/ozone_108.00/GMJ_e2_G_P.csv /home/grierjones/DDCASPT2/ozone/ANO-RCC-VDZP/ozone_108.00/GMJ_e2_G_P.csv

>>> END FOREACH

>>> EXPORT j = M

>>> IF (-FILE GMJ_e2_${i}_${j}.csv)

>>> COPY /tmp/ozone_108.00/GMJ_RHS_G_M.csv /home/grierjones/DDCASPT2/ozone/ANO-RCC-VDZP/ozone_108.00/GMJ_RHS_G_M.csv

>>> COPY /tmp/ozone_108.00/GMJ_IVECW_G_M.csv /home/grierjones/DDCASPT2/ozone/ANO-RCC-VDZP/ozone_108.00/GMJ_IVECW_G_M.csv

>>> COPY /tmp/ozone_108.00/GMJ_IVECX_G_M.csv /home/grierjones/DDCASPT2/ozone/ANO-RCC-VDZP/ozone_108.00/GMJ_IVECX_G_M.csv

>>> COPY /tmp/ozone_108.00/GMJ_IVECC2_G_M.csv /home/grierjones/DDCASPT2/ozone/ANO-RCC-VDZP/ozone_108.00/GMJ_IVECC2_G_M.csv

>>> COPY /tmp/ozone_108.00/GMJ_e2_G_M.csv /home/grierjones/DDCASPT2/ozone/ANO-RCC-VDZP/ozone_108.00/GMJ_e2_G_M.csv

>>> END FOREACH

>>> END FOREACH

>>> EXPORT i = H

>>> EXPORT j = P

>>> IF (-FILE GMJ_e2_${i}_${j}.csv)

>>> COPY /tmp/ozone_108.00/GMJ_RHS_H_P.csv /home/grierjones/DDCASPT2/ozone/ANO-RCC-VDZP/ozone_108.00/GMJ_RHS_H_P.csv

>>> COPY /tmp/ozone_108.00/GMJ_IVECW_H_P.csv /home/grierjones/DDCASPT2/ozone/ANO-RCC-VDZP/ozone_108.00/GMJ_IVECW_H_P.csv

>>> COPY /tmp/ozone_108.00/GMJ_IVECX_H_P.csv /home/grierjones/DDCASPT2/ozone/ANO-RCC-VDZP/ozone_108.00/GMJ_IVECX_H_P.csv

>>> COPY /tmp/ozone_108.00/GMJ_IVECC2_H_P.csv /home/grierjones/DDCASPT2/ozone/ANO-RCC-VDZP/ozone_108.00/GMJ_IVECC2_H_P.csv

>>> COPY /tmp/ozone_108.00/GMJ_e2_H_P.csv /home/grierjones/DDCASPT2/ozone/ANO-RCC-VDZP/ozone_108.00/GMJ_e2_H_P.csv

>>> END FOREACH

>>> EXPORT j = M

>>> IF (-FILE GMJ_e2_${i}_${j}.csv)

>>> COPY /tmp/ozone_108.00/GMJ_RHS_H_M.csv /home/grierjones/DDCASPT2/ozone/ANO-RCC-VDZP/ozone_108.00/GMJ_RHS_H_M.csv

>>> COPY /tmp/ozone_108.00/GMJ_IVECW_H_M.csv /home/grierjones/DDCASPT2/ozone/ANO-RCC-VDZP/ozone_108.00/GMJ_IVECW_H_M.csv

>>> COPY /tmp/ozone_108.00/GMJ_IVECX_H_M.csv /home/grierjones/DDCASPT2/ozone/ANO-RCC-VDZP/ozone_108.00/GMJ_IVECX_H_M.csv

>>> COPY /tmp/ozone_108.00/GMJ_IVECC2_H_M.csv /home/grierjones/DDCASPT2/ozone/ANO-RCC-VDZP/ozone_108.00/GMJ_IVECC2_H_M.csv

>>> COPY /tmp/ozone_108.00/GMJ_e2_H_M.csv /home/grierjones/DDCASPT2/ozone/ANO-RCC-VDZP/ozone_108.00/GMJ_e2_H_M.csv

>>> END FOREACH

>>> END FOREACH

>>> EXPORT i = A

>>> IF (-FILE GMJ_e2_$i.csv)

>>> COPY /tmp/ozone_108.00/GMJ_RHS_A.csv /home/grierjones/DDCASPT2/ozone/ANO-RCC-VDZP/ozone_108.00/GMJ_RHS_A.csv

>>> COPY /tmp/ozone_108.00/GMJ_IVECW_A.csv /home/grierjones/DDCASPT2/ozone/ANO-RCC-VDZP/ozone_108.00/GMJ_IVECW_A.csv

>>> COPY /tmp/ozone_108.00/GMJ_IVECX_A.csv /home/grierjones/DDCASPT2/ozone/ANO-RCC-VDZP/ozone_108.00/GMJ_IVECX_A.csv

>>> COPY /tmp/ozone_108.00/GMJ_IVECC2_A.csv /home/grierjones/DDCASPT2/ozone/ANO-RCC-VDZP/ozone_108.00/GMJ_IVECC2_A.csv

>>> COPY /tmp/ozone_108.00/GMJ_e2_A.csv /home/grierjones/DDCASPT2/ozone/ANO-RCC-VDZP/ozone_108.00/GMJ_e2_A.csv

>>> END FOREACH

>>> EXPORT i = C

>>> IF (-FILE GMJ_e2_$i.csv)

>>> COPY /tmp/ozone_108.00/GMJ_RHS_C.csv /home/grierjones/DDCASPT2/ozone/ANO-RCC-VDZP/ozone_108.00/GMJ_RHS_C.csv

>>> COPY /tmp/ozone_108.00/GMJ_IVECW_C.csv /home/grierjones/DDCASPT2/ozone/ANO-RCC-VDZP/ozone_108.00/GMJ_IVECW_C.csv

>>> COPY /tmp/ozone_108.00/GMJ_IVECX_C.csv /home/grierjones/DDCASPT2/ozone/ANO-RCC-VDZP/ozone_108.00/GMJ_IVECX_C.csv

>>> COPY /tmp/ozone_108.00/GMJ_IVECC2_C.csv /home/grierjones/DDCASPT2/ozone/ANO-RCC-VDZP/ozone_108.00/GMJ_IVECC2_C.csv

>>> COPY /tmp/ozone_108.00/GMJ_e2_C.csv /home/grierjones/DDCASPT2/ozone/ANO-RCC-VDZP/ozone_108.00/GMJ_e2_C.csv

>>> END FOREACH

>>> EXPORT i = D

>>> IF (-FILE GMJ_e2_$i.csv)

>>> COPY /tmp/ozone_108.00/GMJ_RHS_D.csv /home/grierjones/DDCASPT2/ozone/ANO-RCC-VDZP/ozone_108.00/GMJ_RHS_D.csv

>>> COPY /tmp/ozone_108.00/GMJ_IVECW_D.csv /home/grierjones/DDCASPT2/ozone/ANO-RCC-VDZP/ozone_108.00/GMJ_IVECW_D.csv

>>> COPY /tmp/ozone_108.00/GMJ_IVECX_D.csv /home/grierjones/DDCASPT2/ozone/ANO-RCC-VDZP/ozone_108.00/GMJ_IVECX_D.csv

>>> COPY /tmp/ozone_108.00/GMJ_IVECC2_D.csv /home/grierjones/DDCASPT2/ozone/ANO-RCC-VDZP/ozone_108.00/GMJ_IVECC2_D.csv

>>> COPY /tmp/ozone_108.00/GMJ_e2_D.csv /home/grierjones/DDCASPT2/ozone/ANO-RCC-VDZP/ozone_108.00/GMJ_e2_D.csv

>>> END FOREACH

.########################.
.# Non-zero return code #.
.########################.

    Timing: Wall=5.17 User=2.92 System=1.13
********************************************
*** WorkDir at /tmp/ozone_108.00 cleaned ***
********************************************
