   This run of MOLCAS is using the pymolcas driver

                             OPE
                             OPE          NMOL  CASOP  ENMOLC A   SO
                 OPE        NMOLC        AS  OP EN  MO LC     AS  OP
                OPENM       OL CA        SO  PE NM  OL CA     SOP EN
                OP EN      MO   LC       AS  OP ENMOL  CASO   PENMOL
                OP  EN     MO   LC       AS  OP EN     MO     LC ASO
               OP   E  NMOL  C  AS       OP  EN MO     LC     AS  OP
               OP  E   NMO   LC AS        OPEN  MO     LCASOP EN   M
               O  PEN   MO  LCA  SO
            OPE   NMO   L   CAS    OP
        OPENMOL  CASOP     ENMOL   CASOPE
     OPENMOLCA   SOPENMOLCASOPEN   MOLCASOPE
    OPENMOLCAS   OP           EN   MOL    CAS
    OPENMOLCAS       OP  ENM        O     LCA
    OPENMOLCAS    OPEN  MOLCASO     P  E  NMO
    OPENMOLCAS     OP               E  N  MOL
    OPENMOLCA   SO           PENM   O  L  CAS    OPEN    MO    LCAS
    OPENMOLCA   SOP           ENM   O  L  CAS   OP  EN  MOLC  AS   O
    OPENMOLCA   SOPE           NM      O  LCA   S      OP  EN MO
    OPENMOLC                AS         O  PEN   M      OL  CA  SOPE
    OPENMO        LCASOPE  NMOL        C  ASO   P      ENMOLC     AS
    OPE     NMO      LCA  SO     P     E   NM   OL  CA SO  PE N   MO
          OPENMOLCA            SOPE   NMO        LCAS  O    P  ENMO
     OPENMOLCASOPENMOLCASOPENMOLCASOPENMOLCA
        OPENMOLCASOPENMOLCASOPENMOLCASOPE
            OPENMOLCASOPENMOLCASOPENM
               OPENMOLCASOPENMOLCA        version: ea724fe96-dirty
                   OPENMOLCASO
                       OPE                tag:

 OpenMolcas is free software; you can redistribute it and/or modify it
 under the terms of the GNU Lesser General Public License version 2.1.
 OpenMolcas is distributed in the hope that it will be useful, but it
 is provided "as is" and without any express or implied warranties.
 For more details see the full text of the license in the file
 LICENSE or in <http://www.gnu.org/licenses/>.

                 Copyright (C) The OpenMolcas Authors
           For the author list and the recommended citation,
                   consult the file CONTRIBUTORS.md

           *************************************************
           * pymolcas version py2.28                       *
           *   build c4a6d18ded8cb6cad61d2372a9abd97c      *
           *   (after the EMIL interpreter by V. Veryazov) *
           *************************************************

configuration info
------------------
C Compiler ID: Intel
C flags: -std=gnu99
Fortran Compiler ID: Intel
Fortran flags: -fpp -i8 -r8 -heap-arrays
Definitions: _MOLCAS_;_I8_;_LINUX_
Parallel: OFF (GA=OFF)


   --------------------------------------------------------------------------------
  |
  |              Project: ozone_122.75
  |       Submitted from: /home/grierjones/DDCASPT2/ozone/ANO-RCC-VTZP/ozone_122.75
  |         Scratch area: /tmp/ozone_122.75
  |      Save outputs to: /home/grierjones/DDCASPT2/ozone/ANO-RCC-VTZP/ozone_122.75
  |               Molcas: /home/grierjones/Test/build
  |
  | Scratch area is empty
  |
  |       MOLCAS_DRIVER = /usr/local/pymolcas
  | MOLCAS_KEEP_WORKDIR = NO
  |  MOLCAS_NEW_WORKDIR = YES
  |       MOLCAS_NPROCS = 1
  |        MOLCAS_PRINT = NORMAL
  |       MOLCAS_SOURCE = /home/grierjones/Test/build
  |    MOLCAS_STRUCTURE = 0
  |
   --------------------------------------------------------------------------------

++ ---------   Input file   ---------

&GATEWAY
coord=ozone_122.75.xyz
Basis = ANO-RCC-VTZP
Group = nosymm
Expert
End of Input

&SEWARD
End of Input

&SCF

>>> COPY $WorkDir/ozone_122.75.scf.h5 $CurrDir/

&RASSCF
Title= RASSCF
FileOrb
/home/grierjones/DDCASPT2/ozone/ANO-RCC-VTZP/ozone_122.50/ozone_122.50.RasOrb
NACTEL
4 0 0
Inactive
10
RAS2
3
Symmetry
1
Spin
1
orblisting
all
ITERation
300 200

>>> COPY $WorkDir/ozone_122.75.rasscf.h5 $CurrDir/

>>> COPY $WorkDir/GMJ_Fock_MO.csv $CurrDir/ozone_122.75.GMJ_Fock_MO.csv

>>> COPY $WorkDir/GMJ_PT2_Fock_MO.csv $CurrDir/ozone_122.75.GMJ_PT2_Fock_MO.csv

&MOTRA
Frozen=0
LUMORB

>>> COPY $WorkDir/GMJ_one_int_indx.csv $CurrDir/ozone_122.75.GMJ_one_int_indx.csv

>>> COPY $WorkDir/GMJ_one_int.csv $CurrDir/ozone_122.75.GMJ_one_int.csv

>>> COPY $WorkDir/GMJ_two_int_indx.csv $CurrDir/ozone_122.75.GMJ_two_int_indx.csv

>>> COPY $WorkDir/GMJ_two_int.csv $CurrDir/ozone_122.75.GMJ_two_int.csv

&CASPT2
Frozen
0
MAXITER
50

>>> FOREACH i IN (B,E,F,G,H)

  >>> FOREACH j IN (P,M)

    >>> IF (-FILE GMJ_e2_${i}_${j}.csv)

      >>> COPY $WorkDir/GMJ_RHS_${i}_${j}.csv $CurrDir/GMJ_RHS_${i}_${j}.csv

      >>> COPY $WorkDir/GMJ_IVECW_${i}_${j}.csv $CurrDir/GMJ_IVECW_${i}_${j}.csv

      >>> COPY $WorkDir/GMJ_IVECX_${i}_${j}.csv $CurrDir/GMJ_IVECX_${i}_${j}.csv

      >>> COPY $WorkDir/GMJ_IVECC2_${i}_${j}.csv $CurrDir/GMJ_IVECC2_${i}_${j}.csv

      >>> COPY $WorkDir/GMJ_e2_${i}_${j}.csv $CurrDir/GMJ_e2_${i}_${j}.csv

    >>> END IF

  >>> END FOREACH

>>> END FOREACH

>>> FOREACH i IN (A,C,D)

  >>> IF (-FILE GMJ_e2_$i.csv)

    >>> COPY $WorkDir/GMJ_RHS_$i.csv $CurrDir/GMJ_RHS_$i.csv

    >>> COPY $WorkDir/GMJ_IVECW_$i.csv $CurrDir/GMJ_IVECW_$i.csv

    >>> COPY $WorkDir/GMJ_IVECX_$i.csv $CurrDir/GMJ_IVECX_$i.csv

    >>> COPY $WorkDir/GMJ_IVECC2_$i.csv $CurrDir/GMJ_IVECC2_$i.csv

    >>> COPY $WorkDir/GMJ_e2_$i.csv $CurrDir/GMJ_e2_$i.csv

  >>> END IF

>>> END FOREACH

-- ----------------------------------

--- Start Module: gateway at Wed Jan  1 02:11:29 2025 ---
 
()()()()()()()()()()()()()()()()()()()()()()()()()()()()()()()()()()()()()()()()()()()()()()()()()()

                                              &GATEWAY

                                   only a single process is used
                       available to each process: 2.0 GB of memory, 1 thread?
()()()()()()()()()()()()()()()()()()()()()()()()()()()()()()()()()()()()()()()()()()()()()()()()()()
 
 ###############################################################################
 ###############################################################################
 ###                                                                         ###
 ###                                                                         ###
 ###                                                                         ###
 ###    WARNING: EXPERT option is ON!                                        ###
 ###                                                                         ###
 ###                                                                         ###
 ###############################################################################
 ###############################################################################
 
++    Symmetry information:
      ---------------------
 
                    Character Table for C1 
 
                             E  
                    a        1  x, y, xy, Rz, z, xz, Ry, yz, Rx, I
--
 
 
++    Basis set information:
      ----------------------
 
 
      Basis set label: O.ANO-RCC...4S3P2D1F.
 
      Electronic valence basis set:
      ------------------
      Associated Effective Charge   8.000000 au
      Associated Actual Charge      8.000000 au
      Nuclear Model: Point charge
 
      Shell  nPrim  nBasis  Cartesian Spherical Contaminant
         s      14       4        X                  
         p       9       3        X                  
         d       4       2                 X         
         f       3       1                 X         
--
 
 
++    Molecular structure info:
      -------------------------
 
                    ************************************************ 
                    **** Cartesian Coordinates / Bohr, Angstrom **** 
                    ************************************************ 
 
     Center  Label                x              y              z                     x              y              z
        1      O1               1.157000       2.119885       0.000000              0.612258       1.121795       0.000000
        2      O2               0.000000       0.000000       0.000000              0.000000       0.000000       0.000000
        3      O3               1.157000      -2.119885       0.000000              0.612258      -1.121795       0.000000
 
                    *************************************** 
                    *    InterNuclear Distances / Bohr    * 
                    *************************************** 
 
               1 O1            2 O2            3 O3    
    1 O1       0.000000
    2 O2       2.415070        0.000000
    3 O3       4.239771        2.415070        0.000000
 
                    ******************************************* 
                    *    InterNuclear Distances / Angstrom    * 
                    ******************************************* 
 
               1 O1            2 O2            3 O3    
    1 O1       0.000000
    2 O2       1.278000        0.000000
    3 O3       2.243590        1.278000        0.000000
 
                    ************************************** 
                    *    Valence Bond Angles / Degree    * 
                    ************************************** 
                          Atom centers                 Phi
                      1 O1       2 O2       3 O3       122.75
--
 
 
            Nuclear Potential Energy             68.09569253 au
 
 ###############################################################################
 ###############################################################################
 ###                                                                         ###
 ###                                                                         ###
 ###    There were warnings during the execution                             ###
 ###    Please, check the output with care!                                  ###
 ###                                                                         ###
 ###                                                                         ###
 ###############################################################################
 ###############################################################################
--- Stop Module: gateway at Wed Jan  1 02:11:29 2025 /rc=_RC_ALL_IS_WELL_ ---
*** files: xmldump
    saved to directory /home/grierjones/DDCASPT2/ozone/ANO-RCC-VTZP/ozone_122.75

--- Start Module: seward at Wed Jan  1 02:11:29 2025 ---
 
()()()()()()()()()()()()()()()()()()()()()()()()()()()()()()()()()()()()()()()()()()()()()()()()()()

                                              &SEWARD

                                   only a single process is used
                       available to each process: 2.0 GB of memory, 1 thread?
()()()()()()()()()()()()()()()()()()()()()()()()()()()()()()()()()()()()()()()()()()()()()()()()()()
 
 ###############################################################################
 ###############################################################################
 ###                                                                         ###
 ###                                                                         ###
 ###                                                                         ###
 ###    WARNING: EXPERT option is ON!                                        ###
 ###                                                                         ###
 ###                                                                         ###
 ###############################################################################
 ###############################################################################
               SEWARD will generate:
                  Multipole Moment integrals up to order  2
                  Kinetic Energy integrals
                  Nuclear Attraction integrals (point charge)
                  One-Electron Hamiltonian integrals
                  Velocity integrals
                  Relativistic Douglas-Kroll-Hess integrals:
                    - Parametrization         : EXP
                    - DKH order of Hamiltonian: 2
                    - DKH order of Properties : 0
                         - multipole moment operators
                         - electric potential operators
                         - contact operators
                  Atomic mean-field integrals
                  Two-Electron Repulsion integrals
 
                   Integrals are discarded if absolute value <: 0.10E-13
                   Integral cutoff threshold is set to       <: 0.10E-15
 
            Nuclear Potential Energy             68.09569253 au
 
 
      Basis set specifications :
      Symmetry species         a  
      Basis functions           90
 
 
  Input file to MOLDEN was generated!
 
 ###############################################################################
 ###############################################################################
 ###                                                                         ###
 ###                                                                         ###
 ###    There were warnings during the execution                             ###
 ###    Please, check the output with care!                                  ###
 ###                                                                         ###
 ###                                                                         ###
 ###############################################################################
 ###############################################################################
--- Stop Module: seward at Wed Jan  1 02:11:32 2025 /rc=_RC_ALL_IS_WELL_ ---
*** files: ozone_122.75.GssOrb ozone_122.75.guessorb.h5 ozone_122.75.guessorb.molden xmldump
    saved to directory /home/grierjones/DDCASPT2/ozone/ANO-RCC-VTZP/ozone_122.75
--- Module seward spent 2 seconds ---

*** symbolic link created: INPORB -> ozone_122.75.GssOrb
--- Start Module: scf at Wed Jan  1 02:11:32 2025 ---
 
()()()()()()()()()()()()()()()()()()()()()()()()()()()()()()()()()()()()()()()()()()()()()()()()()()

                                                &SCF

                                   only a single process is used
                       available to each process: 2.0 GB of memory, 1 thread?
()()()()()()()()()()()()()()()()()()()()()()()()()()()()()()()()()()()()()()()()()()()()()()()()()()
 
++    Input section:
      --------------
 
      Header of the integral files:
      
       Integrals generated by seward 4.2.0  , Wed Jan  1 02:11:29 2025
 
 
      Cartesian coordinates in Angstrom:
      -----------------------------------------------------
      No.  Label        X            Y            Z        
      -----------------------------------------------------
       1   O1         0.61225800   1.12179500   0.00000000
       2   O2         0.00000000   0.00000000   0.00000000
       3   O3         0.61225800  -1.12179500   0.00000000
      -----------------------------------------------------
      Nuclear repulsion energy =   68.09569253
--
 
++    Orbital specifications:
      -----------------------
 
      Symmetry species               1
                                     a
      Frozen orbitals                0
      Occupied orbitals             12
      Secondary orbitals            78
      Deleted orbitals               0
      Total number of orbitals      90
      Number of basis functions     90
--
 
      Molecular charge                           0.000
 
++    Optimization specifications:
      ----------------------------
 
      SCF Algorithm: Conventional
      Minimized density differences are used
      Number of density matrices in core                5
      Maximum number of NDDO SCF iterations           400
      Maximum number of HF SCF iterations             400
      Threshold for SCF energy change            0.10E-08
      Threshold for density matrix               0.10E-03
      Threshold for Fock matrix                  0.15E-03
      Threshold for linear dependence            0.10E-08
      Threshold at which DIIS is turned on       0.15E+00
      Threshold at which QNR/C2DIIS is turned on 0.75E-01
      Threshold for Norm(delta) (QNR/C2DIIS)     0.20E-04
      DIIS extrapolation of the SCF procedure
      All orbitals punched on: SCFORB
--
 
      Input vectors read from INPORB
      Orbital file label: *Guess orbitals
 
 
++ Convergence information
                                   SCF        iterations: Energy and convergence statistics
 
Iter     Tot. SCF        One-elec.       Two-elec.     Energy      Max Dij or  Max Fij      DNorm      TNorm      AccCon     Time
         Energy          Energy          Energy        Change      Delta Norm                                                in Sec.
   1  -223.897085363  -439.849999285   147.857221390   0.00E+00    0.64E+00*   0.26E+00*    0.74E+01   0.11E+03   None         0.
   2  -224.104794888  -446.168549442   153.968062022  -0.21E+00*   0.22E+00*   0.18E+00*    0.27E+01   0.11E+03   EDIIS        0.
   3  -224.472329175  -443.520523721   150.952502014  -0.37E+00*   0.22E+00*   0.83E-01*    0.68E+00   0.11E+03   EDIIS        0.
   4  -224.472428592  -444.197601818   151.629480693  -0.99E-04*   0.14E-01*   0.45E-01*    0.28E+00   0.11E+03   EDIIS        0.
   5  -224.511441580  -443.804542865   151.197408752  -0.39E-01*   0.67E-02*   0.28E-02*    0.34E-01   0.11E+03   c2DIIS       0.
   6  -224.511617569  -443.833638831   151.226328730  -0.18E-03*   0.35E-02*   0.12E-02*    0.93E-02   0.11E+03   QNRc2DIIS    0.
   7  -224.511654746  -443.827280160   151.219932882  -0.37E-04*   0.47E-02*   0.93E-03*    0.38E-02   0.11E+03   QNRc2DIIS    0.
   8  -224.511673000  -443.831234395   151.223868862  -0.18E-04*   0.70E-03*   0.41E-03*    0.31E-02   0.11E+03   QNRc2DIIS    0.
   9  -224.511674187  -443.830401384   151.223034665  -0.12E-05*   0.79E-03*   0.28E-03*    0.56E-03   0.11E+03   QNRc2DIIS    0.
  10  -224.511674773  -443.827799504   151.220432198  -0.59E-06*   0.90E-04*   0.54E-04     0.20E-03   0.11E+03   QNRc2DIIS    0.
  11  -224.511674810  -443.829858298   151.222490956  -0.37E-07*   0.25E-04*   0.82E-05     0.80E-04   0.11E+03   QNRc2DIIS    0.
  12  -224.511674812  -443.829753078   151.222385734  -0.20E-08*   0.11E-04    0.24E-05     0.19E-04   0.11E+03   QNRc2DIIS    0.
  13  -224.511674812  -443.829693908   151.222326563  -0.18E-09    0.62E-06    0.20E-06     0.18E-03   0.11E+03   QNRc2DIIS    0.
 
       Convergence after 13 Macro Iterations
--
 
 *****************************************************************************************************************************
 *                                                                                                                           *
 *                                             SCF/KS-DFT Program, Final results                                             *
 *                                                                                                                           *
 *                                                                                                                           *
 *                                                                                                                           *
 *                                                       Final Results                                                       *
 *                                                                                                                           *
 *****************************************************************************************************************************
 
::    Total SCF energy                               -224.5116748122
      One-electron energy                            -443.8296939075
      Two-electron energy                             151.2223265630
      Nuclear repulsion energy                         68.0956925324
      Kinetic energy (interpolated)                   225.0315429771
      Virial theorem                                    0.9976897987
      Total spin, S(S+1)                                0.0000000000
      Total spin, S                                     0.0000000000
      Max non-diagonal density matrix element           0.0000004548
      Max non-diagonal Fock matrix element              0.0000000557
 
 
      All orbitals with orbital energies smaller than  E(LUMO)+0.5 are printed
 
++    Molecular orbitals:
      -------------------
 
      Title: SCF orbitals

      Molecular orbitals for symmetry species 1: a  
 
          Orbital            1         2         3         4         5         6         7         8         9        10    
          Energy          -20.9315  -20.7297  -20.7296   -1.7440   -1.4403   -1.0927   -0.8319   -0.8022   -0.7783   -0.5744
          Occ. No.          2.0000    2.0000    2.0000    2.0000    2.0000    2.0000    2.0000    2.0000    2.0000    2.0000
 
        1 O1     1s         0.0023   -0.7064    0.7063   -0.0133    0.0119    0.0103   -0.0115   -0.0230   -0.0000    0.0068
        2 O1     2s         0.0034    0.0051   -0.0054    0.3361   -0.5700    0.5995   -0.2468   -0.4288   -0.0000    0.0582
        3 O1     3s         0.0020    0.0037   -0.0037   -0.0095    0.0194    0.0174   -0.0225   -0.0513    0.0000    0.0176
        4 O1     4s         0.0003    0.0008   -0.0007   -0.0006    0.0041    0.0028   -0.0045   -0.0109    0.0000    0.0041
        5 O1     2px       -0.0009   -0.0013    0.0012   -0.0493    0.0600    0.1022    0.1690   -0.3183   -0.0000   -0.5525
        6 O1     3px       -0.0006   -0.0014    0.0011    0.0120   -0.0083   -0.0170   -0.0085    0.0288   -0.0000   -0.0104
        7 O1     4px        0.0000    0.0006   -0.0007    0.0024   -0.0000    0.0007   -0.0004    0.0019   -0.0000    0.0037
        8 O1     2py       -0.0020   -0.0021    0.0024   -0.1105    0.0711    0.0961   -0.3349   -0.2717   -0.0000    0.4668
        9 O1     3py       -0.0012   -0.0021    0.0024    0.0145   -0.0151   -0.0162    0.0329    0.0382   -0.0000   -0.0039
       10 O1     4py        0.0005    0.0013   -0.0014    0.0010   -0.0036    0.0011    0.0038    0.0032    0.0000   -0.0033
       11 O1     2pz        0.0000   -0.0000   -0.0000   -0.0000    0.0000    0.0000   -0.0000   -0.0000    0.3775    0.0000
       12 O1     3pz        0.0000    0.0000    0.0000    0.0000    0.0000   -0.0000    0.0000    0.0000   -0.0181   -0.0000
       13 O1     4pz        0.0000    0.0000    0.0000    0.0000    0.0000   -0.0000    0.0000    0.0000   -0.0068   -0.0000
       14 O1     3d2-       0.0003    0.0010   -0.0010    0.0156   -0.0145   -0.0120    0.0029    0.0274    0.0000    0.0002
       15 O1     4d2-       0.0001    0.0005   -0.0005    0.0017   -0.0018   -0.0008    0.0006    0.0024   -0.0000    0.0008
       16 O1     3d1-      -0.0000    0.0000    0.0000   -0.0000   -0.0000    0.0000    0.0000    0.0000   -0.0280   -0.0000
       17 O1     4d1-      -0.0000    0.0000   -0.0000   -0.0000   -0.0000    0.0000    0.0000    0.0000   -0.0043   -0.0000
       18 O1     3d0       -0.0003   -0.0005    0.0005   -0.0104    0.0091    0.0040   -0.0090   -0.0146   -0.0000    0.0046
       19 O1     4d0       -0.0002   -0.0004    0.0004   -0.0003    0.0010   -0.0001   -0.0005   -0.0009   -0.0000    0.0004
       20 O1     3d1+      -0.0000    0.0000   -0.0000    0.0000    0.0000   -0.0000   -0.0000    0.0000   -0.0157   -0.0000
       21 O1     4d1+       0.0000    0.0000    0.0000   -0.0000   -0.0000   -0.0000    0.0000    0.0000   -0.0031   -0.0000
       22 O1     3d2+      -0.0005   -0.0007    0.0007   -0.0131    0.0064    0.0031   -0.0258   -0.0089   -0.0000    0.0182
       23 O1     4d2+      -0.0003   -0.0003    0.0003   -0.0016    0.0009    0.0007   -0.0023   -0.0004   -0.0000    0.0030
       24 O1     4f3-       0.0001    0.0000   -0.0000    0.0014    0.0004    0.0014    0.0068   -0.0017    0.0000   -0.0055
       25 O1     4f2-       0.0000   -0.0000   -0.0000    0.0000   -0.0000    0.0000   -0.0000   -0.0000    0.0058    0.0000
       26 O1     4f1-       0.0000    0.0002   -0.0001    0.0031   -0.0027   -0.0008    0.0022    0.0032    0.0000   -0.0008
       27 O1     4f0       -0.0000   -0.0000   -0.0000   -0.0000   -0.0000   -0.0000    0.0000    0.0000   -0.0038   -0.0000
       28 O1     4f1+       0.0000    0.0001   -0.0001    0.0015   -0.0016   -0.0008    0.0005    0.0018    0.0000   -0.0012
       29 O1     4f2+       0.0000    0.0000    0.0000    0.0000    0.0000   -0.0000    0.0000    0.0000   -0.0041   -0.0000
       30 O1     4f3+       0.0000    0.0002   -0.0002    0.0056   -0.0053   -0.0025    0.0029    0.0068    0.0000   -0.0017
       31 O2     1s         0.9990    0.0000   -0.0008   -0.0274   -0.0000   -0.0169   -0.0080   -0.0000   -0.0000   -0.0000
       32 O2     2s        -0.0068   -0.0000    0.0110    0.6191   -0.0000   -0.6640   -0.0854    0.0000   -0.0000   -0.0000
       33 O2     3s        -0.0047   -0.0000    0.0063   -0.0684   -0.0000   -0.0153   -0.0140   -0.0000   -0.0000   -0.0000
       34 O2     4s        -0.0011   -0.0000    0.0010   -0.0122   -0.0000   -0.0040   -0.0042   -0.0000   -0.0000   -0.0000
       35 O2     2px       -0.0014   -0.0000    0.0035    0.0976   -0.0000    0.2316    0.6676    0.0000    0.0000   -0.0000
       36 O2     3px       -0.0021   -0.0000    0.0022   -0.0382   -0.0000   -0.0316   -0.0700   -0.0000   -0.0000   -0.0000
       37 O2     4px        0.0017    0.0000   -0.0007   -0.0028    0.0000    0.0011   -0.0091   -0.0000   -0.0000    0.0000
       38 O2     2py       -0.0000   -0.0058   -0.0000   -0.0000   -0.3309    0.0000   -0.0000    0.5565    0.0000   -0.1446
       39 O2     3py       -0.0000   -0.0037   -0.0000    0.0000    0.0632    0.0000   -0.0000   -0.0571   -0.0000   -0.0083
       40 O2     4py       -0.0000    0.0012    0.0000    0.0000   -0.0018    0.0000   -0.0000   -0.0091   -0.0000   -0.0007
       41 O2     2pz       -0.0000    0.0000    0.0000   -0.0000   -0.0000   -0.0000   -0.0000   -0.0000    0.6842    0.0000
       42 O2     3pz       -0.0000    0.0000   -0.0000   -0.0000   -0.0000    0.0000    0.0000    0.0000   -0.0465    0.0000
       43 O2     4pz       -0.0000   -0.0000   -0.0000   -0.0000   -0.0000   -0.0000    0.0000    0.0000   -0.0162   -0.0000
       44 O2     3d2-       0.0000   -0.0014   -0.0000   -0.0000   -0.0396    0.0000   -0.0000    0.0281    0.0000   -0.0420
       45 O2     4d2-       0.0000   -0.0007   -0.0000    0.0000   -0.0044   -0.0000   -0.0000    0.0026   -0.0000   -0.0074
       46 O2     3d1-       0.0000    0.0000    0.0000   -0.0000    0.0000    0.0000   -0.0000   -0.0000    0.0000    0.0000
       47 O2     4d1-       0.0000    0.0000    0.0000   -0.0000   -0.0000    0.0000   -0.0000   -0.0000    0.0000    0.0000
       48 O2     3d0        0.0005    0.0000   -0.0010   -0.0151    0.0000   -0.0064   -0.0144   -0.0000   -0.0000    0.0000
       49 O2     4d0        0.0006    0.0000   -0.0006    0.0009    0.0000   -0.0003   -0.0008   -0.0000   -0.0000    0.0000
       50 O2     3d1+      -0.0000    0.0000    0.0000   -0.0000    0.0000    0.0000   -0.0000   -0.0000    0.0310    0.0000
       51 O2     4d1+      -0.0000    0.0000    0.0000   -0.0000   -0.0000   -0.0000   -0.0000   -0.0000    0.0046    0.0000
       52 O2     3d2+       0.0004    0.0000   -0.0009   -0.0130    0.0000   -0.0004    0.0200    0.0000    0.0000    0.0000
       53 O2     4d2+       0.0002    0.0000   -0.0004   -0.0014    0.0000   -0.0005    0.0020   -0.0000   -0.0000    0.0000
       54 O2     4f3-       0.0000    0.0000    0.0000    0.0000    0.0015   -0.0000    0.0000   -0.0046   -0.0000   -0.0091
       55 O2     4f2-       0.0000    0.0000    0.0000   -0.0000    0.0000    0.0000   -0.0000   -0.0000   -0.0000    0.0000
       56 O2     4f1-      -0.0000    0.0001    0.0000    0.0000    0.0051   -0.0000    0.0000   -0.0043   -0.0000    0.0010
       57 O2     4f0        0.0000   -0.0000   -0.0000    0.0000   -0.0000   -0.0000    0.0000    0.0000   -0.0062   -0.0000
       58 O2     4f1+       0.0001    0.0000   -0.0001   -0.0029    0.0000   -0.0004   -0.0021    0.0000   -0.0000    0.0000
       59 O2     4f2+      -0.0000   -0.0000    0.0000    0.0000    0.0000   -0.0000    0.0000    0.0000   -0.0059   -0.0000
       60 O2     4f3+       0.0001    0.0000   -0.0002   -0.0096    0.0000   -0.0011   -0.0048    0.0000   -0.0000    0.0000
       61 O3     1s         0.0023    0.7064    0.7063   -0.0133   -0.0119    0.0103   -0.0115    0.0230    0.0000   -0.0068
       62 O3     2s         0.0034   -0.0051   -0.0054    0.3361    0.5700    0.5995   -0.2468    0.4288    0.0000   -0.0582
       63 O3     3s         0.0020   -0.0037   -0.0037   -0.0095   -0.0194    0.0174   -0.0225    0.0513    0.0000   -0.0176
       64 O3     4s         0.0003   -0.0008   -0.0007   -0.0006   -0.0041    0.0028   -0.0045    0.0109    0.0000   -0.0041
       65 O3     2px       -0.0009    0.0013    0.0012   -0.0493   -0.0600    0.1022    0.1690    0.3183    0.0000    0.5525
       66 O3     3px       -0.0006    0.0014    0.0011    0.0120    0.0083   -0.0170   -0.0085   -0.0288    0.0000    0.0104
       67 O3     4px        0.0000   -0.0006   -0.0007    0.0024    0.0000    0.0007   -0.0004   -0.0019    0.0000   -0.0037
       68 O3     2py        0.0020   -0.0021   -0.0024    0.1105    0.0711   -0.0961    0.3349   -0.2717   -0.0000    0.4668
       69 O3     3py        0.0012   -0.0021   -0.0024   -0.0145   -0.0151    0.0162   -0.0329    0.0382   -0.0000   -0.0039
       70 O3     4py       -0.0005    0.0013    0.0014   -0.0010   -0.0036   -0.0011   -0.0038    0.0032    0.0000   -0.0033
       71 O3     2pz        0.0000    0.0000    0.0000    0.0000    0.0000   -0.0000   -0.0000   -0.0000    0.3775   -0.0000
       72 O3     3pz        0.0000    0.0000   -0.0000    0.0000    0.0000    0.0000    0.0000    0.0000   -0.0181   -0.0000
       73 O3     4pz        0.0000   -0.0000    0.0000    0.0000    0.0000   -0.0000    0.0000    0.0000   -0.0068    0.0000
       74 O3     3d2-      -0.0003    0.0010    0.0010   -0.0156   -0.0145    0.0120   -0.0029    0.0274    0.0000    0.0002
       75 O3     4d2-      -0.0001    0.0005    0.0005   -0.0017   -0.0018    0.0008   -0.0006    0.0024    0.0000    0.0008
       76 O3     3d1-       0.0000   -0.0000   -0.0000    0.0000   -0.0000    0.0000   -0.0000   -0.0000    0.0280   -0.0000
       77 O3     4d1-       0.0000   -0.0000    0.0000    0.0000    0.0000    0.0000   -0.0000   -0.0000    0.0043   -0.0000
       78 O3     3d0       -0.0003    0.0005    0.0005   -0.0104   -0.0091    0.0040   -0.0090    0.0146    0.0000   -0.0046
       79 O3     4d0       -0.0002    0.0004    0.0004   -0.0003   -0.0010   -0.0001   -0.0005    0.0009    0.0000   -0.0004
       80 O3     3d1+      -0.0000   -0.0000   -0.0000    0.0000   -0.0000   -0.0000    0.0000    0.0000   -0.0157   -0.0000
       81 O3     4d1+      -0.0000    0.0000    0.0000   -0.0000   -0.0000   -0.0000    0.0000    0.0000   -0.0031   -0.0000
       82 O3     3d2+      -0.0005    0.0007    0.0007   -0.0131   -0.0064    0.0031   -0.0258    0.0089   -0.0000   -0.0182
       83 O3     4d2+      -0.0003    0.0003    0.0003   -0.0016   -0.0009    0.0007   -0.0023    0.0004   -0.0000   -0.0030
       84 O3     4f3-      -0.0001    0.0000    0.0000   -0.0014    0.0004   -0.0014   -0.0068   -0.0017   -0.0000   -0.0055
       85 O3     4f2-      -0.0000    0.0000    0.0000    0.0000    0.0000   -0.0000    0.0000    0.0000   -0.0058    0.0000
       86 O3     4f1-      -0.0000    0.0002    0.0001   -0.0031   -0.0027    0.0008   -0.0022    0.0032    0.0000   -0.0008
       87 O3     4f0        0.0000    0.0000    0.0000   -0.0000    0.0000    0.0000    0.0000    0.0000   -0.0038   -0.0000
       88 O3     4f1+       0.0000   -0.0001   -0.0001    0.0015    0.0016   -0.0008    0.0005   -0.0018   -0.0000    0.0012
       89 O3     4f2+      -0.0000   -0.0000   -0.0000    0.0000    0.0000    0.0000    0.0000    0.0000   -0.0041    0.0000
       90 O3     4f3+       0.0000   -0.0002   -0.0002    0.0056    0.0053   -0.0025    0.0029   -0.0068   -0.0000    0.0017
 
          Orbital           11        12        13        14        15        16        17        18        19        20    
          Energy           -0.5453   -0.4925   -0.0476    0.1751    0.1812    0.2363    0.2676    0.3466    0.3727    0.3819
          Occ. No.          2.0000    2.0000    0.0000    0.0000    0.0000    0.0000    0.0000    0.0000    0.0000    0.0000
 
        1 O1     1s         0.0048   -0.0000    0.0000   -0.1957   -0.1359   -0.0000   -0.0037   -0.0195    0.0745    0.0000
        2 O1     2s         0.0302   -0.0000    0.0000   -1.4446   -1.0054   -0.0000    0.0715   -0.0414    0.4092    0.0000
        3 O1     3s         0.0173   -0.0000    0.0000   -0.8384   -0.5693   -0.0000   -0.0953   -0.0367    0.5858    0.0000
        4 O1     4s         0.0048   -0.0000    0.0000   -0.1890   -0.1201   -0.0000   -0.0340   -0.0026    0.1682    0.0000
        5 O1     2px        0.6530   -0.0000    0.0000    0.4544    0.2297    0.0000   -0.1894   -0.2446    0.0648   -0.0000
        6 O1     3px        0.0081   -0.0000    0.0000    0.4155    0.3263    0.0000    0.2157   -0.7550    0.3657    0.0000
        7 O1     4px       -0.0050    0.0000    0.0000    0.0405    0.0759    0.0000    0.1276   -0.2995    0.1700    0.0000
        8 O1     2py       -0.0916    0.0000   -0.0000    0.5399    0.8197    0.0000   -0.4359   -0.2831   -0.0648   -0.0000
        9 O1     3py       -0.0153    0.0000   -0.0000    0.7016    0.6819    0.0000   -0.3543   -0.1823   -0.6244   -0.0000
       10 O1     4py       -0.0006   -0.0000   -0.0000    0.1133    0.0715    0.0000   -0.1318   -0.0371   -0.1417   -0.0000
       11 O1     2pz       -0.0000   -0.7049    0.6670    0.0000    0.0000   -0.1565   -0.0000    0.0000    0.0000   -0.1731
       12 O1     3pz       -0.0000   -0.0344    0.1645   -0.0000   -0.0000    0.3180    0.0000    0.0000    0.0000   -0.9299
       13 O1     4pz       -0.0000    0.0066    0.0255   -0.0000   -0.0000    0.1887    0.0000    0.0000    0.0000   -0.3732
       14 O1     3d2-      -0.0127   -0.0000    0.0000   -0.0776   -0.0485   -0.0000   -0.0054   -0.0013    0.0279    0.0000
       15 O1     4d2-      -0.0013    0.0000    0.0000   -0.0495   -0.0326   -0.0000    0.0001    0.0143    0.0150    0.0000
       16 O1     3d1-      -0.0000    0.0226    0.0081   -0.0000   -0.0000    0.0143   -0.0000    0.0000    0.0000    0.0017
       17 O1     4d1-      -0.0000    0.0056    0.0001   -0.0000   -0.0000    0.0055   -0.0000    0.0000   -0.0000    0.0096
       18 O1     3d0        0.0053    0.0000   -0.0000    0.0530    0.0446    0.0000    0.0152   -0.0057   -0.0339   -0.0000
       19 O1     4d0        0.0003    0.0000   -0.0000    0.0345    0.0293    0.0000    0.0057   -0.0107   -0.0166   -0.0000
       20 O1     3d1+       0.0000    0.0121    0.0053   -0.0000   -0.0000    0.0041   -0.0000   -0.0000   -0.0000    0.0155
       21 O1     4d1+       0.0000    0.0029    0.0000    0.0000   -0.0000   -0.0002    0.0000   -0.0000   -0.0000    0.0134
       22 O1     3d2+       0.0014    0.0000   -0.0000    0.0458    0.0516    0.0000    0.0367    0.0014   -0.0967   -0.0000
       23 O1     4d2+      -0.0010    0.0000   -0.0000    0.0269    0.0365    0.0000    0.0123   -0.0007   -0.0579   -0.0000
       24 O1     4f3-       0.0020   -0.0000    0.0000   -0.0018   -0.0007    0.0000    0.0022   -0.0041    0.0112    0.0000
       25 O1     4f2-      -0.0000   -0.0044    0.0001   -0.0000   -0.0000    0.0021    0.0000    0.0000    0.0000   -0.0055
       26 O1     4f1-      -0.0015   -0.0000    0.0000   -0.0058   -0.0045   -0.0000    0.0001    0.0052    0.0061    0.0000
       27 O1     4f0        0.0000    0.0015    0.0015    0.0000    0.0000   -0.0015    0.0000   -0.0000   -0.0000    0.0060
       28 O1     4f1+       0.0002   -0.0000    0.0000   -0.0020   -0.0029   -0.0000   -0.0004    0.0049    0.0012    0.0000
       29 O1     4f2+       0.0000    0.0030   -0.0006    0.0000    0.0000   -0.0007   -0.0000   -0.0000   -0.0000    0.0023
       30 O1     4f3+      -0.0032   -0.0000    0.0000   -0.0091   -0.0050   -0.0000    0.0026    0.0089    0.0061    0.0000
       31 O2     1s         0.0207    0.0000   -0.0000    0.0000    0.3155    0.0000   -0.0589    0.0000   -0.1619   -0.0000
       32 O2     2s         0.2523    0.0000   -0.0000    0.0000    2.2936    0.0000   -0.5417    0.0000   -0.9401   -0.0000
       33 O2     3s         0.0500    0.0000   -0.0000    0.0000    1.2558    0.0000   -0.1151    0.0000   -0.6206   -0.0000
       34 O2     4s         0.0124    0.0000   -0.0000    0.0000    0.2677    0.0000   -0.0250    0.0000   -0.0948   -0.0000
       35 O2     2px       -0.4961    0.0000   -0.0000    0.0000    0.7775    0.0000   -0.3620    0.0000   -0.3412   -0.0000
       36 O2     3px       -0.0047    0.0000   -0.0000    0.0000    0.8208   -0.0000    0.2238    0.0000   -1.0494   -0.0000
       37 O2     4px       -0.0015    0.0000   -0.0000    0.0000    0.1361   -0.0000    0.1372    0.0000   -0.1964   -0.0000
       38 O2     2py        0.0000    0.0000   -0.0000    1.3712   -0.0000    0.0000    0.0000   -0.1369   -0.0000   -0.0000
       39 O2     3py        0.0000    0.0000   -0.0000    1.3351   -0.0000    0.0000    0.0000    0.4723   -0.0000   -0.0000
       40 O2     4py       -0.0000   -0.0000   -0.0000    0.1369   -0.0000    0.0000    0.0000    0.2235    0.0000    0.0000
       41 O2     2pz        0.0000    0.0000   -0.8610   -0.0000   -0.0000    0.0185    0.0000    0.0000    0.0000    0.0000
       42 O2     3pz       -0.0000   -0.0000   -0.1851   -0.0000   -0.0000    0.3813    0.0000    0.0000    0.0000    0.0000
       43 O2     4pz        0.0000   -0.0000   -0.0214   -0.0000   -0.0000    0.2042    0.0000   -0.0000    0.0000    0.0000
       44 O2     3d2-       0.0000   -0.0000   -0.0000    0.1383   -0.0000    0.0000    0.0000    0.0855   -0.0000    0.0000
       45 O2     4d2-       0.0000    0.0000   -0.0000    0.0857   -0.0000    0.0000    0.0000    0.0636   -0.0000    0.0000
       46 O2     3d1-      -0.0000   -0.0586   -0.0000    0.0000    0.0000   -0.0000   -0.0000   -0.0000   -0.0000    0.0971
       47 O2     4d1-      -0.0000   -0.0138   -0.0000    0.0000    0.0000   -0.0000   -0.0000   -0.0000   -0.0000    0.0583
       48 O2     3d0        0.0185    0.0000    0.0000   -0.0000   -0.0744   -0.0000   -0.0556   -0.0000    0.1591    0.0000
       49 O2     4d0        0.0022    0.0000    0.0000   -0.0000   -0.0493   -0.0000   -0.0278   -0.0000    0.0840    0.0000
       50 O2     3d1+       0.0000    0.0000    0.0056    0.0000    0.0000   -0.0276   -0.0000   -0.0000   -0.0000    0.0000
       51 O2     4d1+       0.0000    0.0000    0.0013    0.0000    0.0000   -0.0109   -0.0000   -0.0000   -0.0000    0.0000
       52 O2     3d2+       0.0401    0.0000    0.0000   -0.0000   -0.0514   -0.0000   -0.0802   -0.0000    0.0332    0.0000
       53 O2     4d2+       0.0085    0.0000    0.0000   -0.0000   -0.0285   -0.0000   -0.0330   -0.0000   -0.0056    0.0000
       54 O2     4f3-       0.0000   -0.0000   -0.0000   -0.0062    0.0000   -0.0000   -0.0000    0.0032    0.0000    0.0000
       55 O2     4f2-      -0.0000   -0.0083   -0.0000    0.0000    0.0000   -0.0000    0.0000    0.0000   -0.0000    0.0073
       56 O2     4f1-      -0.0000    0.0000    0.0000   -0.0084    0.0000   -0.0000   -0.0000   -0.0119    0.0000   -0.0000
       57 O2     4f0        0.0000   -0.0000   -0.0020   -0.0000    0.0000   -0.0024   -0.0000   -0.0000   -0.0000   -0.0000
       58 O2     4f1+      -0.0004    0.0000    0.0000   -0.0000   -0.0059    0.0000   -0.0053   -0.0000    0.0124    0.0000
       59 O2     4f2+       0.0000   -0.0000    0.0009    0.0000    0.0000   -0.0017   -0.0000   -0.0000    0.0000   -0.0000
       60 O2     4f3+       0.0057   -0.0000    0.0000   -0.0000   -0.0115    0.0000   -0.0080   -0.0000    0.0163    0.0000
       61 O3     1s         0.0048   -0.0000    0.0000    0.1957   -0.1359    0.0000   -0.0037    0.0195    0.0745    0.0000
       62 O3     2s         0.0302   -0.0000   -0.0000    1.4446   -1.0054    0.0000    0.0715    0.0414    0.4092    0.0000
       63 O3     3s         0.0173   -0.0000    0.0000    0.8384   -0.5693    0.0000   -0.0953    0.0367    0.5858    0.0000
       64 O3     4s         0.0048   -0.0000    0.0000    0.1890   -0.1201    0.0000   -0.0340    0.0026    0.1682    0.0000
       65 O3     2px        0.6530    0.0000    0.0000   -0.4544    0.2297   -0.0000   -0.1894    0.2446    0.0648    0.0000
       66 O3     3px        0.0081   -0.0000    0.0000   -0.4155    0.3263    0.0000    0.2157    0.7550    0.3657    0.0000
       67 O3     4px       -0.0050   -0.0000    0.0000   -0.0405    0.0759    0.0000    0.1276    0.2995    0.1700    0.0000
       68 O3     2py        0.0916    0.0000    0.0000    0.5399   -0.8197    0.0000    0.4359   -0.2831    0.0648   -0.0000
       69 O3     3py        0.0153    0.0000    0.0000    0.7016   -0.6819    0.0000    0.3543   -0.1823    0.6244    0.0000
       70 O3     4py        0.0006   -0.0000    0.0000    0.1133   -0.0715   -0.0000    0.1318   -0.0371    0.1417    0.0000
       71 O3     2pz       -0.0000    0.7049    0.6670    0.0000    0.0000   -0.1565   -0.0000   -0.0000   -0.0000    0.1731
       72 O3     3pz        0.0000    0.0344    0.1645   -0.0000   -0.0000    0.3180   -0.0000   -0.0000   -0.0000    0.9299
       73 O3     4pz        0.0000   -0.0066    0.0255   -0.0000   -0.0000    0.1887    0.0000   -0.0000   -0.0000    0.3732
       74 O3     3d2-       0.0127   -0.0000    0.0000   -0.0776    0.0485   -0.0000    0.0054   -0.0013   -0.0279   -0.0000
       75 O3     4d2-       0.0013   -0.0000    0.0000   -0.0495    0.0326   -0.0000   -0.0001    0.0143   -0.0150   -0.0000
       76 O3     3d1-       0.0000    0.0226   -0.0081   -0.0000    0.0000   -0.0143   -0.0000   -0.0000   -0.0000    0.0017
       77 O3     4d1-       0.0000    0.0056   -0.0001   -0.0000    0.0000   -0.0055   -0.0000   -0.0000   -0.0000    0.0096
       78 O3     3d0        0.0053    0.0000    0.0000   -0.0530    0.0446   -0.0000    0.0152    0.0057   -0.0339   -0.0000
       79 O3     4d0        0.0003   -0.0000    0.0000   -0.0345    0.0293   -0.0000    0.0057    0.0107   -0.0166   -0.0000
       80 O3     3d1+      -0.0000   -0.0121    0.0053   -0.0000   -0.0000    0.0041   -0.0000    0.0000    0.0000   -0.0155
       81 O3     4d1+       0.0000   -0.0029    0.0000   -0.0000   -0.0000   -0.0002   -0.0000    0.0000    0.0000   -0.0134
       82 O3     3d2+       0.0014   -0.0000    0.0000   -0.0458    0.0516   -0.0000    0.0367   -0.0014   -0.0967   -0.0000
       83 O3     4d2+      -0.0010   -0.0000    0.0000   -0.0269    0.0365   -0.0000    0.0123    0.0007   -0.0579   -0.0000
       84 O3     4f3-      -0.0020   -0.0000   -0.0000   -0.0018    0.0007   -0.0000   -0.0022   -0.0041   -0.0112   -0.0000
       85 O3     4f2-       0.0000   -0.0044   -0.0001    0.0000    0.0000   -0.0021   -0.0000    0.0000    0.0000   -0.0055
       86 O3     4f1-       0.0015    0.0000   -0.0000   -0.0058    0.0045   -0.0000   -0.0001    0.0052   -0.0061   -0.0000
       87 O3     4f0       -0.0000   -0.0015    0.0015    0.0000    0.0000   -0.0015   -0.0000    0.0000    0.0000   -0.0060
       88 O3     4f1+       0.0002    0.0000    0.0000    0.0020   -0.0029   -0.0000   -0.0004   -0.0049    0.0012    0.0000
       89 O3     4f2+       0.0000   -0.0030   -0.0006    0.0000    0.0000   -0.0007   -0.0000    0.0000    0.0000   -0.0023
       90 O3     4f3+      -0.0032    0.0000    0.0000    0.0091   -0.0050    0.0000    0.0026   -0.0089    0.0061    0.0000
 
          Orbital           21    
          Energy            0.4189
          Occ. No.          0.0000
 
        1 O1     1s        -0.0057
        2 O1     2s        -0.0170
        3 O1     3s         0.1178
        4 O1     4s         0.0725
        5 O1     2px        0.2980
        6 O1     3px        0.7010
        7 O1     4px        0.1841
        8 O1     2py       -0.0751
        9 O1     3py        0.5782
       10 O1     4py        0.1994
       11 O1     2pz       -0.0000
       12 O1     3pz       -0.0000
       13 O1     4pz       -0.0000
       14 O1     3d2-      -0.1220
       15 O1     4d2-      -0.0832
       16 O1     3d1-       0.0000
       17 O1     4d1-       0.0000
       18 O1     3d0        0.0363
       19 O1     4d0        0.0253
       20 O1     3d1+      -0.0000
       21 O1     4d1+       0.0000
       22 O1     3d2+       0.0345
       23 O1     4d2+       0.0186
       24 O1     4f3-       0.0036
       25 O1     4f2-      -0.0000
       26 O1     4f1-      -0.0070
       27 O1     4f0        0.0000
       28 O1     4f1+      -0.0056
       29 O1     4f2+       0.0000
       30 O1     4f3+      -0.0150
       31 O2     1s         0.1362
       32 O2     2s         0.7064
       33 O2     3s         0.7980
       34 O2     4s         0.2039
       35 O2     2px       -0.5535
       36 O2     3px       -0.9581
       37 O2     4px       -0.3444
       38 O2     2py       -0.0000
       39 O2     3py       -0.0000
       40 O2     4py        0.0000
       41 O2     2pz        0.0000
       42 O2     3pz        0.0000
       43 O2     4pz        0.0000
       44 O2     3d2-      -0.0000
       45 O2     4d2-      -0.0000
       46 O2     3d1-       0.0000
       47 O2     4d1-       0.0000
       48 O2     3d0       -0.0697
       49 O2     4d0       -0.0183
       50 O2     3d1+       0.0000
       51 O2     4d1+       0.0000
       52 O2     3d2+      -0.0899
       53 O2     4d2+      -0.0413
       54 O2     4f3-      -0.0000
       55 O2     4f2-       0.0000
       56 O2     4f1-       0.0000
       57 O2     4f0       -0.0000
       58 O2     4f1+       0.0041
       59 O2     4f2+      -0.0000
       60 O2     4f3+       0.0018
       61 O3     1s        -0.0057
       62 O3     2s        -0.0170
       63 O3     3s         0.1178
       64 O3     4s         0.0725
       65 O3     2px        0.2980
       66 O3     3px        0.7010
       67 O3     4px        0.1841
       68 O3     2py        0.0751
       69 O3     3py       -0.5782
       70 O3     4py       -0.1994
       71 O3     2pz       -0.0000
       72 O3     3pz        0.0000
       73 O3     4pz        0.0000
       74 O3     3d2-       0.1220
       75 O3     4d2-       0.0832
       76 O3     3d1-      -0.0000
       77 O3     4d1-      -0.0000
       78 O3     3d0        0.0363
       79 O3     4d0        0.0253
       80 O3     3d1+      -0.0000
       81 O3     4d1+      -0.0000
       82 O3     3d2+       0.0345
       83 O3     4d2+       0.0186
       84 O3     4f3-      -0.0036
       85 O3     4f2-      -0.0000
       86 O3     4f1-       0.0070
       87 O3     4f0        0.0000
       88 O3     4f1+      -0.0056
       89 O3     4f2+       0.0000
       90 O3     4f3+      -0.0150
--
 
 
++    Molecular charges:
      ------------------
 
      Mulliken charges per centre and basis function type
      ---------------------------------------------------
 
                O1      O2      O3    
      1s       1.9979  1.9981  1.9979
      2s       1.9450  1.7101  1.9450
      2px      1.7559  1.5473  1.7559
      2pz      1.3713  1.1728  1.3713
      2py      1.0711  1.0446  1.0711
      3s      -0.0013 -0.0237 -0.0013
      3px     -0.0117 -0.0163 -0.0117
      3pz     -0.0107 -0.0137 -0.0107
      3py      0.0040  0.0025  0.0040
      4s       0.0044  0.0023  0.0044
      3d2+     0.0126  0.0384  0.0126
      3d1+     0.0037  0.0083  0.0037
      3d0      0.0056  0.0075  0.0056
      3d1-     0.0115  0.0468  0.0115
      3d2-     0.0157  0.0417  0.0157
      4px      0.0007  0.0017  0.0007
      4pz      0.0013  0.0017  0.0013
      4py      0.0026  0.0031  0.0026
      4d2+     0.0005  0.0072  0.0005
      4d1+     0.0007  0.0011  0.0007
      4d0     -0.0001 -0.0002 -0.0001
      4d1-     0.0013  0.0120  0.0013
      4d2-     0.0005  0.0046  0.0005
      4f3+     0.0028  0.0030  0.0028
      4f2+     0.0007  0.0011  0.0007
      4f1+     0.0003  0.0005  0.0003
      4f0      0.0009  0.0016  0.0009
      4f1-     0.0009  0.0012  0.0009
      4f2-     0.0015  0.0040  0.0015
      4f3-     0.0021  0.0070  0.0021
      Total    8.1918  7.6165  8.1918
 
      N-E     -0.1918  0.3835 -0.1918
 
      Total electronic charge=   24.000000
 
      Total            charge=   -0.000000
--
 
 
  Input file to MOLDEN was generated!
 
 
++    Static properties:
      ------------------
 
 
      LoProp Charges per center
 

                   O1       O2       O3    
      Nuclear      8.0000   8.0000   8.0000
      Electronic  -8.2072  -7.5855  -8.2072
 
      Total       -0.2072   0.4145  -0.2072
--
 
 
++    Natural Bond Order analysis
      ---------------------------
      Based on LoProp computed density
      -------------------------------------------------------------------------------------
      Atom A       Atom B       Bond Order | Atom A       Atom B       Bond Order
        O1           O2             1.997  |   O2           O3             1.997
      -------------------------------------------------------------------------------------
      NBO located     11.998 core electrons.
      NBO located      3.936 lone pair electrons.
      NBO located      7.988 electrons involved in    2 bonds.
      The remaining    0.078 electrons are to be considered as diffuse
--
 
 
++    Molecular properties:
      ---------------------
 
      Charge (e):
                      =   -0.0000
      Dipole Moment (Debye):
      Origin of the operator (Ang)=    0.0000    0.0000    0.0000
                   X= -6.9122E-01               Y=  1.4940E-11               Z=  7.7573E-14           Total=  6.9122E-01
      Quadrupole Moment (Debye*Ang):
      Origin of the operator (Ang)=    0.4082    0.0000    0.0000
                  XX= -1.5903E+01              XY=  4.3976E-12              XZ=  9.4225E-14              YY= -1.7257E+01
                  YZ=  1.3526E-13              ZZ= -1.4908E+01
      In traceless form (Debye*Ang)
                  XX=  1.7979E-01              XY=  6.5965E-12              XZ=  1.4134E-13              YY= -1.8516E+00
                  YZ=  2.0288E-13              ZZ=  1.6718E+00
--
 
 
  Input file to MOLDEN was generated!
 
 ###############################################################################
 ###############################################################################
 ###                                                                         ###
 ###                                                                         ###
 ###    RunFile label nBas                                                   ###
 ###    was used       78 times                                              ###
 ###                                                                         ###
 ###                                                                         ###
 ###############################################################################
 ###############################################################################
--- Stop Module: scf at Wed Jan  1 02:11:33 2025 /rc=_RC_ALL_IS_WELL_ ---
*** files: ozone_122.75.LprOrb ozone_122.75.LoProp.molden ozone_122.75.scf.molden ozone_122.75.ScfOrb ozone_122.75.scf.h5 xmldump
    saved to directory /home/grierjones/DDCASPT2/ozone/ANO-RCC-VTZP/ozone_122.75

>>> COPY /tmp/ozone_122.75/ozone_122.75.scf.h5 /home/grierjones/DDCASPT2/ozone/ANO-RCC-VTZP/ozone_122.75/

*** symbolic link created: INPORB -> ozone_122.75.ScfOrb
--- Start Module: rasscf at Wed Jan  1 02:11:33 2025 ---
 
()()()()()()()()()()()()()()()()()()()()()()()()()()()()()()()()()()()()()()()()()()()()()()()()()()

                                              &RASSCF

                                   only a single process is used
                       available to each process: 2.0 GB of memory, 1 thread?
()()()()()()()()()()()()()()()()()()()()()()()()()()()()()()()()()()()()()()()()()()()()()()()()()()
 
 
 *************** WARNING ****************
 ###############################################################################
 ###############################################################################
 ###                                                                         ###
 ###                                                                         ###
 ###    Too many macro-iterations.                                           ###
 ###                                                                         ###
 ###                                                                         ###
 ###############################################################################
 ###############################################################################
 Too many macro-iterations requested.
 Reset to maximum, new MAXIT=     200
 ****************************************
 
 *************** WARNING ****************
 ###############################################################################
 ###############################################################################
 ###                                                                         ###
 ###                                                                         ###
 ###    Too many SX-iterations.                                              ###
 ###                                                                         ###
 ###                                                                         ###
 ###############################################################################
 ###############################################################################
 Too many SX-iterations requested.
 Reset to maximum, new ITMAX=     100
 ****************************************
 
      Header of the ONEINT file:
      --------------------------
      
      Integrals generated by seward 4.2.0  , Wed Jan  1 02:11:29 2025
 
 
      OrdInt status: non-squared
 
 
      Cartesian coordinates in Angstrom:
      -----------------------------------------------------
      No.  Label        X            Y            Z        
      -----------------------------------------------------
       1   O1         0.61225800   1.12179500   0.00000000
       2   O2         0.00000000   0.00000000   0.00000000
       3   O3         0.61225800  -1.12179500   0.00000000
      -----------------------------------------------------
      Nuclear repulsion energy =   68.09569253
 
++    Wave function specifications:
      -----------------------------
 
      Number of closed shell electrons          20
      Number of electrons in active shells       4
      Max number of holes in RAS1 space          0
      Max nr of electrons in RAS3 space          0
      Number of inactive orbitals               10
      Number of active orbitals                  3
      Number of secondary orbitals              77
      Spin quantum number                      0.0
      State symmetry                             1
--
 
++    Orbital specifications:
      -----------------------
 
      Symmetry species                           1
                                                 a
      Frozen orbitals                            0
      Inactive orbitals                         10
      Active orbitals                            3
      RAS1 orbitals                              0
      RAS2 orbitals                              3
      RAS3 orbitals                              0
      Secondary orbitals                        77
      Deleted orbitals                           0
      Number of basis functions                 90
--
 
++    CI expansion specifications:
      ----------------------------
 
      Number of CSFs                             6
      Number of determinants                     6
      Number of root(s) required                 1
      Root chosen for geometry opt.              1
      CI root used                               1
         
      highest root included in the CI            1
      max. size of the explicit Hamiltonian      6
--
 
++    Optimization specifications:
      ----------------------------
 
      RASSCF algorithm: Conventional
      Maximum number of macro iterations       200
      Maximum number of SX iterations          100
      Threshold for RASSCF energy            0.100E-07
      Threshold for max MO rotation          0.100E+00
      Threshold for max BLB element          0.100E-03
      Level shift parameter                  0.500E+00
      Make Quasi-Newton update
--
 
      The MO-coefficients are taken from the file:
      /home/grierjones/DDCASPT2/ozone/ANO-RCC-VTZP/ozone_122.50/ozone_122.50.RasOrb                                                   
      Title: RASSCF average (pseudo-natural) orbitals                                      
 
      Total molecular charge    0.00
 
      ************************************************************************************************************************
      *                                                                                                                      *
      *                                            Wave function control section                                             *
      *                                                                                                                      *
      ************************************************************************************************************************
 
 
                                         RASSCF iterations: Energy and convergence statistics
                                         ----------------------------------------------------
 
      Iter CI   SX   CI       RASSCF       Energy    max ROT     max BLB   max BLB  Level Ln srch  Step   QN   Walltime
          iter iter root      energy       change     param      element    value   shift minimum  type update hh:mm:ss
 Nr of preliminary CI iterations:   1
        1   1    3    1  -224.60636003    0.00E+00   0.45E-03    9  22 1 -0.11E-02*  0.18   0.00    SX    NO    0:00:00
        2   1    3    1  -224.60636489   -0.49E-05*  0.26E-03    9  22 1 -0.66E-03*  0.18   0.00    SX    NO    0:00:00
        3   1    3    1  -224.60636604   -0.11E-05*  0.16E-03    9  22 1 -0.40E-03*  0.18   0.00    SX    NO    0:00:00
        4   1    3    1  -224.60636644   -0.39E-06*  0.94E-04    9  22 1 -0.24E-03*  0.18   0.00    SX    NO    0:00:00
        5   1    3    1  -224.60636657   -0.13E-06*  0.14E-03    9  22 1 -0.14E-03*  0.18   2.50    LS   YES    0:00:00
        6   1    3    1  -224.60636664   -0.69E-07*  0.28E-04    8  22 1 -0.88E-04   0.18   0.92    QN   YES    0:00:00
        7   1    3    1  -224.60636665   -0.13E-07* -0.10E-04    8  22 1  0.49E-04   0.18   0.76    QN   YES    0:00:00
        8   1    2    1  -224.60636665   -0.19E-09   0.48E-05    8  22 1 -0.34E-04   0.18   0.45    QN   YES    0:00:00
      Convergence after  8 iterations
 
  Dmat in MO in SXCTL bf call to SXHAM                                                                                    
  mat. size =     3x    3
 
        1.9925763582598146
       -0.0000000000007948      1.6271446618311338
       -0.0006887940548968      0.0000000000016064      0.3802789799090503
        9   1    2    1  -224.60636665   -0.56E-09   0.48E-05   10  21 1  0.33E-05   0.18   0.45    QN   YES    0:00:00
 
      ************************************************************************************************************************
                                                      Wave function printout:
                       occupation of active orbitals, and spin coupling of open shells (u,d: Spin up or down)
      ************************************************************************************************************************
 
      Note: transformation to natural orbitals
      has been made, which may change the order of the CSFs.
 
      printout of CI-coefficients larger than  0.05 for root  1
      energy=    -224.606367
      conf/sym  111     Coeff  Weight
             1  220  -0.89992 0.80986
             3  202   0.43177 0.18643
             6  022   0.06092 0.00371
 
      Natural orbitals and occupation numbers for root  1
      sym 1:   1.992577   1.627145   0.380279
 
      ************************************************************************************************************************
      *                                                                                                                      *
      *                                                    Final results                                                     *
      *                                                                                                                      *
      ************************************************************************************************************************
 
 
++    Wave function specifications:
      -----------------------------
 
      Number of closed shell electrons          20
      Number of electrons in active shells       4
      Max number of holes in RAS1 space          0
      Max nr of electrons in RAS3 space          0
      Number of inactive orbitals               10
      Number of active orbitals                  3
      Number of secondary orbitals              77
      Spin quantum number                      0.0
      State symmetry                             1
--
 
++    Orbital specifications:
      -----------------------
 
      Symmetry species                           1
                                                 a
      Frozen orbitals                            0
      Inactive orbitals                         10
      Active orbitals                            3
      RAS1 orbitals                              0
      RAS2 orbitals                              3
      RAS3 orbitals                              0
      Secondary orbitals                        77
      Deleted orbitals                           0
      Number of basis functions                 90
--
 
++    CI expansion specifications:
      ----------------------------
 
      Number of CSFs                             6
      Number of determinants                     6
      Number of root(s) required                 1
      CI root used                               1
      highest root included in the CI            1
      Root passed to geometry opt.               1
--
 
++    Final optimization conditions:
      ------------------------------
 
      Average CI energy                            -224.60636665
      RASSCF energy for state  1                   -224.60636665
      Super-CI energy                                -0.00000000
      RASSCF energy change                           -0.00000000
      Max change in MO coefficients              -0.580E-05
      Max non-diagonal density matrix element     0.476E-05
      Maximum BLB matrix element                  0.331E-05
      (orbital pair  10,  21 in symmetry   1)
      Norm of electronic gradient            0.190E-04
--
 
 
      Final state energy(ies):
      ------------------------
 
::    RASSCF root number  1 Total energy:   -224.60636665
 
++    Molecular orbitals:
      -------------------
 
      Pseudonatural active orbitals and approximate occupation numbers
 
 
 
 
      Molecular orbitals for symmetry species 1: a  
 
 
      Orbital                1         2         3         4         5         6         7         8         9        10
      Energy          -20.8289  -20.7240  -20.7239   -1.7088   -1.4231   -1.0733   -0.7957   -0.7853   -0.5752   -0.5300
      Occ. No.          2.0000    2.0000    2.0000    2.0000    2.0000    2.0000    2.0000    2.0000    2.0000    2.0000
 
    1 O1     1s         0.0037   -0.7064    0.7063   -0.0133    0.0108    0.0121   -0.0096    0.0219    0.0067    0.0041
    2 O1     2s         0.0041    0.0048   -0.0052    0.3539   -0.5881    0.6084   -0.1916    0.3944    0.0573    0.0174
    3 O1     3s         0.0024    0.0036   -0.0037   -0.0117    0.0185    0.0212   -0.0190    0.0492    0.0172    0.0187
    4 O1     4s         0.0004    0.0007   -0.0006   -0.0012    0.0043    0.0031   -0.0039    0.0104    0.0041    0.0057
    5 O1     2px       -0.0011   -0.0013    0.0011   -0.0497    0.0580    0.1093    0.2229    0.3437   -0.5450    0.6443
    6 O1     3px       -0.0007   -0.0013    0.0010    0.0128   -0.0079   -0.0177   -0.0119   -0.0277   -0.0105    0.0128
    7 O1     4px        0.0001    0.0006   -0.0007    0.0023    0.0001    0.0003   -0.0014   -0.0028    0.0040   -0.0050
    8 O1     2py       -0.0024   -0.0020    0.0023   -0.1132    0.0693    0.1233   -0.3566    0.2919    0.4772   -0.0413
    9 O1     3py       -0.0014   -0.0020    0.0023    0.0159   -0.0148   -0.0199    0.0295   -0.0365   -0.0028   -0.0170
   10 O1     4py        0.0006    0.0013   -0.0014    0.0009   -0.0037    0.0010    0.0050   -0.0040   -0.0038   -0.0018
   11 O1     2pz       -0.0000    0.0000   -0.0000   -0.0000   -0.0000    0.0000   -0.0000   -0.0000    0.0000   -0.0000
   12 O1     3pz       -0.0000    0.0000   -0.0000   -0.0000   -0.0000    0.0000    0.0000   -0.0000    0.0000   -0.0000
   13 O1     4pz        0.0000   -0.0000    0.0000   -0.0000    0.0000   -0.0000    0.0000   -0.0000   -0.0000    0.0000
   14 O1     3d2-       0.0004    0.0009   -0.0009    0.0151   -0.0137   -0.0129    0.0005   -0.0273   -0.0002   -0.0117
   15 O1     4d2-       0.0002    0.0005   -0.0005    0.0015   -0.0016   -0.0010    0.0003   -0.0025    0.0006   -0.0011
   16 O1     3d1-       0.0000   -0.0000    0.0000    0.0000   -0.0000    0.0000    0.0000   -0.0000   -0.0000   -0.0000
   17 O1     4d1-       0.0000   -0.0000    0.0000   -0.0000   -0.0000   -0.0000    0.0000   -0.0000   -0.0000    0.0000
   18 O1     3d0       -0.0004   -0.0005    0.0005   -0.0114    0.0099    0.0047   -0.0085    0.0147    0.0052    0.0056
   19 O1     4d0       -0.0002   -0.0004    0.0004   -0.0006    0.0015   -0.0004   -0.0006    0.0008    0.0006    0.0003
   20 O1     3d1+       0.0000    0.0000    0.0000   -0.0000    0.0000   -0.0000    0.0000   -0.0000   -0.0000    0.0000
   21 O1     4d1+      -0.0000   -0.0000    0.0000    0.0000    0.0000   -0.0000   -0.0000   -0.0000   -0.0000   -0.0000
   22 O1     3d2+      -0.0005   -0.0006    0.0007   -0.0132    0.0063    0.0050   -0.0255    0.0094    0.0175    0.0044
   23 O1     4d2+      -0.0003   -0.0003    0.0003   -0.0016    0.0009    0.0007   -0.0024    0.0006    0.0027   -0.0004
   24 O1     4f3-       0.0001    0.0000   -0.0000    0.0015    0.0002    0.0009    0.0069    0.0015   -0.0051    0.0011
   25 O1     4f2-      -0.0000    0.0000   -0.0000   -0.0000   -0.0000   -0.0000   -0.0000    0.0000    0.0000   -0.0000
   26 O1     4f1-       0.0001    0.0001   -0.0001    0.0031   -0.0028   -0.0008    0.0016   -0.0028   -0.0006   -0.0016
   27 O1     4f0       -0.0000   -0.0000   -0.0000   -0.0000    0.0000   -0.0000   -0.0000   -0.0000   -0.0000    0.0000
   28 O1     4f1+       0.0000    0.0001   -0.0001    0.0016   -0.0016   -0.0006    0.0005   -0.0014   -0.0015    0.0006
   29 O1     4f2+      -0.0000   -0.0000   -0.0000    0.0000   -0.0000    0.0000    0.0000    0.0000   -0.0000    0.0000
   30 O1     4f3+       0.0000    0.0002   -0.0002    0.0054   -0.0050   -0.0028    0.0022   -0.0067   -0.0016   -0.0032
   31 O2     1s         0.9988    0.0000   -0.0028   -0.0281   -0.0000   -0.0151   -0.0104    0.0000   -0.0000    0.0253
   32 O2     2s        -0.0078   -0.0000    0.0106    0.5953   -0.0000   -0.6694   -0.1390    0.0000   -0.0000    0.3182
   33 O2     3s        -0.0057   -0.0000    0.0061   -0.0591   -0.0000   -0.0241   -0.0189    0.0000   -0.0000    0.0646
   34 O2     4s        -0.0011   -0.0000    0.0010   -0.0116   -0.0000   -0.0048   -0.0053    0.0000   -0.0000    0.0156
   35 O2     2px       -0.0017   -0.0000    0.0034    0.0995   -0.0000    0.1694    0.6149   -0.0000   -0.0000   -0.5376
   36 O2     3px       -0.0024   -0.0000    0.0022   -0.0367   -0.0000   -0.0224   -0.0560    0.0000   -0.0000   -0.0134
   37 O2     4px        0.0019    0.0000   -0.0007   -0.0040   -0.0000    0.0018   -0.0103    0.0000    0.0000   -0.0006
   38 O2     2py        0.0000   -0.0056   -0.0000   -0.0000   -0.2985    0.0000   -0.0000   -0.5213   -0.1424    0.0000
   39 O2     3py        0.0000   -0.0035   -0.0000    0.0000    0.0590    0.0000    0.0000    0.0517   -0.0121    0.0000
   40 O2     4py       -0.0000    0.0011    0.0000    0.0000   -0.0011    0.0000   -0.0000    0.0096   -0.0011   -0.0000
   41 O2     2pz        0.0000   -0.0000    0.0000    0.0000    0.0000    0.0000   -0.0000   -0.0000   -0.0000    0.0000
   42 O2     3pz        0.0000   -0.0000    0.0000    0.0000    0.0000    0.0000    0.0000    0.0000   -0.0000   -0.0000
   43 O2     4pz       -0.0000    0.0000   -0.0000   -0.0000    0.0000   -0.0000   -0.0000    0.0000    0.0000   -0.0000
   44 O2     3d2-       0.0000   -0.0014   -0.0000   -0.0000   -0.0388    0.0000   -0.0000   -0.0318   -0.0408    0.0000
   45 O2     4d2-       0.0000   -0.0006   -0.0000   -0.0000   -0.0040   -0.0000    0.0000   -0.0034   -0.0069    0.0000
   46 O2     3d1-      -0.0000   -0.0000    0.0000   -0.0000    0.0000    0.0000    0.0000   -0.0000   -0.0000   -0.0000
   47 O2     4d1-       0.0000   -0.0000    0.0000   -0.0000    0.0000    0.0000    0.0000   -0.0000   -0.0000   -0.0000
   48 O2     3d0        0.0009    0.0000   -0.0010   -0.0148    0.0000   -0.0062   -0.0160    0.0000    0.0000    0.0223
   49 O2     4d0        0.0006    0.0000   -0.0005    0.0007    0.0000   -0.0006   -0.0014    0.0000    0.0000    0.0028
   50 O2     3d1+       0.0000   -0.0000    0.0000    0.0000   -0.0000    0.0000    0.0000   -0.0000   -0.0000   -0.0000
   51 O2     4d1+       0.0000   -0.0000    0.0000    0.0000   -0.0000    0.0000    0.0000   -0.0000   -0.0000   -0.0000
   52 O2     3d2+       0.0005    0.0000   -0.0009   -0.0127    0.0000    0.0016    0.0238   -0.0000    0.0000    0.0338
   53 O2     4d2+       0.0003    0.0000   -0.0004   -0.0013    0.0000    0.0004    0.0030   -0.0000    0.0000    0.0063
   54 O2     4f3-      -0.0000    0.0000    0.0000   -0.0000    0.0012   -0.0000    0.0000    0.0045   -0.0088    0.0000
   55 O2     4f2-       0.0000   -0.0000    0.0000    0.0000    0.0000   -0.0000    0.0000   -0.0000   -0.0000   -0.0000
   56 O2     4f1-       0.0000    0.0001    0.0000    0.0000    0.0062   -0.0000    0.0000    0.0056    0.0014   -0.0000
   57 O2     4f0       -0.0000    0.0000   -0.0000   -0.0000    0.0000   -0.0000   -0.0000   -0.0000    0.0000    0.0000
   58 O2     4f1+       0.0002    0.0000   -0.0001   -0.0034    0.0000   -0.0007   -0.0036    0.0000    0.0000    0.0009
   59 O2     4f2+      -0.0000    0.0000    0.0000    0.0000   -0.0000   -0.0000    0.0000   -0.0000    0.0000    0.0000
   60 O2     4f3+       0.0002    0.0000   -0.0002   -0.0096    0.0000   -0.0001   -0.0044   -0.0000    0.0000    0.0065
   61 O3     1s         0.0037    0.7064    0.7063   -0.0133   -0.0108    0.0121   -0.0096   -0.0219   -0.0067    0.0041
   62 O3     2s         0.0041   -0.0048   -0.0052    0.3539    0.5881    0.6084   -0.1916   -0.3944   -0.0573    0.0174
   63 O3     3s         0.0024   -0.0036   -0.0037   -0.0117   -0.0185    0.0212   -0.0190   -0.0492   -0.0172    0.0187
   64 O3     4s         0.0004   -0.0007   -0.0006   -0.0012   -0.0043    0.0031   -0.0039   -0.0104   -0.0041    0.0057
   65 O3     2px       -0.0011    0.0013    0.0011   -0.0497   -0.0580    0.1093    0.2229   -0.3437    0.5450    0.6443
   66 O3     3px       -0.0007    0.0013    0.0010    0.0128    0.0079   -0.0177   -0.0119    0.0277    0.0105    0.0128
   67 O3     4px        0.0001   -0.0006   -0.0007    0.0023   -0.0001    0.0003   -0.0014    0.0028   -0.0040   -0.0050
   68 O3     2py        0.0024   -0.0020   -0.0023    0.1132    0.0693   -0.1233    0.3566    0.2919    0.4772    0.0413
   69 O3     3py        0.0014   -0.0020   -0.0023   -0.0159   -0.0148    0.0199   -0.0295   -0.0365   -0.0028    0.0170
   70 O3     4py       -0.0006    0.0013    0.0014   -0.0009   -0.0037   -0.0010   -0.0050   -0.0040   -0.0038    0.0018
   71 O3     2pz       -0.0000   -0.0000    0.0000   -0.0000   -0.0000   -0.0000   -0.0000   -0.0000    0.0000    0.0000
   72 O3     3pz        0.0000    0.0000   -0.0000   -0.0000   -0.0000   -0.0000   -0.0000   -0.0000    0.0000   -0.0000
   73 O3     4pz        0.0000    0.0000   -0.0000    0.0000   -0.0000   -0.0000    0.0000   -0.0000   -0.0000    0.0000
   74 O3     3d2-      -0.0004    0.0009    0.0009   -0.0151   -0.0137    0.0129   -0.0005   -0.0273   -0.0002    0.0117
   75 O3     4d2-      -0.0002    0.0005    0.0005   -0.0015   -0.0016    0.0010   -0.0003   -0.0025    0.0006    0.0011
   76 O3     3d1-      -0.0000    0.0000   -0.0000   -0.0000    0.0000    0.0000   -0.0000   -0.0000    0.0000   -0.0000
   77 O3     4d1-      -0.0000    0.0000    0.0000   -0.0000   -0.0000    0.0000   -0.0000   -0.0000    0.0000   -0.0000
   78 O3     3d0       -0.0004    0.0005    0.0005   -0.0114   -0.0099    0.0047   -0.0085   -0.0147   -0.0052    0.0056
   79 O3     4d0       -0.0002    0.0004    0.0004   -0.0006   -0.0015   -0.0004   -0.0006   -0.0008   -0.0006    0.0003
   80 O3     3d1+       0.0000    0.0000    0.0000    0.0000   -0.0000    0.0000    0.0000    0.0000   -0.0000    0.0000
   81 O3     4d1+       0.0000   -0.0000   -0.0000    0.0000    0.0000    0.0000   -0.0000    0.0000   -0.0000   -0.0000
   82 O3     3d2+      -0.0005    0.0006    0.0007   -0.0132   -0.0063    0.0050   -0.0255   -0.0094   -0.0175    0.0044
   83 O3     4d2+      -0.0003    0.0003    0.0003   -0.0016   -0.0009    0.0007   -0.0024   -0.0006   -0.0027   -0.0004
   84 O3     4f3-      -0.0001    0.0000    0.0000   -0.0015    0.0002   -0.0009   -0.0069    0.0015   -0.0051   -0.0011
   85 O3     4f2-       0.0000   -0.0000    0.0000   -0.0000    0.0000   -0.0000    0.0000    0.0000   -0.0000   -0.0000
   86 O3     4f1-      -0.0001    0.0001    0.0001   -0.0031   -0.0028    0.0008   -0.0016   -0.0028   -0.0006    0.0016
   87 O3     4f0        0.0000   -0.0000    0.0000    0.0000    0.0000   -0.0000    0.0000    0.0000    0.0000    0.0000
   88 O3     4f1+       0.0000   -0.0001   -0.0001    0.0016    0.0016   -0.0006    0.0005    0.0014    0.0015    0.0006
   89 O3     4f2+       0.0000   -0.0000    0.0000    0.0000    0.0000   -0.0000    0.0000    0.0000    0.0000    0.0000
   90 O3     4f3+       0.0000   -0.0002   -0.0002    0.0054    0.0050   -0.0028    0.0022    0.0067    0.0016   -0.0032
 
 
      Orbital               11        12        13        14        15        16        17        18        19        20
      Energy            0.0000    0.0000    0.0000    0.1761    0.1884    0.2281    0.2741    0.3519    0.3782    0.3845
      Occ. No.          1.9926    1.6271    0.3803    0.0000    0.0000    0.0000    0.0000    0.0000    0.0000    0.0000
 
    1 O1     1s         0.0000    0.0000    0.0000   -0.1954   -0.1378   -0.0000    0.0082   -0.0140    0.0000    0.0763
    2 O1     2s         0.0000    0.0000    0.0000   -1.4402   -1.0197   -0.0000    0.1417   -0.0150    0.0000    0.4162
    3 O1     3s         0.0000    0.0000    0.0000   -0.8395   -0.5695   -0.0000   -0.0280   -0.0096    0.0000    0.6136
    4 O1     4s         0.0000    0.0000    0.0000   -0.1893   -0.1181   -0.0000   -0.0164    0.0032    0.0000    0.1755
    5 O1     2px       -0.0000   -0.0000    0.0000    0.4427    0.2343    0.0000   -0.1666   -0.2372   -0.0000    0.0307
    6 O1     3px       -0.0000   -0.0000   -0.0000    0.4239    0.3566    0.0000    0.2615   -0.7977    0.0000    0.2643
    7 O1     4px        0.0000    0.0000    0.0000    0.0447    0.0852    0.0000    0.1477   -0.3132    0.0000    0.1356
    8 O1     2py        0.0000    0.0000   -0.0000    0.5305    0.8135   -0.0000   -0.4455   -0.2463   -0.0000   -0.0408
    9 O1     3py       -0.0000   -0.0000   -0.0000    0.7138    0.6938    0.0000   -0.4288   -0.1715   -0.0000   -0.6344
   10 O1     4py        0.0000    0.0000    0.0000    0.1178    0.0740    0.0000   -0.1469   -0.0311   -0.0000   -0.1400
   11 O1     2pz       -0.2635   -0.7067    0.6844   -0.0000    0.0000    0.0051    0.0000   -0.0000   -0.1989    0.0000
   12 O1     3pz        0.0241    0.0027   -0.0568   -0.0000    0.0000    0.4051    0.0000   -0.0000   -0.9310    0.0000
   13 O1     4pz        0.0050    0.0089   -0.0019   -0.0000    0.0000    0.2068    0.0000   -0.0000   -0.3723    0.0000
   14 O1     3d2-       0.0000    0.0000    0.0000   -0.0790   -0.0518   -0.0000   -0.0032    0.0045    0.0000    0.0382
   15 O1     4d2-       0.0000    0.0000    0.0000   -0.0505   -0.0351   -0.0000    0.0013    0.0172    0.0000    0.0214
   16 O1     3d1-       0.0267    0.0162    0.0093   -0.0000   -0.0000    0.0087    0.0000    0.0000    0.0039   -0.0000
   17 O1     4d1-       0.0040    0.0030    0.0044   -0.0000   -0.0000    0.0011    0.0000    0.0000    0.0102   -0.0000
   18 O1     3d0       -0.0000   -0.0000   -0.0000    0.0540    0.0462    0.0000    0.0108   -0.0100   -0.0000   -0.0400
   19 O1     4d0       -0.0000   -0.0000   -0.0000    0.0355    0.0306    0.0000    0.0031   -0.0128   -0.0000   -0.0196
   20 O1     3d1+       0.0138    0.0083    0.0030    0.0000    0.0000    0.0042   -0.0000    0.0000    0.0160   -0.0000
   21 O1     4d1+       0.0022    0.0013    0.0007    0.0000   -0.0000   -0.0006   -0.0000    0.0000    0.0132   -0.0000
   22 O1     3d2+      -0.0000   -0.0000   -0.0000    0.0466    0.0509   -0.0000    0.0281    0.0003   -0.0000   -0.1060
   23 O1     4d2+      -0.0000   -0.0000   -0.0000    0.0276    0.0362   -0.0000    0.0066   -0.0011   -0.0000   -0.0615
   24 O1     4f3-       0.0000    0.0000   -0.0000   -0.0019   -0.0002    0.0000    0.0034   -0.0047    0.0000    0.0107
   25 O1     4f2-      -0.0053   -0.0037    0.0005   -0.0000    0.0000    0.0026   -0.0000   -0.0000   -0.0060    0.0000
   26 O1     4f1-       0.0000    0.0000   -0.0000   -0.0061   -0.0045   -0.0000    0.0005    0.0053    0.0000    0.0072
   27 O1     4f0        0.0037   -0.0010    0.0097    0.0000    0.0000   -0.0020    0.0000   -0.0000    0.0064   -0.0000
   28 O1     4f1+       0.0000   -0.0000    0.0000   -0.0021   -0.0032   -0.0000   -0.0004    0.0053    0.0000    0.0019
   29 O1     4f2+       0.0039    0.0027   -0.0004    0.0000    0.0000   -0.0014   -0.0000    0.0000    0.0026   -0.0000
   30 O1     4f3+       0.0000    0.0000    0.0000   -0.0093   -0.0053   -0.0000    0.0029    0.0091    0.0000    0.0076
   31 O2     1s        -0.0000   -0.0000   -0.0000    0.0000    0.3199   -0.0000   -0.0776    0.0000   -0.0000   -0.1765
   32 O2     2s        -0.0000   -0.0000   -0.0000    0.0000    2.3264   -0.0000   -0.6612    0.0000   -0.0000   -1.0095
   33 O2     3s        -0.0000    0.0000   -0.0000    0.0000    1.2972   -0.0000   -0.2044    0.0000   -0.0000   -0.6997
   34 O2     4s        -0.0000    0.0000   -0.0000    0.0000    0.2778   -0.0000   -0.0403    0.0000   -0.0000   -0.1133
   35 O2     2px       -0.0000    0.0000   -0.0000    0.0000    0.7714   -0.0000   -0.4451    0.0000   -0.0000   -0.2350
   36 O2     3px       -0.0000   -0.0000   -0.0000    0.0000    0.7885   -0.0000    0.0723    0.0000   -0.0000   -0.9696
   37 O2     4px        0.0000    0.0000   -0.0000    0.0000    0.1235   -0.0000    0.1114    0.0000   -0.0000   -0.1812
   38 O2     2py       -0.0000   -0.0000    0.0000    1.3535   -0.0000    0.0000    0.0000   -0.1366   -0.0000   -0.0000
[...]

                                               &MOTRA

                                   only a single process is used
                       available to each process: 2.0 GB of memory, 1 thread?
()()()()()()()()()()()()()()()()()()()()()()()()()()()()()()()()()()()()()()()()()()()()()()()()()()
 
 
      *** WARNING: Default frozen orbitals is overwritten by user input.
      *** Default values:   3
 
      Header of the integral files:
      
       Integrals generated by seward 4.2.0  , Wed Jan  1 02:11:29 2025
 
 
      Header of MO coefficients source file:
      * RASSCF average (pseudo-natural) orbitals                                      
 
 
      Cartesian coordinates in Angstrom:
      -----------------------------------------------------
      No.  Label        X            Y            Z        
      -----------------------------------------------------
       1   O1         0.61225800   1.12179500   0.00000000
       2   O2         0.00000000   0.00000000   0.00000000
       3   O3         0.61225800  -1.12179500   0.00000000
      -----------------------------------------------------
      Nuclear repulsion energy =   68.09569253
 
      Orbital specifications:
      -----------------------
 
      Symmetry species:              1
      Number of basis functions:    90
      Frozen orbitals:               0
      Deleted orbitals:              0
      Number of orbitals used:      90

       SYMMETRY  BASIS FUNCTIONS       ORBITALS      INTEGRALS   CPU(SEC)  I/O(SEC)
 
        1 1 1 1   90  90  90  90    90  90  90  90     8386560       0.00      0.00

       TOTAL CPU TIME(SEC)    4.45TOTAL I/O TIME(SEC)   11.02
 
--- Stop Module: motra at Wed Jan  1 02:11:45 2025 /rc=_RC_ALL_IS_WELL_ ---
*** files: xmldump
    saved to directory /home/grierjones/DDCASPT2/ozone/ANO-RCC-VTZP/ozone_122.75
--- Module motra spent 11 seconds ---

>>> COPY /tmp/ozone_122.75/GMJ_one_int_indx.csv /home/grierjones/DDCASPT2/ozone/ANO-RCC-VTZP/ozone_122.75/ozone_122.75.GMJ_one_int_indx.csv

>>> COPY /tmp/ozone_122.75/GMJ_one_int.csv /home/grierjones/DDCASPT2/ozone/ANO-RCC-VTZP/ozone_122.75/ozone_122.75.GMJ_one_int.csv

>>> COPY /tmp/ozone_122.75/GMJ_two_int_indx.csv /home/grierjones/DDCASPT2/ozone/ANO-RCC-VTZP/ozone_122.75/ozone_122.75.GMJ_two_int_indx.csv

>>> COPY /tmp/ozone_122.75/GMJ_two_int.csv /home/grierjones/DDCASPT2/ozone/ANO-RCC-VTZP/ozone_122.75/ozone_122.75.GMJ_two_int.csv

*** symbolic link created: INPORB -> ozone_122.75.RasOrb
--- Start Module: caspt2 at Wed Jan  1 02:11:45 2025 ---
 
()()()()()()()()()()()()()()()()()()()()()()()()()()()()()()()()()()()()()()()()()()()()()()()()()()

                                              &CASPT2

                                   only a single process is used
                       available to each process: 2.0 GB of memory, 1 thread?
()()()()()()()()()()()()()()()()()()()()()()()()()()()()()()()()()()()()()()()()()()()()()()()()()()
 
 Cholesky algorithm in CASPT2 =    1
 
 ###############################################################################
 ###############################################################################
 ###                                                                         ###
 ###                                                                         ###
 ###    User changed nr of frozen orbitals.                                  ###
 ###                                                                         ###
 ###                                                                         ###
 ###############################################################################
 ###############################################################################
 
++    Wave function specifications:
      -----------------------------
 
      Number of closed shell electrons          20
      Number of electrons in active shells       4
      Max number of holes in RAS1 space          0
      Max number of electrons in RAS3 space      0
      Number of inactive orbitals               10
      Number of active orbitals                  3
      Number of secondary orbitals              77
      Spin quantum number                      0.0
      State symmetry                             1
      Number of CSFs                             6
      Number of root(s) available                1
      Root passed to geometry opt.               1
      A file JOBMIX will be created.
      This is a CASSCF or RASSCF reference function
--
 
++    Orbital specifications:
      -----------------------
 
      Symmetry species                           1
                                                 a
      Frozen orbitals                            0
      Inactive orbitals                         10
      Active orbitals                            3
      Secondary orbitals                        77
      Deleted orbitals                           0
      Number of basis functions                 90
--
 
      Type of Fock operator: STANDARD
      Type of 0-order Hamiltonian: STANDARD WITH DEFAULT IPEA
        "IP-EA" denominator shift =      0.25
      The input orbitals and the CI vector will be transformed.
 
--------------------------------------------------------------------------------
 Estimated memory requirements:
  POLY3 :                   250202
  RHS:                      446386
  SIGMA :                   610360
  PRPCTL:                        0
 Available workspace:    230385072
 
++ CASPT2 computation for group   1
 
********************************************************************************
 Multi-State initialization phase begins for group   1
--------------------------------------------------------------------------------
********************************************************************************
 Compute H0 matrices for state    1
--------------------------------------------------------------------------------
--------------------------------------------------------------------------------
 H0 matrices have been computed.
 
********************************************************************************
  CASPT2 EQUATION SOLUTION
--------------------------------------------------------------------------------
 
  Total nr of CASPT2 parameters:
   Before reduction:      541275
   After  reduction:      532232
 
 The contributions to the second order correlation energy in atomic units.
-----------------------------------------------------------------------------------------------------------------------------
  IT.      VJTU        VJTI        ATVX        AIVX        VJAI        BVAT        BJAT        BJAI        TOTAL       RNORM  
-----------------------------------------------------------------------------------------------------------------------------
   1    -0.000000   -0.001186   -0.012573   -0.093023   -0.019045   -0.023421   -0.175195   -0.365958   -0.690399    0.002806
   2    -0.000000   -0.001205   -0.012628   -0.093409   -0.019069   -0.023428   -0.175258   -0.365964   -0.690961    0.000236
   3    -0.000000   -0.001205   -0.012629   -0.093415   -0.019069   -0.023428   -0.175259   -0.365964   -0.690969    0.000027
   4    -0.000000   -0.001205   -0.012628   -0.093413   -0.019069   -0.023428   -0.175258   -0.365964   -0.690966    0.000004
-------------------------------------------------------------------------------------------------------------------
 
  FINAL CASPT2 RESULT:
 
  Correlation energy /Case, /Symm, and sums:
 VJTU     -0.00000000 -0.00000000
 VJTIP    -0.00120547 -0.00120547
 VJTIM     0.00000000  0.00000000
 ATVX     -0.01262838 -0.01262838
 AIVX     -0.09341295 -0.09341295
 VJAIP    -0.01342692 -0.01342692
 VJAIM    -0.00564220 -0.00564220
 BVATP    -0.02193827 -0.02193827
 BVATM    -0.00148982 -0.00148982
 BJATP    -0.07186651 -0.07186651
 BJATM    -0.10339151 -0.10339151
 BJAIP    -0.25196449 -0.25196449
 BJAIM    -0.11399927 -0.11399927
 Summed:  -0.69096580 -0.69096580
 
      Reference energy:        -224.6063666546
      E2 (Non-variational):      -0.6909658000
      E2 (Variational):          -0.6909658379
      Total energy:            -225.2973324925
      Residual norm:              0.0000003958
      Reference weight:           0.85026
 
      Contributions to the CASPT2 correlation energy
      Active & Virtual Only:         -0.0360564718
      One Inactive Excited:          -0.2686709666
      Two Inactive Excited:          -0.3862383616
 
 
++ Denominators, etc.
----------------------------------------------------------------------------------------------------
 Report on small energy denominators, large coefficients, and large energy contributions.
CASE  SYMM ACTIVE-MIX  NON-ACTIVE INDICES          DENOMINATOR     RHS VALUE       COEFFICIENT     CONTRIBUTION
ATVX     1  Mu1.0005  Se1.019                       1.47993281     -0.05598390      0.03707868     -0.00207581
ATVX     1  Mu1.0005  Se1.043                       3.02409213      0.08200376     -0.02660259     -0.00218151
AIVX     1  Mu1.0002  In1.009 Se1.015               1.03781619     -0.03012359      0.02822379     -0.00085020
AIVX     1  Mu1.0004  In1.007 Se1.017               1.66789724     -0.04487071      0.02760470     -0.00123864
AIVX     1  Mu1.0002  In1.008 Se1.017               1.33376060      0.04817277     -0.03540356     -0.00170549
AIVX     1  Mu1.0004  In1.010 Se1.017               1.40220172      0.03582190     -0.02575890     -0.00092273
AIVX     1  Mu1.0004  In1.007 Se1.020               1.77832470      0.06864444     -0.03929536     -0.00269741
AIVX     1  Mu1.0002  In1.009 Se1.020               1.23399156     -0.05894818      0.04638104     -0.00273408
AIVX     1  Mu1.0003  In1.009 Se1.020               1.31865398     -0.04167832      0.03093443     -0.00128930
AIVX     1  Mu1.0002  In1.008 Se1.021               1.48238189      0.05142828     -0.03366885     -0.00173153
AIVX     1  Mu1.0004  In1.008 Se1.022               1.87668759      0.10955547     -0.05930338     -0.00649701
AIVX     1  Mu1.0006  In1.008 Se1.022               2.04512416     -0.06735238      0.03334430     -0.00224582
AIVX     1  Mu1.0002  In1.010 Se1.022               1.29764415      0.06758174     -0.05097501     -0.00344498
AIVX     1  Mu1.0003  In1.010 Se1.022               1.38230657      0.04424540     -0.03131666     -0.00138562
AIVX     1  Mu1.0004  In1.010 Se1.032               2.48391198     -0.06150261      0.02514764     -0.00154665
BJAIP    1  Se1.022 In1.008 Se1.022 In1.008         2.55730815      0.09798369     -0.03831516     -0.00375426
BJAIP    1  Se1.017 In1.008 Se1.022 In1.010         2.08282228      0.05438120     -0.02610938     -0.00141986
BJAIP    1  Se1.022 In1.010 Se1.022 In1.010         2.04670583      0.05379709     -0.02628472     -0.00141404
BJAIM    1  Se1.020 In1.007 Se1.021 In1.008         2.45894526      0.06334524     -0.02576113     -0.00163184
--
 
   (Skipping property calculation,
    use PROP keyword to activate)
--
 
  Total CASPT2 energies:
::    CASPT2 Root  1     Total energy:   -225.29733249
 
  A NEW JOBIPH FILE NAMED 'JOBMIX' IS PREPARED.
********************************************************************************
--- Stop Module: caspt2 at Wed Jan  1 02:11:46 2025 /rc=_RC_ALL_IS_WELL_ ---
*** files: xmldump
    saved to directory /home/grierjones/DDCASPT2/ozone/ANO-RCC-VTZP/ozone_122.75
--- Module caspt2 spent 1 second ---

>>> EXPORT i = B

>>> EXPORT j = P

>>> IF (-FILE GMJ_e2_${i}_${j}.csv)

>>> COPY /tmp/ozone_122.75/GMJ_RHS_B_P.csv /home/grierjones/DDCASPT2/ozone/ANO-RCC-VTZP/ozone_122.75/GMJ_RHS_B_P.csv

>>> COPY /tmp/ozone_122.75/GMJ_IVECW_B_P.csv /home/grierjones/DDCASPT2/ozone/ANO-RCC-VTZP/ozone_122.75/GMJ_IVECW_B_P.csv

>>> COPY /tmp/ozone_122.75/GMJ_IVECX_B_P.csv /home/grierjones/DDCASPT2/ozone/ANO-RCC-VTZP/ozone_122.75/GMJ_IVECX_B_P.csv

>>> COPY /tmp/ozone_122.75/GMJ_IVECC2_B_P.csv /home/grierjones/DDCASPT2/ozone/ANO-RCC-VTZP/ozone_122.75/GMJ_IVECC2_B_P.csv

>>> COPY /tmp/ozone_122.75/GMJ_e2_B_P.csv /home/grierjones/DDCASPT2/ozone/ANO-RCC-VTZP/ozone_122.75/GMJ_e2_B_P.csv

>>> END FOREACH

>>> EXPORT j = M

>>> IF (-FILE GMJ_e2_${i}_${j}.csv)
(Skipped)

>>> END FOREACH

>>> END FOREACH

>>> EXPORT i = E

>>> EXPORT j = P

>>> IF (-FILE GMJ_e2_${i}_${j}.csv)

>>> COPY /tmp/ozone_122.75/GMJ_RHS_E_P.csv /home/grierjones/DDCASPT2/ozone/ANO-RCC-VTZP/ozone_122.75/GMJ_RHS_E_P.csv

>>> COPY /tmp/ozone_122.75/GMJ_IVECW_E_P.csv /home/grierjones/DDCASPT2/ozone/ANO-RCC-VTZP/ozone_122.75/GMJ_IVECW_E_P.csv

>>> COPY /tmp/ozone_122.75/GMJ_IVECX_E_P.csv /home/grierjones/DDCASPT2/ozone/ANO-RCC-VTZP/ozone_122.75/GMJ_IVECX_E_P.csv

>>> COPY /tmp/ozone_122.75/GMJ_IVECC2_E_P.csv /home/grierjones/DDCASPT2/ozone/ANO-RCC-VTZP/ozone_122.75/GMJ_IVECC2_E_P.csv

>>> COPY /tmp/ozone_122.75/GMJ_e2_E_P.csv /home/grierjones/DDCASPT2/ozone/ANO-RCC-VTZP/ozone_122.75/GMJ_e2_E_P.csv

>>> END FOREACH

>>> EXPORT j = M

>>> IF (-FILE GMJ_e2_${i}_${j}.csv)

>>> COPY /tmp/ozone_122.75/GMJ_RHS_E_M.csv /home/grierjones/DDCASPT2/ozone/ANO-RCC-VTZP/ozone_122.75/GMJ_RHS_E_M.csv

>>> COPY /tmp/ozone_122.75/GMJ_IVECW_E_M.csv /home/grierjones/DDCASPT2/ozone/ANO-RCC-VTZP/ozone_122.75/GMJ_IVECW_E_M.csv

>>> COPY /tmp/ozone_122.75/GMJ_IVECX_E_M.csv /home/grierjones/DDCASPT2/ozone/ANO-RCC-VTZP/ozone_122.75/GMJ_IVECX_E_M.csv

>>> COPY /tmp/ozone_122.75/GMJ_IVECC2_E_M.csv /home/grierjones/DDCASPT2/ozone/ANO-RCC-VTZP/ozone_122.75/GMJ_IVECC2_E_M.csv

>>> COPY /tmp/ozone_122.75/GMJ_e2_E_M.csv /home/grierjones/DDCASPT2/ozone/ANO-RCC-VTZP/ozone_122.75/GMJ_e2_E_M.csv

>>> END FOREACH

>>> END FOREACH

>>> EXPORT i = F

>>> EXPORT j = P

>>> IF (-FILE GMJ_e2_${i}_${j}.csv)

>>> COPY /tmp/ozone_122.75/GMJ_RHS_F_P.csv /home/grierjones/DDCASPT2/ozone/ANO-RCC-VTZP/ozone_122.75/GMJ_RHS_F_P.csv

>>> COPY /tmp/ozone_122.75/GMJ_IVECW_F_P.csv /home/grierjones/DDCASPT2/ozone/ANO-RCC-VTZP/ozone_122.75/GMJ_IVECW_F_P.csv

>>> COPY /tmp/ozone_122.75/GMJ_IVECX_F_P.csv /home/grierjones/DDCASPT2/ozone/ANO-RCC-VTZP/ozone_122.75/GMJ_IVECX_F_P.csv

>>> COPY /tmp/ozone_122.75/GMJ_IVECC2_F_P.csv /home/grierjones/DDCASPT2/ozone/ANO-RCC-VTZP/ozone_122.75/GMJ_IVECC2_F_P.csv

>>> COPY /tmp/ozone_122.75/GMJ_e2_F_P.csv /home/grierjones/DDCASPT2/ozone/ANO-RCC-VTZP/ozone_122.75/GMJ_e2_F_P.csv

>>> END FOREACH

>>> EXPORT j = M

>>> IF (-FILE GMJ_e2_${i}_${j}.csv)

>>> COPY /tmp/ozone_122.75/GMJ_RHS_F_M.csv /home/grierjones/DDCASPT2/ozone/ANO-RCC-VTZP/ozone_122.75/GMJ_RHS_F_M.csv

>>> COPY /tmp/ozone_122.75/GMJ_IVECW_F_M.csv /home/grierjones/DDCASPT2/ozone/ANO-RCC-VTZP/ozone_122.75/GMJ_IVECW_F_M.csv

>>> COPY /tmp/ozone_122.75/GMJ_IVECX_F_M.csv /home/grierjones/DDCASPT2/ozone/ANO-RCC-VTZP/ozone_122.75/GMJ_IVECX_F_M.csv

>>> COPY /tmp/ozone_122.75/GMJ_IVECC2_F_M.csv /home/grierjones/DDCASPT2/ozone/ANO-RCC-VTZP/ozone_122.75/GMJ_IVECC2_F_M.csv

>>> COPY /tmp/ozone_122.75/GMJ_e2_F_M.csv /home/grierjones/DDCASPT2/ozone/ANO-RCC-VTZP/ozone_122.75/GMJ_e2_F_M.csv

>>> END FOREACH

>>> END FOREACH

>>> EXPORT i = G

>>> EXPORT j = P

>>> IF (-FILE GMJ_e2_${i}_${j}.csv)

>>> COPY /tmp/ozone_122.75/GMJ_RHS_G_P.csv /home/grierjones/DDCASPT2/ozone/ANO-RCC-VTZP/ozone_122.75/GMJ_RHS_G_P.csv

>>> COPY /tmp/ozone_122.75/GMJ_IVECW_G_P.csv /home/grierjones/DDCASPT2/ozone/ANO-RCC-VTZP/ozone_122.75/GMJ_IVECW_G_P.csv

>>> COPY /tmp/ozone_122.75/GMJ_IVECX_G_P.csv /home/grierjones/DDCASPT2/ozone/ANO-RCC-VTZP/ozone_122.75/GMJ_IVECX_G_P.csv

>>> COPY /tmp/ozone_122.75/GMJ_IVECC2_G_P.csv /home/grierjones/DDCASPT2/ozone/ANO-RCC-VTZP/ozone_122.75/GMJ_IVECC2_G_P.csv

>>> COPY /tmp/ozone_122.75/GMJ_e2_G_P.csv /home/grierjones/DDCASPT2/ozone/ANO-RCC-VTZP/ozone_122.75/GMJ_e2_G_P.csv

>>> END FOREACH

>>> EXPORT j = M

>>> IF (-FILE GMJ_e2_${i}_${j}.csv)

>>> COPY /tmp/ozone_122.75/GMJ_RHS_G_M.csv /home/grierjones/DDCASPT2/ozone/ANO-RCC-VTZP/ozone_122.75/GMJ_RHS_G_M.csv

>>> COPY /tmp/ozone_122.75/GMJ_IVECW_G_M.csv /home/grierjones/DDCASPT2/ozone/ANO-RCC-VTZP/ozone_122.75/GMJ_IVECW_G_M.csv

>>> COPY /tmp/ozone_122.75/GMJ_IVECX_G_M.csv /home/grierjones/DDCASPT2/ozone/ANO-RCC-VTZP/ozone_122.75/GMJ_IVECX_G_M.csv

>>> COPY /tmp/ozone_122.75/GMJ_IVECC2_G_M.csv /home/grierjones/DDCASPT2/ozone/ANO-RCC-VTZP/ozone_122.75/GMJ_IVECC2_G_M.csv

>>> COPY /tmp/ozone_122.75/GMJ_e2_G_M.csv /home/grierjones/DDCASPT2/ozone/ANO-RCC-VTZP/ozone_122.75/GMJ_e2_G_M.csv

>>> END FOREACH

>>> END FOREACH

>>> EXPORT i = H

>>> EXPORT j = P

>>> IF (-FILE GMJ_e2_${i}_${j}.csv)

>>> COPY /tmp/ozone_122.75/GMJ_RHS_H_P.csv /home/grierjones/DDCASPT2/ozone/ANO-RCC-VTZP/ozone_122.75/GMJ_RHS_H_P.csv

>>> COPY /tmp/ozone_122.75/GMJ_IVECW_H_P.csv /home/grierjones/DDCASPT2/ozone/ANO-RCC-VTZP/ozone_122.75/GMJ_IVECW_H_P.csv

>>> COPY /tmp/ozone_122.75/GMJ_IVECX_H_P.csv /home/grierjones/DDCASPT2/ozone/ANO-RCC-VTZP/ozone_122.75/GMJ_IVECX_H_P.csv

>>> COPY /tmp/ozone_122.75/GMJ_IVECC2_H_P.csv /home/grierjones/DDCASPT2/ozone/ANO-RCC-VTZP/ozone_122.75/GMJ_IVECC2_H_P.csv

>>> COPY /tmp/ozone_122.75/GMJ_e2_H_P.csv /home/grierjones/DDCASPT2/ozone/ANO-RCC-VTZP/ozone_122.75/GMJ_e2_H_P.csv

>>> END FOREACH

>>> EXPORT j = M

>>> IF (-FILE GMJ_e2_${i}_${j}.csv)

>>> COPY /tmp/ozone_122.75/GMJ_RHS_H_M.csv /home/grierjones/DDCASPT2/ozone/ANO-RCC-VTZP/ozone_122.75/GMJ_RHS_H_M.csv

>>> COPY /tmp/ozone_122.75/GMJ_IVECW_H_M.csv /home/grierjones/DDCASPT2/ozone/ANO-RCC-VTZP/ozone_122.75/GMJ_IVECW_H_M.csv

>>> COPY /tmp/ozone_122.75/GMJ_IVECX_H_M.csv /home/grierjones/DDCASPT2/ozone/ANO-RCC-VTZP/ozone_122.75/GMJ_IVECX_H_M.csv

>>> COPY /tmp/ozone_122.75/GMJ_IVECC2_H_M.csv /home/grierjones/DDCASPT2/ozone/ANO-RCC-VTZP/ozone_122.75/GMJ_IVECC2_H_M.csv

>>> COPY /tmp/ozone_122.75/GMJ_e2_H_M.csv /home/grierjones/DDCASPT2/ozone/ANO-RCC-VTZP/ozone_122.75/GMJ_e2_H_M.csv

>>> END FOREACH

>>> END FOREACH

>>> EXPORT i = A

>>> IF (-FILE GMJ_e2_$i.csv)

>>> COPY /tmp/ozone_122.75/GMJ_RHS_A.csv /home/grierjones/DDCASPT2/ozone/ANO-RCC-VTZP/ozone_122.75/GMJ_RHS_A.csv

>>> COPY /tmp/ozone_122.75/GMJ_IVECW_A.csv /home/grierjones/DDCASPT2/ozone/ANO-RCC-VTZP/ozone_122.75/GMJ_IVECW_A.csv

>>> COPY /tmp/ozone_122.75/GMJ_IVECX_A.csv /home/grierjones/DDCASPT2/ozone/ANO-RCC-VTZP/ozone_122.75/GMJ_IVECX_A.csv

>>> COPY /tmp/ozone_122.75/GMJ_IVECC2_A.csv /home/grierjones/DDCASPT2/ozone/ANO-RCC-VTZP/ozone_122.75/GMJ_IVECC2_A.csv

>>> COPY /tmp/ozone_122.75/GMJ_e2_A.csv /home/grierjones/DDCASPT2/ozone/ANO-RCC-VTZP/ozone_122.75/GMJ_e2_A.csv

>>> END FOREACH

>>> EXPORT i = C

>>> IF (-FILE GMJ_e2_$i.csv)

>>> COPY /tmp/ozone_122.75/GMJ_RHS_C.csv /home/grierjones/DDCASPT2/ozone/ANO-RCC-VTZP/ozone_122.75/GMJ_RHS_C.csv

>>> COPY /tmp/ozone_122.75/GMJ_IVECW_C.csv /home/grierjones/DDCASPT2/ozone/ANO-RCC-VTZP/ozone_122.75/GMJ_IVECW_C.csv

>>> COPY /tmp/ozone_122.75/GMJ_IVECX_C.csv /home/grierjones/DDCASPT2/ozone/ANO-RCC-VTZP/ozone_122.75/GMJ_IVECX_C.csv

>>> COPY /tmp/ozone_122.75/GMJ_IVECC2_C.csv /home/grierjones/DDCASPT2/ozone/ANO-RCC-VTZP/ozone_122.75/GMJ_IVECC2_C.csv

>>> COPY /tmp/ozone_122.75/GMJ_e2_C.csv /home/grierjones/DDCASPT2/ozone/ANO-RCC-VTZP/ozone_122.75/GMJ_e2_C.csv

>>> END FOREACH

>>> EXPORT i = D

>>> IF (-FILE GMJ_e2_$i.csv)

>>> COPY /tmp/ozone_122.75/GMJ_RHS_D.csv /home/grierjones/DDCASPT2/ozone/ANO-RCC-VTZP/ozone_122.75/GMJ_RHS_D.csv

>>> COPY /tmp/ozone_122.75/GMJ_IVECW_D.csv /home/grierjones/DDCASPT2/ozone/ANO-RCC-VTZP/ozone_122.75/GMJ_IVECW_D.csv

>>> COPY /tmp/ozone_122.75/GMJ_IVECX_D.csv /home/grierjones/DDCASPT2/ozone/ANO-RCC-VTZP/ozone_122.75/GMJ_IVECX_D.csv

>>> COPY /tmp/ozone_122.75/GMJ_IVECC2_D.csv /home/grierjones/DDCASPT2/ozone/ANO-RCC-VTZP/ozone_122.75/GMJ_IVECC2_D.csv

>>> COPY /tmp/ozone_122.75/GMJ_e2_D.csv /home/grierjones/DDCASPT2/ozone/ANO-RCC-VTZP/ozone_122.75/GMJ_e2_D.csv

>>> END FOREACH

.########################.
.# Non-zero return code #.
.########################.

    Timing: Wall=16.92 User=9.17 System=7.75
********************************************
*** WorkDir at /tmp/ozone_122.75 cleaned ***
********************************************
