[Molden Format]
[N_Atoms]
                     2
[Atoms] (AU)
LI1         1      3           0.00000000      0.00000000      0.00000000
LI2         2      3           0.00000000      0.00000000      1.13383567
[Charge] (Mulliken)
   1.00000000145779     
  0.999999998542211     
[GTO] (AU)
   1
   s  14
  9.497934400E+03  9.668999974E-05
  1.416811200E+03  6.087099984E-04
  3.214599400E+02  3.101519992E-03
  9.112416300E+01  1.266904997E-02
  2.999989100E+01  4.248012989E-02
  1.101763100E+01  1.150183297E-01
  4.372801000E+00  2.398650094E-01
  1.831256000E+00  3.584300090E-01
  8.022610000E-01  3.048527792E-01
  3.626480000E-01  8.824261976E-02
  1.139950000E-01 -8.445899977E-04
  5.123700000E-02 -7.943959979E-03
  2.246800000E-02 -3.764419990E-03
  7.860000000E-03 -8.868999976E-05
   s  14
  9.497934400E+03 -1.244999993E-05
  1.416811200E+03 -7.838999954E-05
  3.214599400E+02 -4.007099976E-04
  9.112416300E+01 -1.645249990E-03
  2.999989100E+01 -5.634599967E-03
  1.101763100E+01 -1.590780991E-02
  4.372801000E+00 -3.612581979E-02
  1.831256000E+00 -6.459927962E-02
  8.022610000E-01 -1.008321794E-01
  3.626480000E-01 -9.757613942E-02
  1.139950000E-01  2.301215886E-01
  5.123700000E-02  6.102389764E-01
  2.246800000E-02  2.849406083E-01
  7.860000000E-03  4.026899976E-03
   p   9
  1.311950400E+01  1.524940000E-03
  3.077424200E+00  8.314830000E-03
  1.098800500E+00  1.933203000E-02
  4.357784000E-01  4.934293000E-02
  1.802432000E-01  1.623554000E-01
  7.613330000E-02  3.847505400E-01
  3.254650000E-02  4.336100400E-01
  1.401820000E-02  1.287005900E-01
  4.906400000E-03 -1.018520000E-03
 
   2
   s  14
  9.497934400E+03  9.668999974E-05
  1.416811200E+03  6.087099984E-04
  3.214599400E+02  3.101519992E-03
  9.112416300E+01  1.266904997E-02
  2.999989100E+01  4.248012989E-02
  1.101763100E+01  1.150183297E-01
  4.372801000E+00  2.398650094E-01
  1.831256000E+00  3.584300090E-01
  8.022610000E-01  3.048527792E-01
  3.626480000E-01  8.824261976E-02
  1.139950000E-01 -8.445899977E-04
  5.123700000E-02 -7.943959979E-03
  2.246800000E-02 -3.764419990E-03
  7.860000000E-03 -8.868999976E-05
   s  14
  9.497934400E+03 -1.244999993E-05
  1.416811200E+03 -7.838999954E-05
  3.214599400E+02 -4.007099976E-04
  9.112416300E+01 -1.645249990E-03
  2.999989100E+01 -5.634599967E-03
  1.101763100E+01 -1.590780991E-02
  4.372801000E+00 -3.612581979E-02
  1.831256000E+00 -6.459927962E-02
  8.022610000E-01 -1.008321794E-01
  3.626480000E-01 -9.757613942E-02
  1.139950000E-01  2.301215886E-01
  5.123700000E-02  6.102389764E-01
  2.246800000E-02  2.849406083E-01
  7.860000000E-03  4.026899976E-03
   p   9
  1.311950400E+01  1.524940000E-03
  3.077424200E+00  8.314830000E-03
  1.098800500E+00  1.933203000E-02
  4.357784000E-01  4.934293000E-02
  1.802432000E-01  1.623554000E-01
  7.613330000E-02  3.847505400E-01
  3.254650000E-02  4.336100400E-01
  1.401820000E-02  1.287005900E-01
  4.906400000E-03 -1.018520000E-03
 
[MO]
Sym=     1a  
Ene=    -4.2139
Spin= Alpha
Occup=    2.00000
   1         0.61596938
   2        -0.00502522
   3        -0.00000000
   4         0.00000000
   5        -0.06159017
   6         0.61597008
   7        -0.00502582
   8         0.00000000
   9        -0.00000000
  10         0.06159025
Sym=     2a  
Ene=    -2.9355
Spin= Alpha
Occup=    1.99996
   1        -0.73453055
   2         0.63156153
   3        -0.00000000
   4         0.00000000
   5         0.08622033
   6         0.73452996
   7        -0.63156152
   8         0.00000000
   9        -0.00000000
  10         0.08622028
Sym=     3a  
Ene=     0.0000
Spin= Alpha
Occup=    0.00004
   1        -0.32290373
   2        -0.01876310
   3        -0.00000000
   4         0.00000000
   5         2.44752303
   6        -0.32289761
   7        -0.01873687
   8         0.00000000
   9        -0.00000000
  10        -2.44752655
Sym=     4a  
Ene=    -0.4024
Spin= Alpha
Occup=    0.00000
   1         0.10138849
   2         0.56047241
   3        -0.00000000
   4         0.00000000
   5        -1.04323607
   6         0.10138789
   7         0.56047075
   8        -0.00000000
   9         0.00000000
  10         1.04323696
Sym=     5a  
Ene=    -0.3998
Spin= Alpha
Occup=    0.00000
   1         0.00000000
   2         0.00000000
   3         0.45940639
   4        -0.20939123
   5        -0.00000000
   6         0.00000000
   7         0.00000000
   8         0.45940639
   9        -0.20939123
  10         0.00000000
Sym=     6a  
Ene=    -0.3998
Spin= Alpha
Occup=    0.00000
   1         0.00000000
   2         0.00000000
   3         0.20939123
   4         0.45940639
   5        -0.00000000
   6         0.00000000
   7         0.00000000
   8         0.20939123
   9         0.45940639
  10         0.00000000
Sym=     7a  
Ene=    -0.3478
Spin= Alpha
Occup=    0.00000
   1         0.03013956
   2        -0.60030220
   3        -0.00000000
   4        -0.00000000
   5         0.44797887
   6        -0.03013984
   7         0.60030145
   8        -0.00000000
   9        -0.00000000
  10         0.44797637
Sym=     8a  
Ene=    -0.1928
Spin= Alpha
Occup=    0.00000
   1        -0.00000000
   2        -0.00000000
   3        -0.02089656
   4        -3.60658808
   5         0.00000000
   6        -0.00000000
   7        -0.00000000
   8         0.02089656
   9         3.60658808
  10        -0.00000000
Sym=     9a  
Ene=    -0.1928
Spin= Alpha
Occup=    0.00000
   1         0.00000000
   2         0.00000000
   3        -3.60658808
   4         0.02089656
   5        -0.00000000
   6         0.00000000
   7        -0.00000000
   8         3.60658808
   9        -0.02089656
  10         0.00000000
Sym=    10a  
Ene=     1.2655
Spin= Alpha
Occup=    0.00000
   1        -2.95444466
   2       -12.81889117
   3        -0.00000000
   4        -0.00000000
   5        -1.60165337
   6         2.95444534
   7        12.81889132
   8         0.00000000
   9         0.00000000
  10        -1.60164811
