[Molden Format]
[N_Atoms]
                     2
[Atoms] (AU)
LI1         1      3           0.00000000      0.00000000      0.00000000
LI2         2      3           0.00000000      0.00000000      1.13383567
[Charge] (Mulliken)
  1.731947918415244E-013
 -1.714184350021242E-013
[GTO] (AU)
   1
   s  14
  9.497934400E+03  9.668999974E-05
  1.416811200E+03  6.087099984E-04
  3.214599400E+02  3.101519992E-03
  9.112416300E+01  1.266904997E-02
  2.999989100E+01  4.248012989E-02
  1.101763100E+01  1.150183297E-01
  4.372801000E+00  2.398650094E-01
  1.831256000E+00  3.584300090E-01
  8.022610000E-01  3.048527792E-01
  3.626480000E-01  8.824261976E-02
  1.139950000E-01 -8.445899977E-04
  5.123700000E-02 -7.943959979E-03
  2.246800000E-02 -3.764419990E-03
  7.860000000E-03 -8.868999976E-05
   s  14
  9.497934400E+03 -1.244999993E-05
  1.416811200E+03 -7.838999954E-05
  3.214599400E+02 -4.007099976E-04
  9.112416300E+01 -1.645249990E-03
  2.999989100E+01 -5.634599967E-03
  1.101763100E+01 -1.590780991E-02
  4.372801000E+00 -3.612581979E-02
  1.831256000E+00 -6.459927962E-02
  8.022610000E-01 -1.008321794E-01
  3.626480000E-01 -9.757613942E-02
  1.139950000E-01  2.301215886E-01
  5.123700000E-02  6.102389764E-01
  2.246800000E-02  2.849406083E-01
  7.860000000E-03  4.026899976E-03
   p   9
  1.311950400E+01  1.524940000E-03
  3.077424200E+00  8.314830000E-03
  1.098800500E+00  1.933203000E-02
  4.357784000E-01  4.934293000E-02
  1.802432000E-01  1.623554000E-01
  7.613330000E-02  3.847505400E-01
  3.254650000E-02  4.336100400E-01
  1.401820000E-02  1.287005900E-01
  4.906400000E-03 -1.018520000E-03
 
   2
   s  14
  9.497934400E+03  9.668999974E-05
  1.416811200E+03  6.087099984E-04
  3.214599400E+02  3.101519992E-03
  9.112416300E+01  1.266904997E-02
  2.999989100E+01  4.248012989E-02
  1.101763100E+01  1.150183297E-01
  4.372801000E+00  2.398650094E-01
  1.831256000E+00  3.584300090E-01
  8.022610000E-01  3.048527792E-01
  3.626480000E-01  8.824261976E-02
  1.139950000E-01 -8.445899977E-04
  5.123700000E-02 -7.943959979E-03
  2.246800000E-02 -3.764419990E-03
  7.860000000E-03 -8.868999976E-05
   s  14
  9.497934400E+03 -1.244999993E-05
  1.416811200E+03 -7.838999954E-05
  3.214599400E+02 -4.007099976E-04
  9.112416300E+01 -1.645249990E-03
  2.999989100E+01 -5.634599967E-03
  1.101763100E+01 -1.590780991E-02
  4.372801000E+00 -3.612581979E-02
  1.831256000E+00 -6.459927962E-02
  8.022610000E-01 -1.008321794E-01
  3.626480000E-01 -9.757613942E-02
  1.139950000E-01  2.301215886E-01
  5.123700000E-02  6.102389764E-01
  2.246800000E-02  2.849406083E-01
  7.860000000E-03  4.026899976E-03
   p   9
  1.311950400E+01  1.524940000E-03
  3.077424200E+00  8.314830000E-03
  1.098800500E+00  1.933203000E-02
  4.357784000E-01  4.934293000E-02
  1.802432000E-01  1.623554000E-01
  7.613330000E-02  3.847505400E-01
  3.254650000E-02  4.336100400E-01
  1.401820000E-02  1.287005900E-01
  4.906400000E-03 -1.018520000E-03
 
[MO]
Sym=     1a  
Ene=    -3.5959
Spin= Alpha
Occup=    2.00000
   1         0.61641742
   2        -0.00653025
   3        -0.00000000
   4         0.00000000
   5        -0.06425454
   6         0.61641742
   7        -0.00653025
   8         0.00000000
   9        -0.00000000
  10         0.06425454
Sym=     2a  
Ene=    -2.3178
Spin= Alpha
Occup=    2.00000
   1        -0.72477710
   2         0.67129733
   3        -0.00000000
   4         0.00000000
   5         0.09300080
   6         0.72477710
   7        -0.67129733
   8         0.00000000
   9        -0.00000000
  10         0.09300080
Sym=     3a  
Ene=    -0.2450
Spin= Alpha
Occup=    1.85660
   1        -0.05672858
   2         0.48870167
   3        -0.00000000
   4         0.00000000
   5         0.20229152
   6        -0.05672858
   7         0.48870167
   8         0.00000000
   9        -0.00000000
  10        -0.20229152
Sym=     4a  
Ene=    -0.0000
Spin= Alpha
Occup=    0.14340
   1        -0.00000000
   2        -0.00000000
   3         0.46626621
   4        -0.19363558
   5        -0.00000000
   6         0.00000000
   7         0.00000000
   8         0.46626621
   9        -0.19363558
  10         0.00000000
Sym=     5a  
Ene=    -0.0176
Spin= Alpha
Occup=    0.00000
   1         0.00000000
   2        -0.00000000
   3         0.19363558
   4         0.46626621
   5         0.00000000
   6         0.00000000
   7         0.00000000
   8         0.19363558
   9         0.46626621
  10         0.00000000
Sym=     6a  
Ene=     0.0240
Spin= Alpha
Occup=    0.00000
   1        -0.00719936
   2        -0.77532859
   3        -0.00000000
   4         0.00000000
   5         0.42603326
   6         0.00719936
   7         0.77532859
   8         0.00000000
   9        -0.00000000
  10         0.42603326
Sym=     7a  
Ene=     0.2204
Spin= Alpha
Occup=    0.00000
   1        -0.00000000
   2         0.00000000
   3        -1.38326375
   4        -3.33084008
   5         0.00000000
   6        -0.00000000
   7        -0.00000000
   8         1.38326375
   9         3.33084008
  10        -0.00000000
Sym=     8a  
Ene=     0.2206
Spin= Alpha
Occup=    0.00000
   1         0.00000000
   2         0.00000000
   3        -3.33084008
   4         1.38326375
   5        -0.00000000
   6         0.00000000
   7        -0.00000000
   8         3.33084008
   9        -1.38326375
  10         0.00000000
Sym=     9a  
Ene=     0.2718
Spin= Alpha
Occup=    0.00000
   1         0.33282811
   2         0.27501500
   3         0.00000000
   4        -0.00000000
   5        -2.65282168
   6         0.33282811
   7         0.27501500
   8        -0.00000000
   9         0.00000000
  10         2.65282168
Sym=    10a  
Ene=     1.8093
Spin= Alpha
Occup=    0.00000
   1        -2.95699758
   2       -12.80747557
   3        -0.00000000
   4        -0.00000000
   5        -1.60724905
   6         2.95699758
   7        12.80747557
   8         0.00000000
   9         0.00000000
  10        -1.60724905
