[Molden Format]
[N_Atoms]
                     2
[Atoms] (AU)
LI1         1      3           0.00000000      0.00000000      0.00000000
LI2         2      3           0.00000000      0.00000000      1.13383567
[Charge] (Mulliken)
 -2.664535259100376E-015
 -1.776356839400250E-015
[GTO] (AU)
   1
   s  14
  9.497934400E+03  9.668999974E-05
  1.416811200E+03  6.087099984E-04
  3.214599400E+02  3.101519992E-03
  9.112416300E+01  1.266904997E-02
  2.999989100E+01  4.248012989E-02
  1.101763100E+01  1.150183297E-01
  4.372801000E+00  2.398650094E-01
  1.831256000E+00  3.584300090E-01
  8.022610000E-01  3.048527792E-01
  3.626480000E-01  8.824261976E-02
  1.139950000E-01 -8.445899977E-04
  5.123700000E-02 -7.943959979E-03
  2.246800000E-02 -3.764419990E-03
  7.860000000E-03 -8.868999976E-05
   s  14
  9.497934400E+03 -1.244999993E-05
  1.416811200E+03 -7.838999954E-05
  3.214599400E+02 -4.007099976E-04
  9.112416300E+01 -1.645249990E-03
  2.999989100E+01 -5.634599967E-03
  1.101763100E+01 -1.590780991E-02
  4.372801000E+00 -3.612581979E-02
  1.831256000E+00 -6.459927962E-02
  8.022610000E-01 -1.008321794E-01
  3.626480000E-01 -9.757613942E-02
  1.139950000E-01  2.301215886E-01
  5.123700000E-02  6.102389764E-01
  2.246800000E-02  2.849406083E-01
  7.860000000E-03  4.026899976E-03
   p   9
  1.311950400E+01  1.524940000E-03
  3.077424200E+00  8.314830000E-03
  1.098800500E+00  1.933203000E-02
  4.357784000E-01  4.934293000E-02
  1.802432000E-01  1.623554000E-01
  7.613330000E-02  3.847505400E-01
  3.254650000E-02  4.336100400E-01
  1.401820000E-02  1.287005900E-01
  4.906400000E-03 -1.018520000E-03
 
   2
   s  14
  9.497934400E+03  9.668999974E-05
  1.416811200E+03  6.087099984E-04
  3.214599400E+02  3.101519992E-03
  9.112416300E+01  1.266904997E-02
  2.999989100E+01  4.248012989E-02
  1.101763100E+01  1.150183297E-01
  4.372801000E+00  2.398650094E-01
  1.831256000E+00  3.584300090E-01
  8.022610000E-01  3.048527792E-01
  3.626480000E-01  8.824261976E-02
  1.139950000E-01 -8.445899977E-04
  5.123700000E-02 -7.943959979E-03
  2.246800000E-02 -3.764419990E-03
  7.860000000E-03 -8.868999976E-05
   s  14
  9.497934400E+03 -1.244999993E-05
  1.416811200E+03 -7.838999954E-05
  3.214599400E+02 -4.007099976E-04
  9.112416300E+01 -1.645249990E-03
  2.999989100E+01 -5.634599967E-03
  1.101763100E+01 -1.590780991E-02
  4.372801000E+00 -3.612581979E-02
  1.831256000E+00 -6.459927962E-02
  8.022610000E-01 -1.008321794E-01
  3.626480000E-01 -9.757613942E-02
  1.139950000E-01  2.301215886E-01
  5.123700000E-02  6.102389764E-01
  2.246800000E-02  2.849406083E-01
  7.860000000E-03  4.026899976E-03
   p   9
  1.311950400E+01  1.524940000E-03
  3.077424200E+00  8.314830000E-03
  1.098800500E+00  1.933203000E-02
  4.357784000E-01  4.934293000E-02
  1.802432000E-01  1.623554000E-01
  7.613330000E-02  3.847505400E-01
  3.254650000E-02  4.336100400E-01
  1.401820000E-02  1.287005900E-01
  4.906400000E-03 -1.018520000E-03
 
[MO]
Sym=     1a  
Ene=    -3.5925
Spin= Alpha
Occup=    1.00000
   1         0.61623054
   2        -0.00488394
   3        -0.00000000
   4         0.00000000
   5        -0.06363107
   6         0.61623054
   7        -0.00488394
   8         0.00000000
   9        -0.00000000
  10         0.06363107
Sym=     1a  
Ene=    -3.5925
Spin= Beta
Occup=    1.00000
   1         0.61623054
   2        -0.00488394
   3        -0.00000000
   4         0.00000000
   5        -0.06363107
   6         0.61623054
   7        -0.00488394
   8         0.00000000
   9        -0.00000000
  10         0.06363107
Sym=     2a  
Ene=    -2.3141
Spin= Alpha
Occup=    1.00000
   1        -0.72490428
   2         0.67069856
   3        -0.00000000
   4         0.00000000
   5         0.09295936
   6         0.72490428
   7        -0.67069856
   8         0.00000000
   9        -0.00000000
  10         0.09295936
Sym=     2a  
Ene=    -2.3141
Spin= Beta
Occup=    1.00000
   1        -0.72490428
   2         0.67069856
   3        -0.00000000
   4         0.00000000
   5         0.09295936
   6         0.72490428
   7        -0.67069856
   8         0.00000000
   9        -0.00000000
  10         0.09295936
Sym=     3a  
Ene=    -0.2560
Spin= Alpha
Occup=    1.00000
   1        -0.05519717
   2         0.49166448
   3        -0.00000000
   4         0.00000000
   5         0.17382430
   6        -0.05519717
   7         0.49166448
   8         0.00000000
   9        -0.00000000
  10        -0.17382430
Sym=     3a  
Ene=    -0.2560
Spin= Beta
Occup=    1.00000
   1        -0.05519717
   2         0.49166448
   3        -0.00000000
   4         0.00000000
   5         0.17382430
   6        -0.05519717
   7         0.49166448
   8         0.00000000
   9        -0.00000000
  10        -0.17382430
Sym=     4a  
Ene=    -0.0172
Spin= Alpha
Occup=    0.00000
   1        -0.00000000
   2        -0.00000000
   3         0.46626621
   4        -0.19363558
   5         0.00000000
   6         0.00000000
   7         0.00000000
   8         0.46626621
   9        -0.19363558
  10         0.00000000
Sym=     4a  
Ene=    -0.0172
Spin= Beta
Occup=    0.00000
   1        -0.00000000
   2        -0.00000000
   3         0.46626621
   4        -0.19363558
   5         0.00000000
   6         0.00000000
   7         0.00000000
   8         0.46626621
   9        -0.19363558
  10         0.00000000
Sym=     5a  
Ene=    -0.0172
Spin= Alpha
Occup=    0.00000
   1         0.00000000
   2        -0.00000000
   3         0.19363558
   4         0.46626621
   5         0.00000000
   6         0.00000000
   7         0.00000000
   8         0.19363558
   9         0.46626621
  10         0.00000000
Sym=     5a  
Ene=    -0.0172
Spin= Beta
Occup=    0.00000
   1         0.00000000
   2        -0.00000000
   3         0.19363558
   4         0.46626621
   5         0.00000000
   6         0.00000000
   7         0.00000000
   8         0.19363558
   9         0.46626621
  10         0.00000000
Sym=     6a  
Ene=     0.0242
Spin= Alpha
Occup=    0.00000
   1        -0.00721965
   2        -0.77566180
   3        -0.00000000
   4        -0.00000000
   5         0.42599088
   6         0.00721965
   7         0.77566180
   8         0.00000000
   9        -0.00000000
  10         0.42599088
Sym=     6a  
Ene=     0.0242
Spin= Beta
Occup=    0.00000
   1        -0.00721965
   2        -0.77566180
   3        -0.00000000
   4        -0.00000000
   5         0.42599088
   6         0.00721965
   7         0.77566180
   8         0.00000000
   9        -0.00000000
  10         0.42599088
Sym=     7a  
Ene=     0.2228
Spin= Alpha
Occup=    0.00000
   1        -0.00000000
   2        -0.00000000
   3        -0.01837158
   4        -3.60660182
   5         0.00000000
   6        -0.00000000
   7        -0.00000000
   8         0.01837158
   9         3.60660182
  10        -0.00000000
Sym=     7a  
Ene=     0.2228
Spin= Beta
Occup=    0.00000
   1        -0.00000000
   2        -0.00000000
   3        -0.01837158
   4        -3.60660182
   5         0.00000000
   6        -0.00000000
   7        -0.00000000
   8         0.01837158
   9         3.60660182
  10        -0.00000000
Sym=     8a  
Ene=     0.2228
Spin= Alpha
Occup=    0.00000
   1         0.00000000
   2         0.00000000
   3        -3.60660182
   4         0.01837158
   5        -0.00000000
   6         0.00000000
   7        -0.00000000
   8         3.60660182
   9        -0.01837158
  10         0.00000000
Sym=     8a  
Ene=     0.2228
Spin= Beta
Occup=    0.00000
   1         0.00000000
   2         0.00000000
   3        -3.60660182
   4         0.01837158
   5        -0.00000000
   6         0.00000000
   7        -0.00000000
   8         3.60660182
   9        -0.01837158
  10         0.00000000
Sym=     9a  
Ene=     0.2741
Spin= Alpha
Occup=    0.00000
   1         0.33343113
   2         0.26971727
   3         0.00000000
   4        -0.00000000
   5        -2.65485397
   6         0.33343113
   7         0.26971727
   8        -0.00000000
   9         0.00000000
  10         2.65485397
Sym=     9a  
Ene=     0.2741
Spin= Beta
Occup=    0.00000
   1         0.33343113
   2         0.26971727
   3         0.00000000
   4        -0.00000000
   5        -2.65485397
   6         0.33343113
   7         0.26971727
   8        -0.00000000
   9         0.00000000
  10         2.65485397
Sym=    10a  
Ene=     1.8126
Spin= Alpha
Occup=    0.00000
   1        -2.95696635
   2       -12.80748676
   3        -0.00000000
   4        -0.00000000
   5        -1.60726268
   6         2.95696635
   7        12.80748676
   8         0.00000000
   9         0.00000000
  10        -1.60726268
Sym=    10a  
Ene=     1.8126
Spin= Beta
Occup=    0.00000
   1        -2.95696635
   2       -12.80748676
   3        -0.00000000
   4        -0.00000000
   5        -1.60726268
   6         2.95696635
   7        12.80748676
   8         0.00000000
   9         0.00000000
  10        -1.60726268
