[Molden Format]
[N_Atoms]
                     2
[Atoms] (AU)
N1          1      7           0.00000000      0.00000000      0.00000000
N2          2      7           0.00000000      0.00000000      4.72431531
[Charge] (Mulliken)
 -1.539628756006550E-003
  1.539628755999445E-003
[GTO] (AU)
   1
   s  14
  7.476171500E+04  1.182599996E-04
  1.112365400E+04  5.172899983E-04
  2.512685700E+03  2.266659992E-03
  7.037772900E+02  9.145289970E-03
  2.254787900E+02  3.239342989E-02
  7.961581000E+01  9.770792967E-02
  3.023728300E+01  2.317036792E-01
  1.226362200E+01  3.768898887E-01
  5.265086000E+00  3.177420689E-01
  2.333471000E+00  8.211308973E-02
  9.018560000E-01  3.312089989E-03
  3.583360000E-01  3.720819988E-03
  1.410930000E-01  3.165419989E-03
  4.938300000E-02  4.595799985E-04
   s  14
  7.476171500E+04 -2.707000010E-05
  1.112365400E+04 -1.183700004E-04
  2.512685700E+03 -5.203800020E-04
  7.037772900E+02 -2.102930008E-03
  2.254787900E+02 -7.568200028E-03
  7.961581000E+01 -2.346767009E-02
  3.023728300E+01 -6.042901023E-02
  1.226362200E+01 -1.170549104E-01
  5.265086000E+00 -1.555321506E-01
  2.333471000E+00 -2.468935009E-02
  9.018560000E-01  3.625054514E-01
  3.583360000E-01  5.550845021E-01
  1.410930000E-01  2.148376908E-01
  4.938300000E-02  8.983850034E-03
   p   9
  1.266665700E+02  1.233630000E-03
  2.983738900E+01  9.493409996E-03
  9.394038000E+00  4.293961998E-02
  3.405104000E+00  1.362925399E-01
  1.350000000E+00  2.921362499E-01
  5.576960000E-01  3.887887598E-01
  2.324490000E-01  2.946801399E-01
  9.426400000E-02  8.012875997E-02
  3.299200000E-02  5.405199998E-04
 
   2
   s  14
  7.476171500E+04  1.182599996E-04
  1.112365400E+04  5.172899983E-04
  2.512685700E+03  2.266659992E-03
  7.037772900E+02  9.145289970E-03
  2.254787900E+02  3.239342989E-02
  7.961581000E+01  9.770792967E-02
  3.023728300E+01  2.317036792E-01
  1.226362200E+01  3.768898887E-01
  5.265086000E+00  3.177420689E-01
  2.333471000E+00  8.211308973E-02
  9.018560000E-01  3.312089989E-03
  3.583360000E-01  3.720819988E-03
  1.410930000E-01  3.165419989E-03
  4.938300000E-02  4.595799985E-04
   s  14
  7.476171500E+04 -2.707000010E-05
  1.112365400E+04 -1.183700004E-04
  2.512685700E+03 -5.203800020E-04
  7.037772900E+02 -2.102930008E-03
  2.254787900E+02 -7.568200028E-03
  7.961581000E+01 -2.346767009E-02
  3.023728300E+01 -6.042901023E-02
  1.226362200E+01 -1.170549104E-01
  5.265086000E+00 -1.555321506E-01
  2.333471000E+00 -2.468935009E-02
  9.018560000E-01  3.625054514E-01
  3.583360000E-01  5.550845021E-01
  1.410930000E-01  2.148376908E-01
  4.938300000E-02  8.983850034E-03
   p   9
  1.266665700E+02  1.233630000E-03
  2.983738900E+01  9.493409996E-03
  9.394038000E+00  4.293961998E-02
  3.405104000E+00  1.362925399E-01
  1.350000000E+00  2.921362499E-01
  5.576960000E-01  3.887887598E-01
  2.324490000E-01  2.946801399E-01
  9.426400000E-02  8.012875997E-02
  3.299200000E-02  5.405199998E-04
 
[MO]
Sym=     1a  
Ene=   -15.5860
Spin= Alpha
Occup=    2.00000
   1         0.99940710
   2        -0.00578867
   3        -0.00000000
   4        -0.00000000
   5         0.00039352
   6         0.03394346
   7        -0.00089919
   8         0.00000000
   9         0.00000000
  10         0.00014768
Sym=     2a  
Ene=   -15.5850
Spin= Alpha
Occup=    2.00000
   1        -0.03397924
   2         0.00044769
   3         0.00000000
   4        -0.00000000
   5         0.00037467
   6         0.99923137
   7        -0.01941286
   8        -0.00000000
   9        -0.00000000
  10        -0.00166441
Sym=     3a  
Ene=    -0.9334
Spin= Alpha
Occup=    2.00000
   1        -0.00554149
   2        -0.99450740
   3        -0.00000000
   4        -0.00000000
   5         0.00089835
   6         0.00165705
   7        -0.00581118
   8         0.00000000
   9         0.00000000
  10         0.04994938
Sym=     4a  
Ene=    -0.4316
Spin= Alpha
Occup=    2.00000
   1        -0.00000000
   2        -0.00000000
   3        -0.00179751
   4         0.02756718
   5         0.00000000
   6         0.00000000
   7         0.00000000
   8        -0.06499021
   9         0.99670960
  10        -0.00000000
Sym=     5a  
Ene=    -0.4310
Spin= Alpha
Occup=    2.00000
   1        -0.00000000
   2        -0.00000000
   3         0.99679440
   4         0.06499574
   5         0.00000000
   6        -0.00000000
   7         0.00000000
   8         0.02604017
   9         0.00169794
  10        -0.00000000
Sym=     6a  
Ene=    -0.3286
Spin= Alpha
Occup=    2.00000
   1         0.00412940
   2         0.09193988
   3         0.00000000
   4         0.00000000
   5        -0.67522456
   6         0.00296840
   7        -0.05608159
   8         0.00000000
   9         0.00000000
  10         0.66673293
Sym=     7a  
Ene=    -0.9146
Spin= Alpha
Occup=    1.96646
   1        -0.00146381
   2        -0.03888453
   3        -0.00000000
   4        -0.00000000
   5        -0.04676002
   6         0.01979917
   7         0.99785928
   8         0.00000000
   9        -0.00000000
  10         0.09820368
Sym=     8a  
Ene=    -0.0000
Spin= Alpha
Occup=    0.03354
   1        -0.00000000
   2        -0.00000000
   3        -0.05465635
   4        -0.00356385
   5        -0.00000000
   6         0.00000000
   7         0.00000000
   8         0.99795206
   9         0.06507122
  10        -0.00000000
Sym=     9a  
Ene=     0.0233
Spin= Alpha
Occup=    0.00000
   1         0.00415227
   2         0.09796581
   3        -0.00000000
   4         0.00000000
   5         0.74772958
   6        -0.00415211
   7        -0.09675330
   8         0.00000000
   9         0.00000000
  10         0.74869276
Sym=    10a  
Ene=     0.1142
Spin= Alpha
Occup=    0.00000
   1        -0.00000000
   2         0.00000000
   3         0.06506855
   4        -0.99791104
   5         0.00000000
   6        -0.00000000
   7        -0.00000000
   8        -0.00366330
   9         0.05618155
  10         0.00000000
