[Molden Format]
[N_Atoms]
                     2
[Atoms] (AU)
N1          1      7           0.00000000      0.00000000      0.00000000
N2          2      7           0.00000000      0.00000000      4.72431531
[Charge] (Mulliken)
   1.00000093115361     
  0.999999068846359     
[GTO] (AU)
   1
   s  14
  7.476171500E+04  1.182599996E-04
  1.112365400E+04  5.172899983E-04
  2.512685700E+03  2.266659992E-03
  7.037772900E+02  9.145289970E-03
  2.254787900E+02  3.239342989E-02
  7.961581000E+01  9.770792967E-02
  3.023728300E+01  2.317036792E-01
  1.226362200E+01  3.768898887E-01
  5.265086000E+00  3.177420689E-01
  2.333471000E+00  8.211308973E-02
  9.018560000E-01  3.312089989E-03
  3.583360000E-01  3.720819988E-03
  1.410930000E-01  3.165419989E-03
  4.938300000E-02  4.595799985E-04
   s  14
  7.476171500E+04 -2.707000010E-05
  1.112365400E+04 -1.183700004E-04
  2.512685700E+03 -5.203800020E-04
  7.037772900E+02 -2.102930008E-03
  2.254787900E+02 -7.568200028E-03
  7.961581000E+01 -2.346767009E-02
  3.023728300E+01 -6.042901023E-02
  1.226362200E+01 -1.170549104E-01
  5.265086000E+00 -1.555321506E-01
  2.333471000E+00 -2.468935009E-02
  9.018560000E-01  3.625054514E-01
  3.583360000E-01  5.550845021E-01
  1.410930000E-01  2.148376908E-01
  4.938300000E-02  8.983850034E-03
   p   9
  1.266665700E+02  1.233630000E-03
  2.983738900E+01  9.493409996E-03
  9.394038000E+00  4.293961998E-02
  3.405104000E+00  1.362925399E-01
  1.350000000E+00  2.921362499E-01
  5.576960000E-01  3.887887598E-01
  2.324490000E-01  2.946801399E-01
  9.426400000E-02  8.012875997E-02
  3.299200000E-02  5.405199998E-04
 
   2
   s  14
  7.476171500E+04  1.182599996E-04
  1.112365400E+04  5.172899983E-04
  2.512685700E+03  2.266659992E-03
  7.037772900E+02  9.145289970E-03
  2.254787900E+02  3.239342989E-02
  7.961581000E+01  9.770792967E-02
  3.023728300E+01  2.317036792E-01
  1.226362200E+01  3.768898887E-01
  5.265086000E+00  3.177420689E-01
  2.333471000E+00  8.211308973E-02
  9.018560000E-01  3.312089989E-03
  3.583360000E-01  3.720819988E-03
  1.410930000E-01  3.165419989E-03
  4.938300000E-02  4.595799985E-04
   s  14
  7.476171500E+04 -2.707000010E-05
  1.112365400E+04 -1.183700004E-04
  2.512685700E+03 -5.203800020E-04
  7.037772900E+02 -2.102930008E-03
  2.254787900E+02 -7.568200028E-03
  7.961581000E+01 -2.346767009E-02
  3.023728300E+01 -6.042901023E-02
  1.226362200E+01 -1.170549104E-01
  5.265086000E+00 -1.555321506E-01
  2.333471000E+00 -2.468935009E-02
  9.018560000E-01  3.625054514E-01
  3.583360000E-01  5.550845021E-01
  1.410930000E-01  2.148376908E-01
  4.938300000E-02  8.983850034E-03
   p   9
  1.266665700E+02  1.233630000E-03
  2.983738900E+01  9.493409996E-03
  9.394038000E+00  4.293961998E-02
  3.405104000E+00  1.362925399E-01
  1.350000000E+00  2.921362499E-01
  5.576960000E-01  3.887887598E-01
  2.324490000E-01  2.946801399E-01
  9.426400000E-02  8.012875997E-02
  3.299200000E-02  5.405199998E-04
 
[MO]
Sym=     1a  
Ene=   -16.7240
Spin= Alpha
Occup=    2.00000
   1        -0.00130263
   2        -0.00017694
   3         0.00000000
   4        -0.00000000
   5        -0.00018854
   6         0.99997147
   7        -0.00761107
   8         0.00000000
   9        -0.00000000
  10         0.00008832
Sym=     2a  
Ene=   -16.7200
Spin= Alpha
Occup=    2.00000
   1        -0.99979135
   2         0.02039503
   3        -0.00000000
   4         0.00000000
   5         0.00063717
   6        -0.00129161
   7        -0.00028130
   8        -0.00000000
   9         0.00000000
  10        -0.00021195
Sym=     3a  
Ene=    -1.7423
Spin= Alpha
Occup=    2.00000
   1         0.00196908
   2         0.01380543
   3        -0.00000000
   4         0.00000000
   5        -0.00247934
   6        -0.00764611
   7        -0.99914244
   8        -0.00000000
   9         0.00000000
  10         0.04932549
Sym=     4a  
Ene=    -1.2613
Spin= Alpha
Occup=    2.00000
   1         0.00000000
   2        -0.00000000
   3        -0.00373694
   4         0.01154152
   5        -0.00000000
   6         0.00000000
   7         0.00000000
   8        -0.30966586
   9         0.95040212
  10         0.00000002
Sym=     5a  
Ene=    -1.2597
Spin= Alpha
Occup=    2.00000
   1         0.00000000
   2         0.00000000
   3         0.95039128
   4         0.30966742
   5         0.00000000
   6        -0.00000000
   7        -0.00000000
   8         0.01176968
   9         0.00381107
  10        -0.00000000
Sym=     6a  
Ene=    -0.7345
Spin= Alpha
Occup=    0.03645
   1        -0.00007768
   2         0.03850470
   3         0.00000000
   4        -0.00000000
   5        -1.00457427
   6         0.00532872
   7         0.08449883
   8         0.00000000
   9        -0.00000000
  10        -0.02669045
Sym=     7a  
Ene=    -0.1922
Spin= Alpha
Occup=    1.96355
   1        -0.02048513
   2        -0.99990217
   3         0.00000000
   4        -0.00000000
   5        -0.04440243
   6         0.00217027
   7         0.04033325
   8         0.00000000
   9        -0.00000000
  10         0.00121686
Sym=     8a  
Ene=    -0.7216
Spin= Alpha
Occup=    0.00000
   1         0.00532220
   2         0.08214245
   3         0.00000001
   4        -0.00000002
   5         0.07789549
   6        -0.00033008
   7         0.03912124
   8         0.00000001
   9        -0.00000001
  10         1.00700964
Sym=     9a  
Ene=    -0.7161
Spin= Alpha
Occup=    0.00000
   1         0.00000000
   2         0.00000000
   3         0.03903072
   4         0.01275336
   5         0.00000000
   6        -0.00000000
   7         0.00000000
   8        -0.95112108
   9        -0.30990188
  10         0.00000000
Sym=    10a  
Ene=    -0.7146
Spin= Alpha
Occup=    0.00000
   1        -0.00000000
   2        -0.00000000
   3         0.30990740
   4        -0.95112238
   5         0.00000000
   6        -0.00000000
   7        -0.00000000
   8        -0.01267904
   9         0.03880281
  10        -0.00000002
