[Molden Format]
[N_Atoms]
                     2
[Atoms] (AU)
B1          1      5           0.00000000      0.00000000      0.00000000
N2          2      7           0.00000000      0.00000000      2.64561657
[Charge] (Mulliken)
  0.286734939256326     
 -0.286734939256325     
[GTO] (AU)
   1
   s  14
  3.336021700E+04  1.039699991E-04
  4.972095200E+03  5.254399956E-04
  1.125641700E+03  2.509059979E-03
  3.164913600E+02  1.031887991E-02
  1.020072600E+02  3.636632969E-02
  3.629587300E+01  1.064607991E-01
  1.397141000E+01  2.403999880E-01
  5.741156000E+00  3.748581168E-01
  2.494268000E+00  3.100066974E-01
  1.114202000E+00  7.922455933E-02
  4.215490000E-01 -4.947589958E-03
  1.696330000E-01 -7.737119935E-03
  6.853500000E-02 -1.501079987E-03
  2.398700000E-02 -1.333299989E-04
   s  14
  3.336021700E+04 -2.030000008E-05
  4.972095200E+03 -1.025700004E-04
  1.125641700E+03 -4.911300020E-04
  3.164913600E+02 -2.026570008E-03
  1.020072600E+02 -7.261010030E-03
  3.629587300E+01 -2.197722009E-02
  1.397141000E+01 -5.408428022E-02
  5.741156000E+00 -1.022402604E-01
  2.494268000E+00 -1.423595206E-01
  1.114202000E+00 -4.658690019E-02
  4.215490000E-01  3.799402916E-01
  1.696330000E-01  5.890463624E-01
  6.853500000E-02  1.749075107E-01
  2.398700000E-02 -1.142030005E-03
   p   9
  5.500000000E+01  1.229800005E-03
  1.336610100E+01  8.827380035E-03
  4.135394000E+00  3.843340015E-02
  1.481256000E+00  1.150031805E-01
  6.021360000E-01  2.733674011E-01
  2.556360000E-01  4.061972116E-01
  1.111510000E-01  3.014967912E-01
  4.764800000E-02  7.684809030E-02
  1.667700000E-02 -8.170000032E-06
 
   2
   s  14
  7.476171500E+04  1.182599996E-04
  1.112365400E+04  5.172899983E-04
  2.512685700E+03  2.266659992E-03
  7.037772900E+02  9.145289970E-03
  2.254787900E+02  3.239342989E-02
  7.961581000E+01  9.770792967E-02
  3.023728300E+01  2.317036792E-01
  1.226362200E+01  3.768898887E-01
  5.265086000E+00  3.177420689E-01
  2.333471000E+00  8.211308973E-02
  9.018560000E-01  3.312089989E-03
  3.583360000E-01  3.720819988E-03
  1.410930000E-01  3.165419989E-03
  4.938300000E-02  4.595799985E-04
   s  14
  7.476171500E+04 -2.707000010E-05
  1.112365400E+04 -1.183700004E-04
  2.512685700E+03 -5.203800020E-04
  7.037772900E+02 -2.102930008E-03
  2.254787900E+02 -7.568200028E-03
  7.961581000E+01 -2.346767009E-02
  3.023728300E+01 -6.042901023E-02
  1.226362200E+01 -1.170549104E-01
  5.265086000E+00 -1.555321506E-01
  2.333471000E+00 -2.468935009E-02
  9.018560000E-01  3.625054514E-01
  3.583360000E-01  5.550845021E-01
  1.410930000E-01  2.148376908E-01
  4.938300000E-02  8.983850034E-03
   p   9
  1.266665700E+02  1.233630000E-03
  2.983738900E+01  9.493409996E-03
  9.394038000E+00  4.293961998E-02
  3.405104000E+00  1.362925399E-01
  1.350000000E+00  2.921362499E-01
  5.576960000E-01  3.887887598E-01
  2.324490000E-01  2.946801399E-01
  9.426400000E-02  8.012875997E-02
  3.299200000E-02  5.405199998E-04
 
[MO]
Sym=     1a  
Ene=   -15.5990
Spin= Alpha
Occup=    2.00000
   1        -0.00038823
   2        -0.00153022
   3         0.00000000
   4         0.00000000
   5        -0.00130312
   6         1.00016485
   7        -0.00424221
   8         0.00000000
   9        -0.00000000
  10        -0.00199589
Sym=     2a  
Ene=    -7.7826
Spin= Alpha
Occup=    2.00000
   1         0.99984513
   2         0.01341326
   3         0.00000000
   4        -0.00000000
   5         0.00087179
   6        -0.00025032
   7         0.00133568
   8        -0.00000000
   9         0.00000000
  10        -0.00001535
Sym=     3a  
Ene=    -1.0556
Spin= Alpha
Occup=    2.00000
   1        -0.05759420
   2         0.23563341
   3         0.00000000
   4        -0.00000000
   5         0.15528772
   6        -0.01924738
   7         0.75544115
   8        -0.00000000
   9        -0.00000000
  10        -0.20540475
Sym=     4a  
Ene=    -0.4314
Spin= Alpha
Occup=    2.00000
   1        -0.00000000
   2        -0.00000000
   3         0.44148884
   4         0.03139858
   5         0.00000000
   6        -0.00000000
   7         0.00000000
   8         0.77669485
   9         0.05523836
  10        -0.00000000
Sym=     5a  
Ene=    -0.4314
Spin= Alpha
Occup=    2.00000
   1        -0.00000000
   2         0.00000000
   3         0.03139858
   4        -0.44148884
   5        -0.00000000
   6        -0.00000000
   7        -0.00000000
   8         0.05523836
   9        -0.77669485
  10        -0.00000000
Sym=     6a  
Ene=    -0.4301
Spin= Alpha
Occup=    1.63208
   1         0.02350777
   2        -0.71800473
   3        -0.00000000
   4        -0.00000000
   5         0.16865307
   6         0.02289743
   7         0.52689495
   8        -0.00000000
   9        -0.00000000
  10         0.45238885
Sym=     7a  
Ene=     0.0005
Spin= Alpha
Occup=    0.36792
   1         0.03955917
   2         0.50984439
   3         0.00000000
   4         0.00000000
   5        -0.57555529
   6         0.02465563
   7         0.25251118
   8         0.00000000
   9         0.00000000
  10         0.67056979
Sym=     8a  
Ene=     0.1613
Spin= Alpha
Occup=    0.00000
   1        -0.00000000
   2        -0.00000000
   3        -0.81935441
   4         0.47169612
   5        -0.00000000
   6         0.00000000
   7         0.00000000
   8         0.60257265
   9        -0.34689651
  10        -0.00000000
Sym=     9a  
Ene=     0.1613
Spin= Alpha
Occup=    0.00000
   1        -0.00000000
   2        -0.00000000
   3        -0.47169612
   4        -0.81935441
   5        -0.00000000
   6         0.00000000
   7         0.00000000
   8         0.34689651
   9         0.60257265
  10        -0.00000000
Sym=    10a  
Ene=     0.6474
Spin= Alpha
Occup=    0.00000
   1        -0.11010260
   2        -0.93602871
   3         0.00000000
   4         0.00000000
   5        -1.16824305
   6         0.14074634
   7         1.04971055
   8        -0.00000000
   9        -0.00000000
  10        -0.86084321
