[Molden Format]
[N_Atoms]
                     2
[Atoms] (AU)
BE1         1      4           0.00000000      0.00000000      0.00000000
LI2         2      3           0.00000000      0.00000000      3.96842486
[Charge] (Mulliken)
 -0.159324981607969     
  0.159324981607956     
[GTO] (AU)
   1
   s  14
  2.262859900E+04  8.443999941E-05
  3.372318100E+03  4.601499968E-04
  7.603504000E+02  2.285389984E-03
  2.117404800E+02  9.648129932E-03
  6.722346800E+01  3.494469975E-02
  2.337217700E+01  1.061099893E-01
  8.721373000E+00  2.458240383E-01
  3.468091000E+00  3.862428773E-01
  1.452144000E+00  3.105526078E-01
  6.086150000E-01  6.415933955E-02
  2.576860000E-01 -2.265049984E-03
  1.041760000E-01 -5.217499963E-04
  4.242700000E-02 -8.757499938E-04
  1.484900000E-02  1.242199991E-04
   s  14
  2.262859900E+04 -1.586999994E-05
  3.372318100E+03 -8.656999968E-05
  7.603504000E+02 -4.302199984E-04
  2.117404800E+02 -1.825079993E-03
  6.722346800E+01 -6.682749976E-03
  2.337217700E+01 -2.095119992E-02
  8.721373000E+00 -5.200308981E-02
  3.468091000E+00 -9.849176964E-02
  1.452144000E+00 -1.355800695E-01
  6.086150000E-01 -6.429875976E-02
  2.576860000E-01  3.125414989E-01
  1.041760000E-01  6.270468577E-01
  4.242700000E-02  2.110231492E-01
  1.484900000E-02 -4.104669985E-03
   p   9
  3.371018400E+01  1.069960000E-03
  8.057649500E+00  6.828550001E-03
  2.836471400E+00  2.119065000E-02
  1.099965700E+00  5.843696001E-02
  4.433964000E-01  2.020920800E-01
  1.822264000E-01  4.582953101E-01
  7.572410000E-02  3.691239601E-01
  3.168540000E-02  6.611471001E-02
  1.108990000E-02  1.405160000E-03
 
   2
   s  14
  9.497934400E+03  9.668999974E-05
  1.416811200E+03  6.087099984E-04
  3.214599400E+02  3.101519992E-03
  9.112416300E+01  1.266904997E-02
  2.999989100E+01  4.248012989E-02
  1.101763100E+01  1.150183297E-01
  4.372801000E+00  2.398650094E-01
  1.831256000E+00  3.584300090E-01
  8.022610000E-01  3.048527792E-01
  3.626480000E-01  8.824261976E-02
  1.139950000E-01 -8.445899977E-04
  5.123700000E-02 -7.943959979E-03
  2.246800000E-02 -3.764419990E-03
  7.860000000E-03 -8.868999976E-05
   s  14
  9.497934400E+03 -1.244999993E-05
  1.416811200E+03 -7.838999954E-05
  3.214599400E+02 -4.007099976E-04
  9.112416300E+01 -1.645249990E-03
  2.999989100E+01 -5.634599967E-03
  1.101763100E+01 -1.590780991E-02
  4.372801000E+00 -3.612581979E-02
  1.831256000E+00 -6.459927962E-02
  8.022610000E-01 -1.008321794E-01
  3.626480000E-01 -9.757613942E-02
  1.139950000E-01  2.301215886E-01
  5.123700000E-02  6.102389764E-01
  2.246800000E-02  2.849406083E-01
  7.860000000E-03  4.026899976E-03
   p   9
  1.311950400E+01  1.524940000E-03
  3.077424200E+00  8.314830000E-03
  1.098800500E+00  1.933203000E-02
  4.357784000E-01  4.934293000E-02
  1.802432000E-01  1.623554000E-01
  7.613330000E-02  3.847505400E-01
  3.254650000E-02  4.336100400E-01
  1.401820000E-02  1.287005900E-01
  4.906400000E-03 -1.018520000E-03
 
[MO]
Sym=     1a  
Ene=    -4.6923
Spin= Alpha
Occup=    1.00000
   1         1.00006722
   2         0.00402375
   3         0.00000000
   4         0.00000000
   5         0.00012806
   6        -0.00009185
   7        -0.00031922
   8        -0.00000000
   9        -0.00000000
  10         0.00045320
Sym=     1a  
Ene=    -4.6860
Spin= Beta
Occup=    1.00000
   1         1.00006785
   2         0.00323182
   3         0.00000000
   4         0.00000000
   5         0.00124108
   6        -0.00015882
   7        -0.00057982
   8        -0.00000000
   9        -0.00000000
  10         0.00027644
Sym=     2a  
Ene=    -2.4635
Spin= Alpha
Occup=    1.00000
   1        -0.00055038
   2         0.00217100
   3         0.00000000
   4         0.00000000
   5         0.00107323
   6         0.99957951
   7         0.01143829
   8        -0.00000000
   9        -0.00000000
  10         0.00098348
Sym=     2a  
Ene=    -2.4550
Spin= Beta
Occup=    1.00000
   1        -0.00054851
   2         0.00367974
   3         0.00000000
   4         0.00000000
   5         0.00249726
   6         0.99922240
   7         0.01159372
   8        -0.00000000
   9        -0.00000000
  10         0.00142622
Sym=     3a  
Ene=    -0.3375
Spin= Alpha
Occup=    1.00000
   1        -0.02749197
   2         0.82561020
   3        -0.00000000
   4        -0.00000000
   5        -0.14178037
   6        -0.05378151
   7         0.21897340
   8         0.00000000
   9         0.00000000
  10        -0.07499829
Sym=     3a  
Ene=    -0.3193
Spin= Beta
Occup=    1.00000
   1        -0.02842582
   2         0.76292445
   3         0.00000000
   4        -0.00000000
   5         0.33299018
   6        -0.12237773
   7         0.13817786
   8        -0.00000000
   9        -0.00000000
  10        -0.13961651
Sym=     4a  
Ene=    -0.1878
Spin= Alpha
Occup=    1.00000
   1        -0.03985132
   2        -0.34177568
   3         0.00000000
   4         0.00000000
   5         0.60959277
   6        -0.07279282
   7         0.67094504
   8         0.00000000
   9         0.00000000
  10         0.06739593
Sym=     4a  
Ene=     0.0462
Spin= Beta
Occup=    0.00000
   1         0.01090325
   2        -0.19716171
   3        -0.00000000
   4        -0.00000000
   5         0.03581195
   6         0.00116883
   7         0.79031169
   8        -0.00000000
   9        -0.00000000
  10         0.59113448
Sym=     5a  
Ene=     0.0273
Spin= Alpha
Occup=    0.00000
   1        -0.00000000
   2        -0.00000000
   3         0.29447824
   4        -0.18948919
   5         0.00000000
   6        -0.00000000
   7        -0.00000000
   8         0.67070524
   9        -0.43158162
  10        -0.00000000
Sym=     5a  
Ene=     0.0464
Spin= Beta
Occup=    0.00000
   1         0.00000000
   2        -0.00000000
   3         0.31585477
   4        -0.21957580
   5         0.00000000
   6         0.00000000
   7         0.00000000
   8         0.63365753
   9        -0.44050579
  10         0.00000000
Sym=     6a  
Ene=     0.0273
Spin= Alpha
Occup=    0.00000
   1        -0.00000000
   2         0.00000000
   3         0.18948919
   4         0.29447824
   5         0.00000000
   6        -0.00000000
   7        -0.00000000
   8         0.43158162
   9         0.67070524
  10        -0.00000000
Sym=     6a  
Ene=     0.0464
Spin= Beta
Occup=    0.00000
   1        -0.00000000
   2         0.00000000
   3        -0.21957580
   4        -0.31585477
   5        -0.00000000
   6        -0.00000000
   7        -0.00000000
   8        -0.44050579
   9        -0.63365753
  10        -0.00000000
Sym=     7a  
Ene=     0.0365
Spin= Alpha
Occup=    0.00000
   1         0.05903491
   2         0.13472045
   3         0.00000000
   4         0.00000000
   5        -0.58434145
   6         0.07306099
   7         0.43812851
   8         0.00000000
   9         0.00000000
  10         0.79706543
Sym=     7a  
Ene=     0.1513
Spin= Beta
Occup=    0.00000
   1         0.03857115
   2         0.57006802
   3         0.00000000
   4         0.00000000
   5        -0.86372860
   6         0.08327326
   7         0.05515120
   8        -0.00000000
   9        -0.00000000
  10         0.37798815
Sym=     8a  
Ene=     0.1633
Spin= Alpha
Occup=    0.00000
   1        -0.00000000
   2        -0.00000000
   3         0.35131678
   4        -0.99162024
   5        -0.00000000
   6         0.00000000
   7         0.00000000
   8        -0.25721479
   9         0.72600971
  10        -0.00000000
Sym=     8a  
Ene=     0.1907
Spin= Beta
Occup=    0.00000
   1         0.00000000
   2         0.00000000
   3         0.32409299
   4        -0.98810108
   5        -0.00000000
   6         0.00000000
   7        -0.00000000
   8        -0.24811519
   9         0.75645846
  10         0.00000000
Sym=     9a  
Ene=     0.1633
Spin= Alpha
Occup=    0.00000
   1         0.00000000
   2         0.00000000
   3        -0.99162024
   4        -0.35131678
   5         0.00000000
   6        -0.00000000
   7        -0.00000000
   8         0.72600971
   9         0.25721479
  10         0.00000000
Sym=     9a  
Ene=     0.1907
Spin= Beta
Occup=    0.00000
   1         0.00000000
   2         0.00000000
   3        -0.98810108
   4        -0.32409299
   5        -0.00000000
   6        -0.00000000
   7        -0.00000000
   8         0.75645846
   9         0.24811519
  10         0.00000000
Sym=    10a  
Ene=     0.2589
Spin= Alpha
Occup=    0.00000
   1         0.26071453
   2         1.76470444
   3         0.00000000
   4         0.00000000
   5         0.89680350
   6        -0.27466658
   7        -1.47655741
   8        -0.00000000
   9        -0.00000000
  10         1.39216062
Sym=    10a  
Ene=     0.2489
Spin= Beta
Occup=    0.00000
   1         0.26718014
   2         1.72767680
   3         0.00000000
   4         0.00000000
   5         0.82414672
   6        -0.26033164
   7        -1.49116189
   8        -0.00000000
   9        -0.00000000
  10         1.43936887
