[Molden Format]
[N_Atoms]
                     2
[Atoms] (AU)
B1          1      5           0.00000000      0.00000000      0.00000000
C2          2      6           0.00000000      0.00000000      2.07869874
[Charge] (Mulliken)
  0.269503150298907     
 -0.269503150298938     
[GTO] (AU)
   1
   s  14
  3.336021700E+04  1.039699991E-04
  4.972095200E+03  5.254399956E-04
  1.125641700E+03  2.509059979E-03
  3.164913600E+02  1.031887991E-02
  1.020072600E+02  3.636632969E-02
  3.629587300E+01  1.064607991E-01
  1.397141000E+01  2.403999880E-01
  5.741156000E+00  3.748581168E-01
  2.494268000E+00  3.100066974E-01
  1.114202000E+00  7.922455933E-02
  4.215490000E-01 -4.947589958E-03
  1.696330000E-01 -7.737119935E-03
  6.853500000E-02 -1.501079987E-03
  2.398700000E-02 -1.333299989E-04
   s  14
  3.336021700E+04 -2.030000008E-05
  4.972095200E+03 -1.025700004E-04
  1.125641700E+03 -4.911300020E-04
  3.164913600E+02 -2.026570008E-03
  1.020072600E+02 -7.261010030E-03
  3.629587300E+01 -2.197722009E-02
  1.397141000E+01 -5.408428022E-02
  5.741156000E+00 -1.022402604E-01
  2.494268000E+00 -1.423595206E-01
  1.114202000E+00 -4.658690019E-02
  4.215490000E-01  3.799402916E-01
  1.696330000E-01  5.890463624E-01
  6.853500000E-02  1.749075107E-01
  2.398700000E-02 -1.142030005E-03
   p   9
  5.500000000E+01  1.229800005E-03
  1.336610100E+01  8.827380035E-03
  4.135394000E+00  3.843340015E-02
  1.481256000E+00  1.150031805E-01
  6.021360000E-01  2.733674011E-01
  2.556360000E-01  4.061972116E-01
  1.111510000E-01  3.014967912E-01
  4.764800000E-02  7.684809030E-02
  1.667700000E-02 -8.170000032E-06
 
   2
   s  14
  5.055750100E+04  1.128874000E-04
  7.524785600E+03  5.295373000E-04
  1.694327600E+03  2.450038300E-03
  4.728227900E+02  1.005398470E-02
  1.517107500E+02  3.545398060E-02
  5.391874600E+01  1.044071086E-01
  2.065931100E+01  2.412894918E-01
  8.383976000E+00  3.834225483E-01
  3.577015000E+00  3.078514393E-01
  1.547118000E+00  6.872442990E-02
  6.130130000E-01  2.224445000E-04
  2.460680000E-01  1.976748900E-03
  9.908700000E-02  2.057859400E-03
  3.468000000E-02  4.182020000E-04
   s  14
  5.055750100E+04 -2.507420000E-05
  7.524785600E+03 -1.175945000E-04
  1.694327600E+03 -5.456275000E-04
  4.728227900E+02 -2.245077100E-03
  1.517107500E+02 -8.043471800E-03
  5.391874600E+01 -2.442588710E-02
  2.065931100E+01 -6.136791180E-02
  8.383976000E+00 -1.177767835E-01
  3.577015000E+00 -1.550487783E-01
  1.547118000E+00 -1.933316860E-02
  6.130130000E-01  3.996930678E-01
  2.460680000E-01  5.589420949E-01
  9.908700000E-02  1.711195023E-01
  3.468000000E-02  7.456244600E-03
   p   9
  8.333315500E+01  1.344656000E-03
  1.955761100E+01  1.023555500E-02
  6.080365000E+00  4.520067100E-02
  2.179317000E+00  1.410756198E-01
  8.651500000E-01  3.047388085E-01
  3.619440000E-01  3.995281011E-01
  1.547400000E-01  2.719163432E-01
  6.542900000E-02  5.857669330E-02
  2.290000000E-02 -1.263813000E-04
 
[MO]
Sym=     1a  
Ene=   -11.3580
Spin= Alpha
Occup=    1.00000
   1        -0.00050530
   2        -0.00467683
   3        -0.00000000
   4        -0.00000000
   5        -0.00198463
   6         1.00075611
   7         0.00426309
   8         0.00000000
   9         0.00000000
  10        -0.00402448
Sym=     1a  
Ene=   -11.3140
Spin= Beta
Occup=    1.00000
   1        -0.00022704
   2        -0.00366351
   3        -0.00000000
   4        -0.00000000
   5        -0.00131489
   6         1.00055198
   7         0.00085726
   8         0.00000000
   9         0.00000000
  10        -0.00411898
Sym=     2a  
Ene=    -7.8035
Spin= Alpha
Occup=    1.00000
   1         0.99865852
   2         0.01196214
   3         0.00000000
   4        -0.00000000
   5        -0.00109032
   6        -0.00268984
   7         0.00437854
   8        -0.00000000
   9        -0.00000000
  10        -0.00424426
Sym=     2a  
Ene=    -7.8038
Spin= Beta
Occup=    1.00000
   1         0.99888965
   2         0.01428593
   3         0.00000000
   4        -0.00000000
   5        -0.00046938
   6        -0.00293143
   7         0.00315735
   8        -0.00000000
   9        -0.00000000
  10        -0.00354058
Sym=     3a  
Ene=    -0.9790
Spin= Alpha
Occup=    1.00000
   1        -0.12311011
   2         0.24521395
   3        -0.00000000
   4        -0.00000000
   5         0.20385354
   6        -0.05554160
   7         0.67623144
   8         0.00000000
   9         0.00000000
  10        -0.22233425
Sym=     3a  
Ene=    -0.9097
Spin= Beta
Occup=    1.00000
   1        -0.12961556
   2         0.33548936
   3         0.00000000
   4         0.00000000
   5         0.23351358
   6        -0.06735512
   7         0.52612639
   8        -0.00000000
   9        -0.00000000
  10        -0.33804949
Sym=     4a  
Ene=    -0.5590
Spin= Alpha
Occup=    1.00000
   1         0.09855708
   2        -0.19806421
   3        -0.00000000
   4         0.00000000
   5        -0.11473107
   6         0.03800312
   7         0.52916986
   8        -0.00000000
   9         0.00000000
  10         0.84188643
Sym=     4a  
Ene=    -0.4223
Spin= Beta
Occup=    1.00000
   1         0.00000000
   2         0.00000000
   3        -0.01074322
   4         0.67202089
   5        -0.00000000
   6         0.00000000
   7        -0.00000000
   8        -0.00772265
   9         0.48307535
  10         0.00000000
Sym=     5a  
Ene=    -0.4621
Spin= Alpha
Occup=    1.00000
   1        -0.00000000
   2        -0.00000000
   3        -0.13393521
   4         0.46446214
   5         0.00000000
   6         0.00000000
   7         0.00000000
   8        -0.18616273
   9         0.64557740
  10        -0.00000000
Sym=     5a  
Ene=    -0.4223
Spin= Beta
Occup=    1.00000
   1        -0.00000000
   2        -0.00000000
   3        -0.67202089
   4        -0.01074322
   5        -0.00000000
   6         0.00000000
   7         0.00000000
   8        -0.48307535
   9        -0.00772265
  10        -0.00000000
Sym=     6a  
Ene=    -0.4621
Spin= Alpha
Occup=    1.00000
   1         0.00000000
   2         0.00000000
   3        -0.46446214
   4        -0.13393521
   5        -0.00000000
   6         0.00000000
   7        -0.00000000
   8        -0.64557740
   9        -0.18616273
  10         0.00000000
Sym=     6a  
Ene=    -0.0922
Spin= Beta
Occup=    0.00000
   1        -0.02654137
   2        -0.75531825
   3        -0.00000000
   4         0.00000000
   5         0.66004904
   6        -0.02729336
   7         0.25164615
   8        -0.00000000
   9         0.00000000
  10        -0.05342485
Sym=     7a  
Ene=    -0.0647
Spin= Alpha
Occup=    0.00000
   1         0.05009406
   2         0.75147822
   3         0.00000000
   4        -0.00000000
   5        -0.71805975
   6         0.03755539
   7        -0.03292215
   8         0.00000000
   9         0.00000000
  10         0.31052580
Sym=     7a  
Ene=     0.1490
Spin= Beta
Occup=    0.00000
   1         0.07622801
   2         0.04045767
   3         0.00000000
   4         0.00000000
   5        -0.34468482
   6         0.05174409
   7         0.65181689
   8         0.00000000
   9        -0.00000000
  10         0.81723475
Sym=     8a  
Ene=     0.2831
Spin= Alpha
Occup=    0.00000
   1        -0.00000000
   2        -0.00000000
   3         0.00859893
   4        -1.03610435
   5         0.00000000
   6         0.00000000
   7         0.00000000
   8        -0.00767747
   9         0.92507524
  10        -0.00000000
Sym=     8a  
Ene=     0.3481
Spin= Beta
Occup=    0.00000
   1        -0.00000000
   2        -0.00000000
   3        -0.91963175
   4         0.09899408
   5        -0.00000000
   6         0.00000000
   7         0.00000000
   8         1.03030479
   9        -0.11090752
  10        -0.00000000
Sym=     9a  
Ene=     0.2831
Spin= Alpha
Occup=    0.00000
   1         0.00000000
   2         0.00000000
   3         1.03610435
   4         0.00859893
   5         0.00000000
   6        -0.00000000
   7        -0.00000000
   8        -0.92507524
   9        -0.00767747
  10         0.00000000
Sym=     9a  
Ene=     0.3481
Spin= Beta
Occup=    0.00000
   1         0.00000000
   2         0.00000000
   3        -0.09899408
   4        -0.91963175
   5        -0.00000000
   6        -0.00000000
   7         0.00000000
   8         0.11090752
   9         1.03030479
  10         0.00000000
Sym=    10a  
Ene=     1.1090
Spin= Alpha
Occup=    0.00000
   1         0.47033582
   2         2.15994791
   3        -0.00000000
   4         0.00000000
   5         1.69907367
   6        -0.46880346
   7        -2.36319527
   8         0.00000000
   9         0.00000000
  10         1.27581096
Sym=    10a  
Ene=     1.1327
Spin= Beta
Occup=    0.00000
   1         0.47414972
   2         2.15515792
   3        -0.00000000
   4         0.00000000
   5         1.68765602
   6        -0.46708060
   7        -2.35756486
   8         0.00000000
   9        -0.00000000
  10         1.30281448
