[Molden Format]
[N_Atoms]
                     2
[Atoms] (AU)
LI1         1      3           0.00000000      0.00000000      0.00000000
LI2         2      3           0.00000000      0.00000000      3.96842486
[Charge] (Mulliken)
   1.00004801057049     
  0.999951989429510     
[GTO] (AU)
   1
   s  14
  9.497934400E+03  9.668999974E-05
  1.416811200E+03  6.087099984E-04
  3.214599400E+02  3.101519992E-03
  9.112416300E+01  1.266904997E-02
  2.999989100E+01  4.248012989E-02
  1.101763100E+01  1.150183297E-01
  4.372801000E+00  2.398650094E-01
  1.831256000E+00  3.584300090E-01
  8.022610000E-01  3.048527792E-01
  3.626480000E-01  8.824261976E-02
  1.139950000E-01 -8.445899977E-04
  5.123700000E-02 -7.943959979E-03
  2.246800000E-02 -3.764419990E-03
  7.860000000E-03 -8.868999976E-05
   s  14
  9.497934400E+03 -1.244999993E-05
  1.416811200E+03 -7.838999954E-05
  3.214599400E+02 -4.007099976E-04
  9.112416300E+01 -1.645249990E-03
  2.999989100E+01 -5.634599967E-03
  1.101763100E+01 -1.590780991E-02
  4.372801000E+00 -3.612581979E-02
  1.831256000E+00 -6.459927962E-02
  8.022610000E-01 -1.008321794E-01
  3.626480000E-01 -9.757613942E-02
  1.139950000E-01  2.301215886E-01
  5.123700000E-02  6.102389764E-01
  2.246800000E-02  2.849406083E-01
  7.860000000E-03  4.026899976E-03
   p   9
  1.311950400E+01  1.524940000E-03
  3.077424200E+00  8.314830000E-03
  1.098800500E+00  1.933203000E-02
  4.357784000E-01  4.934293000E-02
  1.802432000E-01  1.623554000E-01
  7.613330000E-02  3.847505400E-01
  3.254650000E-02  4.336100400E-01
  1.401820000E-02  1.287005900E-01
  4.906400000E-03 -1.018520000E-03
 
   2
   s  14
  9.497934400E+03  9.668999974E-05
  1.416811200E+03  6.087099984E-04
  3.214599400E+02  3.101519992E-03
  9.112416300E+01  1.266904997E-02
  2.999989100E+01  4.248012989E-02
  1.101763100E+01  1.150183297E-01
  4.372801000E+00  2.398650094E-01
  1.831256000E+00  3.584300090E-01
  8.022610000E-01  3.048527792E-01
  3.626480000E-01  8.824261976E-02
  1.139950000E-01 -8.445899977E-04
  5.123700000E-02 -7.943959979E-03
  2.246800000E-02 -3.764419990E-03
  7.860000000E-03 -8.868999976E-05
   s  14
  9.497934400E+03 -1.244999993E-05
  1.416811200E+03 -7.838999954E-05
  3.214599400E+02 -4.007099976E-04
  9.112416300E+01 -1.645249990E-03
  2.999989100E+01 -5.634599967E-03
  1.101763100E+01 -1.590780991E-02
  4.372801000E+00 -3.612581979E-02
  1.831256000E+00 -6.459927962E-02
  8.022610000E-01 -1.008321794E-01
  3.626480000E-01 -9.757613942E-02
  1.139950000E-01  2.301215886E-01
  5.123700000E-02  6.102389764E-01
  2.246800000E-02  2.849406083E-01
  7.860000000E-03  4.026899976E-03
   p   9
  1.311950400E+01  1.524940000E-03
  3.077424200E+00  8.314830000E-03
  1.098800500E+00  1.933203000E-02
  4.357784000E-01  4.934293000E-02
  1.802432000E-01  1.623554000E-01
  7.613330000E-02  3.847505400E-01
  3.254650000E-02  4.336100400E-01
  1.401820000E-02  1.287005900E-01
  4.906400000E-03 -1.018520000E-03
 
[MO]
Sym=     1a  
Ene=    -3.0454
Spin= Alpha
Occup=    2.00000
   1        -0.00335181
   2        -0.00539877
   3        -0.00000000
   4         0.00000000
   5        -0.00110566
   6         1.00068923
   7         0.01638182
   8         0.00000000
   9         0.00000000
  10        -0.00575079
Sym=     2a  
Ene=    -3.0455
Spin= Alpha
Occup=    1.99998
   1        -1.00066509
   2        -0.01644235
   3        -0.00000000
   4        -0.00000000
   5        -0.00576231
   6         0.00169970
   7         0.00533914
   8        -0.00000000
   9         0.00000000
  10        -0.00101068
Sym=     3a  
Ene=    -0.0010
Spin= Alpha
Occup=    0.00002
   1        -0.16213560
   2         0.31472513
   3        -0.00000000
   4         0.00000000
   5        -0.01704491
   6        -0.03929380
   7         0.35316324
   8        -0.00000000
   9        -0.00000000
  10        -0.65424551
Sym=     4a  
Ene=    -0.3438
Spin= Alpha
Occup=    0.00000
   1        -0.08390722
   2        -0.49405493
   3         0.00000000
   4        -0.00000000
   5         0.37247952
   6        -0.02010556
   7         0.90223903
   8         0.00000000
   9        -0.00000000
  10         0.08740944
Sym=     5a  
Ene=    -0.3324
Spin= Alpha
Occup=    0.00000
   1        -0.00000000
   2        -0.00000000
   3        -0.19826256
   4         0.51298703
   5         0.00000000
   6         0.00000000
   7         0.00000000
   8        -0.19823991
   9         0.51292842
  10         0.00000000
Sym=     6a  
Ene=    -0.3324
Spin= Alpha
Occup=    0.00000
   1        -0.00000000
   2        -0.00000000
   3        -0.51298703
   4        -0.19826256
   5         0.00000000
   6         0.00000000
   7         0.00000000
   8        -0.51292842
   9        -0.19823991
  10         0.00000000
Sym=     7a  
Ene=    -0.2828
Spin= Alpha
Occup=    0.00000
   1        -0.08813072
   2        -0.49963004
   3         0.00000000
   4         0.00000000
   5         0.80342594
   6        -0.08334592
   7        -0.43010857
   8        -0.00000000
   9        -0.00000000
  10        -0.78961944
Sym=     8a  
Ene=    -0.2372
Spin= Alpha
Occup=    0.00000
   1        -0.00000000
   2        -0.00000000
   3         0.06768315
   4         1.19894482
   5        -0.00000000
   6         0.00000000
   7         0.00000000
   8        -0.06768478
   9        -1.19897355
  10         0.00000000
Sym=     9a  
Ene=    -0.2372
Spin= Alpha
Occup=    0.00000
   1        -0.00000000
   2        -0.00000000
   3        -1.19894482
   4         0.06768315
   5         0.00000000
   6        -0.00000000
   7         0.00000000
   8         1.19897355
   9        -0.06768478
  10        -0.00000000
Sym=    10a  
Ene=     0.0653
Spin= Alpha
Occup=    0.00000
   1        -0.87787484
   2        -4.57776532
   3         0.00000000
   4        -0.00000000
   5        -2.37192073
   6         0.89600496
   7         4.51939790
   8         0.00000000
   9         0.00000000
  10        -2.31329993
