[Molden Format]
[N_Atoms]
                     2
[Atoms] (AU)
LI1         1      3           0.00000000      0.00000000      0.00000000
LI2         2      3           0.00000000      0.00000000      3.96842486
[Charge] (Mulliken)
  0.000000000000000E+000
  0.000000000000000E+000
[GTO] (AU)
   1
   s  14
  9.497934400E+03  9.668999974E-05
  1.416811200E+03  6.087099984E-04
  3.214599400E+02  3.101519992E-03
  9.112416300E+01  1.266904997E-02
  2.999989100E+01  4.248012989E-02
  1.101763100E+01  1.150183297E-01
  4.372801000E+00  2.398650094E-01
  1.831256000E+00  3.584300090E-01
  8.022610000E-01  3.048527792E-01
  3.626480000E-01  8.824261976E-02
  1.139950000E-01 -8.445899977E-04
  5.123700000E-02 -7.943959979E-03
  2.246800000E-02 -3.764419990E-03
  7.860000000E-03 -8.868999976E-05
   s  14
  9.497934400E+03 -1.244999993E-05
  1.416811200E+03 -7.838999954E-05
  3.214599400E+02 -4.007099976E-04
  9.112416300E+01 -1.645249990E-03
  2.999989100E+01 -5.634599967E-03
  1.101763100E+01 -1.590780991E-02
  4.372801000E+00 -3.612581979E-02
  1.831256000E+00 -6.459927962E-02
  8.022610000E-01 -1.008321794E-01
  3.626480000E-01 -9.757613942E-02
  1.139950000E-01  2.301215886E-01
  5.123700000E-02  6.102389764E-01
  2.246800000E-02  2.849406083E-01
  7.860000000E-03  4.026899976E-03
   p   9
  1.311950400E+01  1.524940000E-03
  3.077424200E+00  8.314830000E-03
  1.098800500E+00  1.933203000E-02
  4.357784000E-01  4.934293000E-02
  1.802432000E-01  1.623554000E-01
  7.613330000E-02  3.847505400E-01
  3.254650000E-02  4.336100400E-01
  1.401820000E-02  1.287005900E-01
  4.906400000E-03 -1.018520000E-03
 
   2
   s  14
  9.497934400E+03  9.668999974E-05
  1.416811200E+03  6.087099984E-04
  3.214599400E+02  3.101519992E-03
  9.112416300E+01  1.266904997E-02
  2.999989100E+01  4.248012989E-02
  1.101763100E+01  1.150183297E-01
  4.372801000E+00  2.398650094E-01
  1.831256000E+00  3.584300090E-01
  8.022610000E-01  3.048527792E-01
  3.626480000E-01  8.824261976E-02
  1.139950000E-01 -8.445899977E-04
  5.123700000E-02 -7.943959979E-03
  2.246800000E-02 -3.764419990E-03
  7.860000000E-03 -8.868999976E-05
   s  14
  9.497934400E+03 -1.244999993E-05
  1.416811200E+03 -7.838999954E-05
  3.214599400E+02 -4.007099976E-04
  9.112416300E+01 -1.645249990E-03
  2.999989100E+01 -5.634599967E-03
  1.101763100E+01 -1.590780991E-02
  4.372801000E+00 -3.612581979E-02
  1.831256000E+00 -6.459927962E-02
  8.022610000E-01 -1.008321794E-01
  3.626480000E-01 -9.757613942E-02
  1.139950000E-01  2.301215886E-01
  5.123700000E-02  6.102389764E-01
  2.246800000E-02  2.849406083E-01
  7.860000000E-03  4.026899976E-03
   p   9
  1.311950400E+01  1.524940000E-03
  3.077424200E+00  8.314830000E-03
  1.098800500E+00  1.933203000E-02
  4.357784000E-01  4.934293000E-02
  1.802432000E-01  1.623554000E-01
  7.613330000E-02  3.847505400E-01
  3.254650000E-02  4.336100400E-01
  1.401820000E-02  1.287005900E-01
  4.906400000E-03 -1.018520000E-03
 
[MO]
Sym=     1a  
Ene=    -2.4815
Spin= Alpha
Occup=    2.00000
   1        -0.70624925
   2         0.00611373
   3         0.00000000
   4         0.00000000
   5         0.00000000
   6         0.70624925
   7        -0.00611373
   8        -0.00000000
   9         0.00000000
  10         0.00000000
Sym=     2a  
Ene=    -2.4790
Spin= Alpha
Occup=    2.00000
   1         0.70651225
   2         0.00689473
   3        -0.00000000
   4        -0.00000000
   5        -0.00000000
   6         0.70651225
   7         0.00689473
   8         0.00000000
   9         0.00000000
  10        -0.00000000
Sym=     3a  
Ene=    -0.3293
Spin= Alpha
Occup=    2.00000
   1        -0.06719540
   2         0.54577967
   3        -0.00000000
   4         0.00000000
   5         0.00000000
   6        -0.06719540
   7         0.54577967
   8         0.00000000
   9         0.00000000
  10         0.00000000
Sym=     4a  
Ene=    -0.0587
Spin= Alpha
Occup=    0.00000
   1        -0.14123891
   2        -1.29324700
   3        -0.00000000
   4        -0.00000000
   5         0.00000000
   6         0.14123891
   7         1.29324700
   8        -0.00000000
   9        -0.00000000
  10         0.00000000
Sym=     5a  
Ene=     3.1321
Spin= Alpha
Occup=    0.00000
   1        -0.00000000
   2        -0.00000000
   3         0.00000000
   4         0.54993561
   5         0.00000000
   6         0.00000000
   7         0.00000000
   8        -0.00000000
   9         0.54993561
  10         0.00000000
Sym=     6a  
Ene=     3.1321
Spin= Alpha
Occup=    0.00000
   1        -0.00000000
   2        -0.00000000
   3         0.54993561
   4         0.00000000
   5         0.00000000
   6        -0.00000000
   7         0.00000000
   8         0.54993561
   9        -0.00000000
  10         0.00000000
Sym=     7a  
Ene=     3.2681
Spin= Alpha
Occup=    0.00000
   1        -0.00000000
   2        -0.00000000
   3        -0.00000000
   4        -1.20086812
   5         0.00000000
   6        -0.00000000
   7         0.00000000
   8         0.00000000
   9         1.20086812
  10         0.00000000
Sym=     8a  
Ene=     3.2681
Spin= Alpha
Occup=    0.00000
   1        -0.00000000
   2        -0.00000000
   3        -1.20086812
   4         0.00000000
   5         0.00000000
   6        -0.00000000
   7         0.00000000
   8         1.20086812
   9        -0.00000000
  10         0.00000000
Sym=     9a  
Ene=     3.2803
Spin= Alpha
Occup=    0.00000
   1         0.12149080
   2         0.26882231
   3        -0.00000000
   4        -0.00000000
   5        -0.87013845
   6         0.12149080
   7         0.26882231
   8        -0.00000000
   9        -0.00000000
  10         0.87013845
Sym=    10a  
Ene=     3.6559
Spin= Alpha
Occup=    0.00000
   1         0.88086904
   2         4.41659298
   3         0.00000000
   4         0.00000000
   5         2.37769346
   6        -0.88086904
   7        -4.41659298
   8         0.00000000
   9         0.00000000
  10         2.37769346
