[Molden Format]
[N_Atoms]
                     2
[Atoms] (AU)
BE1         1      4           0.00000000      0.00000000      0.00000000
LI2         2      3           0.00000000      0.00000000      4.34637009
[Charge] (Mulliken)
 -9.399421594539170E-002
  9.399421594537394E-002
[GTO] (AU)
   1
   s  14
  2.262859900E+04  8.443999941E-05
  3.372318100E+03  4.601499968E-04
  7.603504000E+02  2.285389984E-03
  2.117404800E+02  9.648129932E-03
  6.722346800E+01  3.494469975E-02
  2.337217700E+01  1.061099893E-01
  8.721373000E+00  2.458240383E-01
  3.468091000E+00  3.862428773E-01
  1.452144000E+00  3.105526078E-01
  6.086150000E-01  6.415933955E-02
  2.576860000E-01 -2.265049984E-03
  1.041760000E-01 -5.217499963E-04
  4.242700000E-02 -8.757499938E-04
  1.484900000E-02  1.242199991E-04
   s  14
  2.262859900E+04 -1.586999994E-05
  3.372318100E+03 -8.656999968E-05
  7.603504000E+02 -4.302199984E-04
  2.117404800E+02 -1.825079993E-03
  6.722346800E+01 -6.682749976E-03
  2.337217700E+01 -2.095119992E-02
  8.721373000E+00 -5.200308981E-02
  3.468091000E+00 -9.849176964E-02
  1.452144000E+00 -1.355800695E-01
  6.086150000E-01 -6.429875976E-02
  2.576860000E-01  3.125414989E-01
  1.041760000E-01  6.270468577E-01
  4.242700000E-02  2.110231492E-01
  1.484900000E-02 -4.104669985E-03
   p   9
  3.371018400E+01  1.069960000E-03
  8.057649500E+00  6.828550001E-03
  2.836471400E+00  2.119065000E-02
  1.099965700E+00  5.843696001E-02
  4.433964000E-01  2.020920800E-01
  1.822264000E-01  4.582953101E-01
  7.572410000E-02  3.691239601E-01
  3.168540000E-02  6.611471001E-02
  1.108990000E-02  1.405160000E-03
 
   2
   s  14
  9.497934400E+03  9.668999974E-05
  1.416811200E+03  6.087099984E-04
  3.214599400E+02  3.101519992E-03
  9.112416300E+01  1.266904997E-02
  2.999989100E+01  4.248012989E-02
  1.101763100E+01  1.150183297E-01
  4.372801000E+00  2.398650094E-01
  1.831256000E+00  3.584300090E-01
  8.022610000E-01  3.048527792E-01
  3.626480000E-01  8.824261976E-02
  1.139950000E-01 -8.445899977E-04
  5.123700000E-02 -7.943959979E-03
  2.246800000E-02 -3.764419990E-03
  7.860000000E-03 -8.868999976E-05
   s  14
  9.497934400E+03 -1.244999993E-05
  1.416811200E+03 -7.838999954E-05
  3.214599400E+02 -4.007099976E-04
  9.112416300E+01 -1.645249990E-03
  2.999989100E+01 -5.634599967E-03
  1.101763100E+01 -1.590780991E-02
  4.372801000E+00 -3.612581979E-02
  1.831256000E+00 -6.459927962E-02
  8.022610000E-01 -1.008321794E-01
  3.626480000E-01 -9.757613942E-02
  1.139950000E-01  2.301215886E-01
  5.123700000E-02  6.102389764E-01
  2.246800000E-02  2.849406083E-01
  7.860000000E-03  4.026899976E-03
   p   9
  1.311950400E+01  1.524940000E-03
  3.077424200E+00  8.314830000E-03
  1.098800500E+00  1.933203000E-02
  4.357784000E-01  4.934293000E-02
  1.802432000E-01  1.623554000E-01
  7.613330000E-02  3.847505400E-01
  3.254650000E-02  4.336100400E-01
  1.401820000E-02  1.287005900E-01
  4.906400000E-03 -1.018520000E-03
 
[MO]
Sym=     1a  
Ene=    -4.6979
Spin= Alpha
Occup=    1.00000
   1         1.00001461
   2         0.00341068
   3         0.00000000
   4        -0.00000000
   5        -0.00017797
   6        -0.00003124
   7         0.00000901
   8         0.00000000
   9         0.00000000
  10         0.00020445
Sym=     1a  
Ene=    -4.6919
Spin= Beta
Occup=    1.00000
   1         1.00003993
   2         0.00295503
   3         0.00000000
   4        -0.00000000
   5         0.00101980
   6        -0.00011893
   7        -0.00038504
   8         0.00000000
   9        -0.00000000
  10         0.00020382
Sym=     2a  
Ene=    -2.4667
Spin= Alpha
Occup=    1.00000
   1        -0.00014180
   2         0.00159980
   3        -0.00000000
   4         0.00000000
   5         0.00056286
   6         0.99975604
   7         0.01165312
   8        -0.00000000
   9        -0.00000000
  10         0.00107195
Sym=     2a  
Ene=    -2.4577
Spin= Beta
Occup=    1.00000
   1        -0.00019211
   2         0.00246149
   3        -0.00000000
   4         0.00000000
   5         0.00159282
   6         0.99956238
   7         0.01226188
   8         0.00000000
   9        -0.00000000
  10         0.00121065
Sym=     3a  
Ene=    -0.3351
Spin= Alpha
Occup=    1.00000
   1        -0.02430917
   2         0.83114164
   3         0.00000000
   4        -0.00000000
   5        -0.17936271
   6        -0.03676946
   7         0.21834716
   8         0.00000000
   9         0.00000000
  10        -0.07735368
Sym=     3a  
Ene=    -0.3171
Spin= Beta
Occup=    1.00000
   1        -0.02548503
   2         0.76519846
   3        -0.00000000
   4         0.00000000
   5         0.32011038
   6        -0.09416936
   7         0.14528418
   8        -0.00000000
   9        -0.00000000
  10        -0.13795374
Sym=     4a  
Ene=    -0.1879
Spin= Alpha
Occup=    1.00000
   1        -0.03967933
   2        -0.34593134
   3        -0.00000000
   4         0.00000000
   5         0.54715606
   6        -0.05310412
   7         0.73291459
   8         0.00000000
   9         0.00000000
  10         0.04534190
Sym=     4a  
Ene=     0.0451
Spin= Beta
Occup=    0.00000
   1         0.00626555
   2        -0.21778463
   3         0.00000000
   4        -0.00000000
   5         0.05244211
   6        -0.00280276
   7         0.81491265
   8         0.00000000
   9        -0.00000000
  10         0.54822284
Sym=     5a  
Ene=     0.0299
Spin= Alpha
Occup=    0.00000
   1        -0.00000000
   2        -0.00000000
   3         0.33535648
   4         0.07616634
   5         0.00000000
   6        -0.00000000
   7        -0.00000000
   8         0.79555101
   9         0.18068595
  10        -0.00000000
Sym=     5a  
Ene=     0.0506
Spin= Beta
Occup=    0.00000
   1         0.00000000
   2         0.00000000
   3        -0.38784425
   4        -0.07957195
   5        -0.00000000
   6         0.00000000
   7        -0.00000000
   8        -0.76244427
   9        -0.15642665
  10        -0.00000000
Sym=     6a  
Ene=     0.0299
Spin= Alpha
Occup=    0.00000
   1        -0.00000000
   2        -0.00000000
   3        -0.07616634
   4         0.33535648
   5         0.00000000
   6        -0.00000000
   7        -0.00000000
   8        -0.18068595
   9         0.79555101
  10        -0.00000000
Sym=     6a  
Ene=     0.0506
Spin= Beta
Occup=    0.00000
   1        -0.00000000
   2         0.00000000
   3         0.07957195
   4        -0.38784425
   5        -0.00000000
   6         0.00000000
   7        -0.00000000
   8         0.15642665
   9        -0.76244427
  10        -0.00000000
Sym=     7a  
Ene=     0.0341
Spin= Alpha
Occup=    0.00000
   1         0.05658035
   2         0.15196412
   3        -0.00000000
   4         0.00000000
   5        -0.55403648
   6         0.05264062
   7         0.39951990
   8        -0.00000000
   9         0.00000000
  10         0.79859096
Sym=     7a  
Ene=     0.1408
Spin= Beta
Occup=    0.00000
   1         0.05275600
   2         0.69198131
   3        -0.00000000
   4         0.00000000
   5        -0.76430303
   6         0.04821055
   7        -0.04713446
   8         0.00000000
   9        -0.00000000
  10         0.49709630
Sym=     8a  
Ene=     0.1534
Spin= Alpha
Occup=    0.00000
   1        -0.00000000
   2        -0.00000000
   3        -1.01153674
   4         0.18123644
   5        -0.00000000
   6         0.00000000
   7         0.00000000
   8         0.70210063
   9        -0.12579495
  10        -0.00000000
Sym=     8a  
Ene=     0.1800
Spin= Beta
Occup=    0.00000
   1         0.00000000
   2        -0.00000000
   3        -0.98849161
   4         0.20111680
   5         0.00000000
   6        -0.00000000
   7        -0.00000000
   8         0.73887011
   9        -0.15032924
  10         0.00000000
Sym=     9a  
Ene=     0.1534
Spin= Alpha
Occup=    0.00000
   1        -0.00000000
   2        -0.00000000
   3        -0.18123644
   4        -1.01153674
   5         0.00000000
   6         0.00000000
   7         0.00000000
   8         0.12579495
   9         0.70210063
  10        -0.00000000
Sym=     9a  
Ene=     0.1800
Spin= Beta
Occup=    0.00000
   1        -0.00000000
   2        -0.00000000
   3        -0.20111680
   4        -0.98849161
   5        -0.00000000
   6         0.00000000
   7         0.00000000
   8         0.15032924
   9         0.73887011
  10         0.00000000
Sym=    10a  
Ene=     0.2605
Spin= Alpha
Occup=    0.00000
   1         0.20778988
   2         1.53662416
   3        -0.00000000
   4        -0.00000000
   5         0.93581143
   6        -0.20228890
   7        -1.27932907
   8         0.00000000
   9         0.00000000
  10         1.29737074
Sym=    10a  
Ene=     0.2480
Spin= Beta
Occup=    0.00000
   1         0.21218093
   2         1.44325129
   3         0.00000000
   4        -0.00000000
   5         0.90822190
   6        -0.19248656
   7        -1.30142684
   8        -0.00000000
   9        -0.00000000
  10         1.32750642
