[Molden Format]
[N_Atoms]
                     2
[Atoms] (AU)
BE1         1      4           0.00000000      0.00000000      0.00000000
LI2         2      3           0.00000000      0.00000000      4.34637009
[Charge] (Mulliken)
 -0.152461320436697     
  0.152461320436685     
[GTO] (AU)
   1
   s  14
  2.262859900E+04  8.443999941E-05
  3.372318100E+03  4.601499968E-04
  7.603504000E+02  2.285389984E-03
  2.117404800E+02  9.648129932E-03
  6.722346800E+01  3.494469975E-02
  2.337217700E+01  1.061099893E-01
  8.721373000E+00  2.458240383E-01
  3.468091000E+00  3.862428773E-01
  1.452144000E+00  3.105526078E-01
  6.086150000E-01  6.415933955E-02
  2.576860000E-01 -2.265049984E-03
  1.041760000E-01 -5.217499963E-04
  4.242700000E-02 -8.757499938E-04
  1.484900000E-02  1.242199991E-04
   s  14
  2.262859900E+04 -1.586999994E-05
  3.372318100E+03 -8.656999968E-05
  7.603504000E+02 -4.302199984E-04
  2.117404800E+02 -1.825079993E-03
  6.722346800E+01 -6.682749976E-03
  2.337217700E+01 -2.095119992E-02
  8.721373000E+00 -5.200308981E-02
  3.468091000E+00 -9.849176964E-02
  1.452144000E+00 -1.355800695E-01
  6.086150000E-01 -6.429875976E-02
  2.576860000E-01  3.125414989E-01
  1.041760000E-01  6.270468577E-01
  4.242700000E-02  2.110231492E-01
  1.484900000E-02 -4.104669985E-03
   p   9
  3.371018400E+01  1.069960000E-03
  8.057649500E+00  6.828550001E-03
  2.836471400E+00  2.119065000E-02
  1.099965700E+00  5.843696001E-02
  4.433964000E-01  2.020920800E-01
  1.822264000E-01  4.582953101E-01
  7.572410000E-02  3.691239601E-01
  3.168540000E-02  6.611471001E-02
  1.108990000E-02  1.405160000E-03
 
   2
   s  14
  9.497934400E+03  9.668999974E-05
  1.416811200E+03  6.087099984E-04
  3.214599400E+02  3.101519992E-03
  9.112416300E+01  1.266904997E-02
  2.999989100E+01  4.248012989E-02
  1.101763100E+01  1.150183297E-01
  4.372801000E+00  2.398650094E-01
  1.831256000E+00  3.584300090E-01
  8.022610000E-01  3.048527792E-01
  3.626480000E-01  8.824261976E-02
  1.139950000E-01 -8.445899977E-04
  5.123700000E-02 -7.943959979E-03
  2.246800000E-02 -3.764419990E-03
  7.860000000E-03 -8.868999976E-05
   s  14
  9.497934400E+03 -1.244999993E-05
  1.416811200E+03 -7.838999954E-05
  3.214599400E+02 -4.007099976E-04
  9.112416300E+01 -1.645249990E-03
  2.999989100E+01 -5.634599967E-03
  1.101763100E+01 -1.590780991E-02
  4.372801000E+00 -3.612581979E-02
  1.831256000E+00 -6.459927962E-02
  8.022610000E-01 -1.008321794E-01
  3.626480000E-01 -9.757613942E-02
  1.139950000E-01  2.301215886E-01
  5.123700000E-02  6.102389764E-01
  2.246800000E-02  2.849406083E-01
  7.860000000E-03  4.026899976E-03
   p   9
  1.311950400E+01  1.524940000E-03
  3.077424200E+00  8.314830000E-03
  1.098800500E+00  1.933203000E-02
  4.357784000E-01  4.934293000E-02
  1.802432000E-01  1.623554000E-01
  7.613330000E-02  3.847505400E-01
  3.254650000E-02  4.336100400E-01
  1.401820000E-02  1.287005900E-01
  4.906400000E-03 -1.018520000E-03
 
[MO]
Sym=     1a  
Ene=    -4.6578
Spin= Alpha
Occup=    1.00000
   1         1.00003455
   2         0.00332314
   3        -0.00000000
   4        -0.00000000
   5         0.00092052
   6        -0.00013603
   7        -0.00012784
   8         0.00000000
   9         0.00000000
  10         0.00031673
Sym=     1a  
Ene=    -4.6578
Spin= Beta
Occup=    1.00000
   1         1.00003455
   2         0.00332314
   3        -0.00000000
   4        -0.00000000
   5         0.00092052
   6        -0.00013603
   7        -0.00012784
   8         0.00000000
   9         0.00000000
  10         0.00031673
Sym=     2a  
Ene=    -2.4619
Spin= Alpha
Occup=    1.00000
   1        -0.00002672
   2         0.00269440
   3        -0.00000000
   4        -0.00000000
   5         0.00119962
   6         0.99960297
   7         0.01167764
   8         0.00000000
   9         0.00000000
  10         0.00246413
Sym=     2a  
Ene=    -2.4619
Spin= Beta
Occup=    1.00000
   1        -0.00002672
   2         0.00269440
   3        -0.00000000
   4        -0.00000000
   5         0.00119962
   6         0.99960297
   7         0.01167764
   8         0.00000000
   9         0.00000000
  10         0.00246413
Sym=     3a  
Ene=    -0.2873
Spin= Alpha
Occup=    1.00000
   1        -0.04072033
   2         0.62336483
   3        -0.00000000
   4        -0.00000000
   5         0.22444622
   6        -0.07467716
   7         0.36772924
   8        -0.00000000
   9        -0.00000000
  10        -0.15245450
Sym=     3a  
Ene=    -0.2873
Spin= Beta
Occup=    1.00000
   1        -0.04072033
   2         0.62336483
   3        -0.00000000
   4        -0.00000000
   5         0.22444622
   6        -0.07467716
   7         0.36772924
   8        -0.00000000
   9        -0.00000000
  10        -0.15245450
Sym=     4a  
Ene=    -0.0374
Spin= Alpha
Occup=    1.00000
   1        -0.02537805
   2        -0.64022985
   3        -0.00000000
   4        -0.00000000
   5         0.70678390
   6        -0.04902853
   7         0.39622787
   8         0.00000000
   9         0.00000000
  10        -0.01972590
Sym=     4a  
Ene=    -0.0374
Spin= Beta
Occup=    0.00000
   1        -0.02537805
   2        -0.64022985
   3        -0.00000000
   4        -0.00000000
   5         0.70678390
   6        -0.04902853
   7         0.39622787
   8         0.00000000
   9         0.00000000
  10        -0.01972590
Sym=     5a  
Ene=     0.0000
Spin= Alpha
Occup=    0.00000
   1         0.00000001
   2         0.00000002
   3         0.52534534
   4         0.39875174
   5        -0.00000006
   6         0.00000000
   7         0.00000009
   8         0.42961338
   9         0.32608852
  10         0.00000012
Sym=     5a  
Ene=     0.0000
Spin= Beta
Occup=    0.00000
   1         0.00000001
   2         0.00000002
   3         0.52534534
   4         0.39875174
   5        -0.00000006
   6         0.00000000
   7         0.00000009
   8         0.42961338
   9         0.32608852
  10         0.00000012
Sym=     6a  
Ene=     0.0439
Spin= Alpha
Occup=    0.00000
   1         0.04354100
   2         0.14174137
   3        -0.00000003
   4        -0.00000003
   5        -0.39728060
   6         0.03087414
   7         0.58693199
   8        -0.00000010
   9        -0.00000009
  10         0.78159242
Sym=     6a  
Ene=     0.0439
Spin= Beta
Occup=    0.00000
   1         0.04354100
   2         0.14174137
   3        -0.00000003
   4        -0.00000003
   5        -0.39728060
   6         0.03087414
   7         0.58693199
   8        -0.00000010
   9        -0.00000009
  10         0.78159242
Sym=     7a  
Ene=     0.0449
Spin= Alpha
Occup=    0.00000
   1         0.00000000
   2         0.00000000
   3        -0.16946256
   4         0.22326264
   5        -0.00000001
   6         0.00000000
   7         0.00000001
   8        -0.51872727
   9         0.68341006
  10         0.00000001
Sym=     7a  
Ene=     0.0449
Spin= Beta
Occup=    0.00000
   1         0.00000000
   2         0.00000000
   3        -0.16946256
   4         0.22326264
   5        -0.00000001
   6         0.00000000
   7         0.00000001
   8        -0.51872727
   9         0.68341006
  10         0.00000001
Sym=     8a  
Ene=     0.1657
Spin= Alpha
Occup=    0.00000
   1         0.00000000
   2         0.00000001
   3        -0.68489411
   4        -0.51985370
   5        -0.00000003
   6         0.00000000
   7         0.00000004
   8         0.74866549
   9         0.56825795
  10         0.00000005
Sym=     8a  
Ene=     0.1657
Spin= Beta
Occup=    0.00000
   1         0.00000000
   2         0.00000001
   3        -0.68489411
   4        -0.51985370
   5        -0.00000003
   6         0.00000000
   7         0.00000004
   8         0.74866549
   9         0.56825795
  10         0.00000005
Sym=     9a  
Ene=     0.1865
Spin= Alpha
Occup=    0.00000
   1        -0.00000000
   2        -0.00000000
   3         0.63287697
   4        -0.83379941
   5         0.00000000
   6        -0.00000000
   7         0.00000000
   8        -0.40021600
   9         0.52727446
  10        -0.00000000
Sym=     9a  
Ene=     0.1865
Spin= Beta
Occup=    0.00000
   1        -0.00000000
   2        -0.00000000
   3         0.63287697
   4        -0.83379941
   5         0.00000000
   6        -0.00000000
   7         0.00000000
   8        -0.40021600
   9         0.52727446
  10        -0.00000000
Sym=    10a  
Ene=     0.2664
Spin= Alpha
Occup=    0.00000
   1        -0.21048865
   2        -1.54149250
   3         0.00000000
   4         0.00000000
   5        -0.89805167
   6         0.19808135
   7         1.32076767
   8         0.00000000
   9         0.00000000
  10        -1.30170452
Sym=    10a  
Ene=     0.2664
Spin= Beta
Occup=    0.00000
   1        -0.21048865
   2        -1.54149250
   3         0.00000000
   4         0.00000000
   5        -0.89805167
   6         0.19808135
   7         1.32076767
   8         0.00000000
   9         0.00000000
  10        -1.30170452
