   This run of MOLCAS is using the pymolcas driver

                             OPE
                             OPE          NMOL  CASOP  ENMOLC A   SO
                 OPE        NMOLC        AS  OP EN  MO LC     AS  OP
                OPENM       OL CA        SO  PE NM  OL CA     SOP EN
                OP EN      MO   LC       AS  OP ENMOL  CASO   PENMOL
                OP  EN     MO   LC       AS  OP EN     MO     LC ASO
               OP   E  NMOL  C  AS       OP  EN MO     LC     AS  OP
               OP  E   NMO   LC AS        OPEN  MO     LCASOP EN   M
               O  PEN   MO  LCA  SO
            OPE   NMO   L   CAS    OP
        OPENMOL  CASOP     ENMOL   CASOPE
     OPENMOLCA   SOPENMOLCASOPEN   MOLCASOPE
    OPENMOLCAS   OP           EN   MOL    CAS
    OPENMOLCAS       OP  ENM        O     LCA
    OPENMOLCAS    OPEN  MOLCASO     P  E  NMO
    OPENMOLCAS     OP               E  N  MOL
    OPENMOLCA   SO           PENM   O  L  CAS    OPEN    MO    LCAS
    OPENMOLCA   SOP           ENM   O  L  CAS   OP  EN  MOLC  AS   O
    OPENMOLCA   SOPE           NM      O  LCA   S      OP  EN MO
    OPENMOLC                AS         O  PEN   M      OL  CA  SOPE
    OPENMO        LCASOPE  NMOL        C  ASO   P      ENMOLC     AS
    OPE     NMO      LCA  SO     P     E   NM   OL  CA SO  PE N   MO
          OPENMOLCA            SOPE   NMO        LCAS  O    P  ENMO
     OPENMOLCASOPENMOLCASOPENMOLCASOPENMOLCA
        OPENMOLCASOPENMOLCASOPENMOLCASOPE
            OPENMOLCASOPENMOLCASOPENM
               OPENMOLCASOPENMOLCA        version: ea724fe96-dirty
                   OPENMOLCASO
                       OPE                tag:

 OpenMolcas is free software; you can redistribute it and/or modify it
 under the terms of the GNU Lesser General Public License version 2.1.
 OpenMolcas is distributed in the hope that it will be useful, but it
 is provided "as is" and without any express or implied warranties.
 For more details see the full text of the license in the file
 LICENSE or in <http://www.gnu.org/licenses/>.

                 Copyright (C) The OpenMolcas Authors
           For the author list and the recommended citation,
                   consult the file CONTRIBUTORS.md

           *************************************************
           * pymolcas version py2.28                       *
           *   build c4a6d18ded8cb6cad61d2372a9abd97c      *
           *   (after the EMIL interpreter by V. Veryazov) *
           *************************************************

configuration info
------------------
C Compiler ID: Intel
C flags: -std=gnu99
Fortran Compiler ID: Intel
Fortran flags: -fpp -i8 -r8 -heap-arrays
Definitions: _MOLCAS_;_I8_;_LINUX_
Parallel: OFF (GA=OFF)


   --------------------------------------------------------------------------------
  |
  |              Project: H8_3.00
  |       Submitted from: /home/grierjones/DDCASPT2/hydrogen_comps/H8_chain/H8_3.00
  |         Scratch area: /tmp/H8_3.00
  |      Save outputs to: /home/grierjones/DDCASPT2/hydrogen_comps/H8_chain/H8_3.00
  |               Molcas: /home/grierjones/Test/build
  |
  | Scratch area is empty
  |
  |       MOLCAS_DRIVER = /usr/local/pymolcas
  | MOLCAS_KEEP_WORKDIR = NO
  |  MOLCAS_NEW_WORKDIR = YES
  |       MOLCAS_NPROCS = 1
  |        MOLCAS_PRINT = NORMAL
  |       MOLCAS_SOURCE = /home/grierjones/Test/build
  |    MOLCAS_STRUCTURE = 0
  |
   --------------------------------------------------------------------------------

++ ---------   Input file   ---------

&GATEWAY
coord=H8_3.00.xyz
Basis = ANO-RCC-VDZP
Group = nosymm
Expert
End of Input

&SEWARD
End of Input

&SCF

>>> COPY $WorkDir/H8_3.00.scf.h5 $CurrDir/

&RASSCF
Title= RASSCF
FileOrb
/home/grierjones/DDCASPT2/hydrogen_comps/H8_chain/H8_2.98/H8_2.98.RasOrb
NACTEL
8 0 0
Inactive
0
RAS2
8
Symmetry
1
Spin
1
orblisting
all
ITERation
300 200

>>> COPY $WorkDir/H8_3.00.rasscf.h5 $CurrDir/

>>> COPY $WorkDir/GMJ_Fock_MO.csv $CurrDir/H8_3.00.GMJ_Fock_MO.csv

>>> COPY $WorkDir/GMJ_PT2_Fock_MO.csv $CurrDir/H8_3.00.GMJ_PT2_Fock_MO.csv

&MOTRA
Frozen=0
LUMORB

>>> COPY $WorkDir/GMJ_one_int_indx.csv $CurrDir/H8_3.00.GMJ_one_int_indx.csv

>>> COPY $WorkDir/GMJ_one_int.csv $CurrDir/H8_3.00.GMJ_one_int.csv

>>> COPY $WorkDir/GMJ_two_int_indx.csv $CurrDir/H8_3.00.GMJ_two_int_indx.csv

>>> COPY $WorkDir/GMJ_two_int.csv $CurrDir/H8_3.00.GMJ_two_int.csv

&CASPT2
Frozen
0
MAXITER
50

>>> FOREACH i IN (B,E,F,G,H)

  >>> FOREACH j IN (P,M)

    >>> IF (-FILE GMJ_e2_${i}_${j}.csv)

      >>> COPY $WorkDir/GMJ_RHS_${i}_${j}.csv $CurrDir/GMJ_RHS_${i}_${j}.csv

      >>> COPY $WorkDir/GMJ_IVECW_${i}_${j}.csv $CurrDir/GMJ_IVECW_${i}_${j}.csv

      >>> COPY $WorkDir/GMJ_IVECX_${i}_${j}.csv $CurrDir/GMJ_IVECX_${i}_${j}.csv

      >>> COPY $WorkDir/GMJ_IVECC2_${i}_${j}.csv $CurrDir/GMJ_IVECC2_${i}_${j}.csv

      >>> COPY $WorkDir/GMJ_e2_${i}_${j}.csv $CurrDir/GMJ_e2_${i}_${j}.csv

    >>> END IF

  >>> END FOREACH

>>> END FOREACH

>>> FOREACH i IN (A,C,D)

  >>> IF (-FILE GMJ_e2_$i.csv)

    >>> COPY $WorkDir/GMJ_RHS_$i.csv $CurrDir/GMJ_RHS_$i.csv

    >>> COPY $WorkDir/GMJ_IVECW_$i.csv $CurrDir/GMJ_IVECW_$i.csv

    >>> COPY $WorkDir/GMJ_IVECX_$i.csv $CurrDir/GMJ_IVECX_$i.csv

    >>> COPY $WorkDir/GMJ_IVECC2_$i.csv $CurrDir/GMJ_IVECC2_$i.csv

    >>> COPY $WorkDir/GMJ_e2_$i.csv $CurrDir/GMJ_e2_$i.csv

  >>> END IF

>>> END FOREACH

-- ----------------------------------

--- Start Module: gateway at Mon Nov 18 14:58:33 2024 ---
 
()()()()()()()()()()()()()()()()()()()()()()()()()()()()()()()()()()()()()()()()()()()()()()()()()()

                                              &GATEWAY

                                   only a single process is used
                       available to each process: 2.0 GB of memory, 1 thread?
()()()()()()()()()()()()()()()()()()()()()()()()()()()()()()()()()()()()()()()()()()()()()()()()()()
 
 ###############################################################################
 ###############################################################################
 ###                                                                         ###
 ###                                                                         ###
 ###                                                                         ###
 ###    WARNING: EXPERT option is ON!                                        ###
 ###                                                                         ###
 ###                                                                         ###
 ###############################################################################
 ###############################################################################
 
++    Symmetry information:
      ---------------------
 
                    Character Table for C1 
 
                             E  
                    a        1  x, y, xy, Rz, z, xz, Ry, yz, Rx, I
--
 
 
++    Basis set information:
      ----------------------
 
 
      Basis set label: H.ANO-RCC...2S1P.
 
      Electronic valence basis set:
      ------------------
      Associated Effective Charge   1.000000 au
      Associated Actual Charge      1.000000 au
      Nuclear Model: Point charge
 
      Shell  nPrim  nBasis  Cartesian Spherical Contaminant
         s       8       2        X                  
         p       4       1        X                  
--
 
 
++    Molecular structure info:
      -------------------------
 
                    ************************************************ 
                    **** Cartesian Coordinates / Bohr, Angstrom **** 
                    ************************************************ 
 
     Center  Label                x              y              z                     x              y              z
        1      H1               0.000000       0.000000       0.000000              0.000000       0.000000       0.000000
        2      H2               0.000000       0.000000       5.669178              0.000000       0.000000       3.000000
        3      H3               0.000000       0.000000      11.338357              0.000000       0.000000       6.000000
        4      H4               0.000000       0.000000      17.007535              0.000000       0.000000       9.000000
        5      H5               0.000000       0.000000      22.676714              0.000000       0.000000      12.000000
        6      H6               0.000000       0.000000      28.345892              0.000000       0.000000      15.000000
        7      H7               0.000000       0.000000      34.015070              0.000000       0.000000      18.000000
        8      H8               0.000000       0.000000      39.684249              0.000000       0.000000      21.000000
 
                    *************************************** 
                    *    InterNuclear Distances / Bohr    * 
                    *************************************** 
 
               1 H1            2 H2            3 H3            4 H4            5 H5            6 H6    
    1 H1       0.000000
    2 H2       5.669178        0.000000
    3 H3      11.338357        5.669178        0.000000
    4 H4      17.007535       11.338357        5.669178        0.000000
    5 H5      22.676714       17.007535       11.338357        5.669178        0.000000
    6 H6      28.345892       22.676714       17.007535       11.338357        5.669178        0.000000
    7 H7      34.015070       28.345892       22.676714       17.007535       11.338357        5.669178
    8 H8      39.684249       34.015070       28.345892       22.676714       17.007535       11.338357
 
               7 H7            8 H8    
    7 H7       0.000000
    8 H8       5.669178        0.000000
 
                    ******************************************* 
                    *    InterNuclear Distances / Angstrom    * 
                    ******************************************* 
 
               1 H1            2 H2            3 H3            4 H4            5 H5            6 H6    
    1 H1       0.000000
    2 H2       3.000000        0.000000
    3 H3       6.000000        3.000000        0.000000
    4 H4       9.000000        6.000000        3.000000        0.000000
    5 H5      12.000000        9.000000        6.000000        3.000000        0.000000
    6 H6      15.000000       12.000000        9.000000        6.000000        3.000000        0.000000
    7 H7      18.000000       15.000000       12.000000        9.000000        6.000000        3.000000
    8 H8      21.000000       18.000000       15.000000       12.000000        9.000000        6.000000
 
               7 H7            8 H8    
    7 H7       0.000000
    8 H8       3.000000        0.000000
--
 
 
            Nuclear Potential Energy              2.42413560 au
 
 ###############################################################################
 ###############################################################################
 ###                                                                         ###
 ###                                                                         ###
 ###    There were warnings during the execution                             ###
 ###    Please, check the output with care!                                  ###
 ###                                                                         ###
 ###                                                                         ###
 ###############################################################################
 ###############################################################################
--- Stop Module: gateway at Mon Nov 18 14:58:33 2024 /rc=_RC_ALL_IS_WELL_ ---
*** files: xmldump
    saved to directory /home/grierjones/DDCASPT2/hydrogen_comps/H8_chain/H8_3.00

--- Start Module: seward at Mon Nov 18 14:58:33 2024 ---
 
()()()()()()()()()()()()()()()()()()()()()()()()()()()()()()()()()()()()()()()()()()()()()()()()()()

                                              &SEWARD

                                   only a single process is used
                       available to each process: 2.0 GB of memory, 1 thread?
()()()()()()()()()()()()()()()()()()()()()()()()()()()()()()()()()()()()()()()()()()()()()()()()()()
 
 ###############################################################################
 ###############################################################################
 ###                                                                         ###
 ###                                                                         ###
 ###                                                                         ###
 ###    WARNING: EXPERT option is ON!                                        ###
 ###                                                                         ###
 ###                                                                         ###
 ###############################################################################
 ###############################################################################
               SEWARD will generate:
                  Multipole Moment integrals up to order  2
                  Kinetic Energy integrals
                  Nuclear Attraction integrals (point charge)
                  One-Electron Hamiltonian integrals
                  Velocity integrals
                  Relativistic Douglas-Kroll-Hess integrals:
                    - Parametrization         : EXP
                    - DKH order of Hamiltonian: 2
                    - DKH order of Properties : 0
                         - multipole moment operators
                         - electric potential operators
                         - contact operators
                  Atomic mean-field integrals
                  Two-Electron Repulsion integrals
 
                   Integrals are discarded if absolute value <: 0.10E-13
                   Integral cutoff threshold is set to       <: 0.10E-15
 
            Nuclear Potential Energy              2.42413560 au
 
 
      Basis set specifications :
      Symmetry species         a  
      Basis functions           40
 
 
  Input file to MOLDEN was generated!
 
 ###############################################################################
 ###############################################################################
 ###                                                                         ###
 ###                                                                         ###
 ###    There were warnings during the execution                             ###
 ###    Please, check the output with care!                                  ###
 ###                                                                         ###
 ###                                                                         ###
 ###############################################################################
 ###############################################################################
--- Stop Module: seward at Mon Nov 18 14:58:33 2024 /rc=_RC_ALL_IS_WELL_ ---
*** files: H8_3.00.GssOrb H8_3.00.guessorb.h5 H8_3.00.guessorb.molden xmldump
    saved to directory /home/grierjones/DDCASPT2/hydrogen_comps/H8_chain/H8_3.00

*** symbolic link created: INPORB -> H8_3.00.GssOrb
--- Start Module: scf at Mon Nov 18 14:58:33 2024 ---
 
()()()()()()()()()()()()()()()()()()()()()()()()()()()()()()()()()()()()()()()()()()()()()()()()()()

                                                &SCF

                                   only a single process is used
                       available to each process: 2.0 GB of memory, 1 thread?
()()()()()()()()()()()()()()()()()()()()()()()()()()()()()()()()()()()()()()()()()()()()()()()()()()
 
++    Input section:
      --------------
 
      Header of the integral files:
      
       Integrals generated by seward 4.2.0  , Mon Nov 18 14:58:33 2024
 
 
      Cartesian coordinates in Angstrom:
      -----------------------------------------------------
      No.  Label        X            Y            Z        
      -----------------------------------------------------
       1   H1         0.00000000   0.00000000   0.00000000
       2   H2         0.00000000   0.00000000   3.00000000
       3   H3         0.00000000   0.00000000   6.00000000
       4   H4         0.00000000   0.00000000   9.00000000
       5   H5         0.00000000   0.00000000  12.00000000
       6   H6         0.00000000   0.00000000  15.00000000
       7   H7         0.00000000   0.00000000  18.00000000
       8   H8         0.00000000   0.00000000  21.00000000
      -----------------------------------------------------
      Nuclear repulsion energy =    2.42413560
--
 
++    Orbital specifications:
      -----------------------
 
      Symmetry species               1
                                     a
      Frozen orbitals                0
      Occupied orbitals              4
      Secondary orbitals            36
      Deleted orbitals               0
      Total number of orbitals      40
      Number of basis functions     40
--
 
      Molecular charge                           0.000
 
++    Optimization specifications:
      ----------------------------
 
      SCF Algorithm: Conventional
      Minimized density differences are used
      Number of density matrices in core                5
      Maximum number of NDDO SCF iterations           400
      Maximum number of HF SCF iterations             400
      Threshold for SCF energy change            0.10E-08
      Threshold for density matrix               0.10E-03
      Threshold for Fock matrix                  0.15E-03
      Threshold for linear dependence            0.10E-08
      Threshold at which DIIS is turned on       0.15E+00
      Threshold at which QNR/C2DIIS is turned on 0.75E-01
      Threshold for Norm(delta) (QNR/C2DIIS)     0.20E-04
      DIIS extrapolation of the SCF procedure
      All orbitals punched on: SCFORB
--
 
      Input vectors read from INPORB
      Orbital file label: *Guess orbitals
 
 
++ Convergence information
                                   SCF        iterations: Energy and convergence statistics
 
Iter     Tot. SCF        One-elec.       Two-elec.     Energy      Max Dij or  Max Fij      DNorm      TNorm      AccCon     Time
         Energy          Energy          Energy        Change      Delta Norm                                                in Sec.
   1    -3.043553988    -8.890558830     3.422869240   0.00E+00    0.42E+00*   0.13E+00*    0.46E+01   0.69E+01   None         0.
   2    -3.307445906    -8.859411886     3.127830377  -0.26E+00*   0.16E+00*   0.25E-01*    0.14E+01   0.66E+01   EDIIS        0.
   3    -3.320249750    -8.798767533     3.054382179  -0.13E-01*   0.12E+00*   0.10E-01*    0.35E+00   0.65E+01   EDIIS        0.
   4    -3.323217316    -8.809296130     3.061943212  -0.30E-02*   0.71E-01*   0.53E-02*    0.22E+00   0.65E+01   c2DIIS       0.
   5    -3.324398951    -8.795286349     3.046751795  -0.12E-02*   0.37E-01*   0.45E-02*    0.41E-01   0.65E+01   QNRc2DIIS    0.
   6    -3.325033172    -8.801386019     3.052217244  -0.63E-03*   0.54E-01*   0.35E-02*    0.26E-01   0.65E+01   QNRc2DIIS    0.
   7    -3.325487648    -8.796992836     3.047369584  -0.45E-03*   0.69E-02*   0.81E-03*    0.18E-01   0.65E+01   QNRc2DIIS    0.
   8    -3.325490835    -8.795816453     3.046190015  -0.32E-05*   0.34E-02*   0.65E-03*    0.71E-02   0.65E+01   QNRc2DIIS    0.
   9    -3.325499609    -8.796551844     3.046916632  -0.88E-05*   0.42E-03*   0.40E-04     0.34E-02   0.65E+01   QNRc2DIIS    0.
  10    -3.325499660    -8.796576238     3.046940974  -0.52E-07*   0.13E-03*   0.10E-04     0.62E-03   0.65E+01   QNRc2DIIS    0.
  11    -3.325499665    -8.796574273     3.046939005  -0.49E-08*   0.48E-04*   0.29E-05     0.11E-03   0.65E+01   QNRc2DIIS    0.
  12    -3.325499666    -8.796572809     3.046937540  -0.49E-09    0.29E-05    0.40E-06     0.14E-04   0.65E+01   QNRc2DIIS    0.
 
       Convergence after 12 Macro Iterations
--
 
 *****************************************************************************************************************************
 *                                                                                                                           *
 *                                             SCF/KS-DFT Program, Final results                                             *
 *                                                                                                                           *
 *                                                                                                                           *
 *                                                                                                                           *
 *                                                       Final Results                                                       *
 *                                                                                                                           *
 *****************************************************************************************************************************
 
::    Total SCF energy                                 -3.3254996656
      One-electron energy                              -8.7965728086
      Two-electron energy                               3.0469375398
      Nuclear repulsion energy                          2.4241356032
      Kinetic energy (interpolated)                     2.6402790109
      Virial theorem                                    1.2595258501
      Total spin, S(S+1)                                0.0000000000
      Total spin, S                                     0.0000000000
      Max non-diagonal density matrix element           0.0000034494
      Max non-diagonal Fock matrix element              0.0000000841
 
 
      All orbitals with orbital energies smaller than  E(LUMO)+0.5 are printed
 
++    Molecular orbitals:
      -------------------
 
      Title: SCF orbitals

      Molecular orbitals for symmetry species 1: a  
 
          Orbital            1         2         3         4         5         6         7         8         9        10    
          Energy           -0.3557   -0.3458   -0.3318   -0.3180   -0.1598   -0.1408   -0.1211   -0.1068    0.3104    0.3203
          Occ. No.          2.0000    2.0000    2.0000    2.0000    0.0000    0.0000    0.0000    0.0000    0.0000    0.0000
 
        1 H1     1s         0.1841   -0.3385    0.4052   -0.2990    0.3289   -0.4716    0.4262   -0.2479   -0.0962    0.1563
        2 H1     2s         0.0397   -0.0738    0.0902   -0.0682    0.0971   -0.1435    0.1326   -0.0777    0.1743   -0.3199
        3 H1     2px       -0.0000   -0.0000    0.0000   -0.0000    0.0000   -0.0000    0.0000   -0.0000   -0.0000    0.0000
        4 H1     2py        0.0000   -0.0000   -0.0000    0.0000    0.0000   -0.0000   -0.0000    0.0000    0.0000   -0.0000
        5 H1     2pz        0.0045   -0.0075    0.0077   -0.0049   -0.0026    0.0060   -0.0081    0.0060    0.0016   -0.0032
        6 H2     1s         0.2306   -0.3846    0.3957   -0.2477   -0.2062    0.4213   -0.5073    0.3501   -0.1642    0.2168
        7 H2     2s         0.0431   -0.0835    0.1017   -0.0731   -0.0562    0.1296   -0.1652    0.1157    0.2267   -0.3308
        8 H2     2px        0.0000   -0.0000    0.0000   -0.0000   -0.0000    0.0000   -0.0000    0.0000   -0.0000    0.0000
        9 H2     2py        0.0000   -0.0000   -0.0000   -0.0000   -0.0000   -0.0000   -0.0000   -0.0000   -0.0000    0.0000
       10 H2     2pz       -0.0015    0.0043   -0.0076    0.0070   -0.0095    0.0100   -0.0039   -0.0007    0.0036   -0.0003
       11 H3     1s         0.3682   -0.2870   -0.1736    0.4038   -0.4418    0.1721    0.3843   -0.4854   -0.1940    0.1666
       12 H3     2s         0.0779   -0.0553   -0.0530    0.1053   -0.1320    0.0488    0.1269   -0.1574    0.2826   -0.2690
       13 H3     2px        0.0000    0.0000    0.0000   -0.0000    0.0000    0.0000    0.0000   -0.0000    0.0000    0.0000
       14 H3     2py        0.0000   -0.0000   -0.0000   -0.0000    0.0000    0.0000    0.0000    0.0000   -0.0000   -0.0000
       15 H3     2pz        0.0053   -0.0016   -0.0062    0.0073    0.0085   -0.0103    0.0014    0.0059   -0.0004    0.0066
       16 H4     1s         0.3870   -0.2136   -0.2666    0.3822    0.3917   -0.3620   -0.2192    0.5232   -0.2160    0.0598
       17 H4     2s         0.0778   -0.0565   -0.0561    0.1037    0.1142   -0.1178   -0.0677    0.1709    0.3123   -0.0975
       18 H4     2px       -0.0000    0.0000    0.0000   -0.0000    0.0000    0.0000    0.0000   -0.0000   -0.0000    0.0000
       19 H4     2py        0.0000    0.0000    0.0000   -0.0000   -0.0000   -0.0000   -0.0000   -0.0000    0.0000   -0.0000
       20 H4     2pz       -0.0042    0.0057    0.0013   -0.0083    0.0109    0.0004   -0.0093    0.0032    0.0030    0.0078
       21 H5     1s         0.3870    0.2136   -0.2666   -0.3822    0.3917    0.3620   -0.2192   -0.5232   -0.2160   -0.0598
       22 H5     2s         0.0778    0.0565   -0.0561   -0.1037    0.1142    0.1178   -0.0677   -0.1709    0.3123    0.0975
       23 H5     2px        0.0000   -0.0000    0.0000   -0.0000   -0.0000   -0.0000   -0.0000    0.0000   -0.0000    0.0000
       24 H5     2py       -0.0000    0.0000   -0.0000   -0.0000   -0.0000   -0.0000    0.0000   -0.0000    0.0000    0.0000
       25 H5     2pz        0.0042    0.0057   -0.0013   -0.0083   -0.0109    0.0004    0.0093    0.0032   -0.0030    0.0078
       26 H6     1s         0.3682    0.2870   -0.1736   -0.4038   -0.4418   -0.1721    0.3843    0.4854   -0.1940   -0.1666
       27 H6     2s         0.0779    0.0553   -0.0530   -0.1053   -0.1320   -0.0488    0.1269    0.1574    0.2826    0.2690
       28 H6     2px        0.0000    0.0000   -0.0000   -0.0000    0.0000    0.0000   -0.0000   -0.0000    0.0000   -0.0000
       29 H6     2py       -0.0000   -0.0000    0.0000   -0.0000   -0.0000   -0.0000   -0.0000    0.0000    0.0000   -0.0000
       30 H6     2pz       -0.0053   -0.0016    0.0062    0.0073   -0.0085   -0.0103   -0.0014    0.0059    0.0004    0.0066
       31 H7     1s         0.2306    0.3846    0.3957    0.2477   -0.2062   -0.4213   -0.5073   -0.3501   -0.1642   -0.2168
       32 H7     2s         0.0431    0.0835    0.1017    0.0731   -0.0562   -0.1296   -0.1652   -0.1157    0.2267    0.3308
       33 H7     2px        0.0000   -0.0000    0.0000    0.0000   -0.0000    0.0000    0.0000   -0.0000    0.0000   -0.0000
       34 H7     2py       -0.0000    0.0000    0.0000    0.0000   -0.0000   -0.0000   -0.0000    0.0000   -0.0000    0.0000
       35 H7     2pz        0.0015    0.0043    0.0076    0.0070    0.0095    0.0100    0.0039   -0.0007   -0.0036   -0.0003
       36 H8     1s         0.1841    0.3385    0.4052    0.2990    0.3289    0.4716    0.4262    0.2479   -0.0962   -0.1563
       37 H8     2s         0.0397    0.0738    0.0902    0.0682    0.0971    0.1435    0.1326    0.0777    0.1743    0.3199
       38 H8     2px        0.0000    0.0000    0.0000   -0.0000   -0.0000   -0.0000    0.0000   -0.0000    0.0000    0.0000
       39 H8     2py       -0.0000    0.0000   -0.0000    0.0000    0.0000    0.0000   -0.0000    0.0000    0.0000    0.0000
       40 H8     2pz       -0.0045   -0.0075   -0.0077   -0.0049    0.0026    0.0060    0.0081    0.0060   -0.0016   -0.0032
 
          Orbital           11    
          Energy            0.3383
          Occ. No.          0.0000
 
        1 H1     1s        -0.1609
        2 H1     2s         0.4175
        3 H1     2px       -0.0000
        4 H1     2py        0.0000
        5 H1     2pz        0.0030
        6 H2     1s        -0.1387
        7 H2     2s         0.2526
        8 H2     2px        0.0000
        9 H2     2py        0.0000
       10 H2     2pz       -0.0139
       11 H3     1s         0.0289
       12 H3     2s        -0.0581
       13 H3     2px       -0.0000
       14 H3     2py        0.0000
       15 H3     2pz       -0.0167
       16 H4     1s         0.1732
       17 H4     2s        -0.3389
       18 H4     2px        0.0000
       19 H4     2py        0.0000
       20 H4     2pz       -0.0095
       21 H5     1s         0.1732
       22 H5     2s        -0.3389
       23 H5     2px       -0.0000
       24 H5     2py        0.0000
       25 H5     2pz        0.0095
       26 H6     1s         0.0289
       27 H6     2s        -0.0581
       28 H6     2px       -0.0000
       29 H6     2py       -0.0000
       30 H6     2pz        0.0167
       31 H7     1s        -0.1387
       32 H7     2s         0.2526
       33 H7     2px        0.0000
       34 H7     2py       -0.0000
       35 H7     2pz        0.0139
       36 H8     1s        -0.1609
       37 H8     2s         0.4175
       38 H8     2px       -0.0000
       39 H8     2py        0.0000
       40 H8     2pz       -0.0030
--
 
 
++    Molecular charges:
      ------------------
 
      Mulliken charges per centre and basis function type
      ---------------------------------------------------
 
                H1      H2      H3      H4      H5      H6      H7      H8    
      1s       0.8858  0.9168  0.9022  0.9055  0.9055  0.9022  0.9168  0.8858
      2s       0.0934  0.0990  0.0940  0.0951  0.0951  0.0940  0.0990  0.0934
      2px      0.0000  0.0000  0.0000  0.0000  0.0000  0.0000  0.0000  0.0000
      2pz      0.0019  0.0021  0.0021  0.0021  0.0021  0.0021  0.0021  0.0019
      2py      0.0000  0.0000  0.0000  0.0000  0.0000  0.0000  0.0000  0.0000
      Total    0.9811  1.0179  0.9984  1.0027  1.0027  0.9984  1.0179  0.9811
 
      N-E      0.0189 -0.0179  0.0016 -0.0027 -0.0027  0.0016 -0.0179  0.0189
 
      Total electronic charge=    8.000000
 
      Total            charge=   -0.000000
--
 
 
  Input file to MOLDEN was generated!
 
 
++    Static properties:
      ------------------
 
 
      LoProp Charges per center
 

                   H1       H2       H3       H4       H5       H6       H7       H8    
      Nuclear      1.0000   1.0000   1.0000   1.0000   1.0000   1.0000   1.0000   1.0000
      Electronic  -0.9868  -1.0117  -0.9989  -1.0026  -1.0026  -0.9989  -1.0117  -0.9868
 
      Total        0.0132  -0.0117   0.0011  -0.0026  -0.0026   0.0011  -0.0117   0.0132
--
 
 
++    Natural Bond Order analysis
      ---------------------------
      Based on LoProp computed density
      -------------------------------------------------------------------------------------
      Atom A       Atom B       Bond Order
      -------------------------------------------------------------------------------------
      NBO located      0.981 non-bonded electrons on atom H1        
      NBO located      1.003 non-bonded electrons on atom H3        
      NBO located      1.008 non-bonded electrons on atom H4        
      NBO located      1.008 non-bonded electrons on atom H5        
      NBO located      1.003 non-bonded electrons on atom H6        
      NBO located      0.981 non-bonded electrons on atom H8        
      The remaining    2.016 electrons are to be considered as diffuse
--
 
 
++    Molecular properties:
      ---------------------
 
      Charge (e):
                      =   -0.0000
      Dipole Moment (Debye):
      Origin of the operator (Ang)=    0.0000    0.0000    0.0000
                   X= -5.6170E-14               Y= -5.8203E-15               Z=  1.1559E-12           Total=  1.1572E-12
      Quadrupole Moment (Debye*Ang):
      Origin of the operator (Ang)=    0.0000    0.0000   10.5000
                  XX= -1.9988E+01              XY=  2.4258E-29              XZ=  5.3172E-13              YY= -1.9988E+01
                  YZ=  1.7112E-14              ZZ= -1.0264E+00
      In traceless form (Debye*Ang)
                  XX= -9.4806E+00              XY=  3.6388E-29              XZ=  7.9758E-13              YY= -9.4806E+00
                  YZ=  2.5668E-14              ZZ=  1.8961E+01
--
 
 
  Input file to MOLDEN was generated!
 
 ###############################################################################
 ###############################################################################
 ###                                                                         ###
 ###                                                                         ###
 ###    RunFile label nBas                                                   ###
 ###    was used       78 times                                              ###
 ###                                                                         ###
 ###                                                                         ###
 ###############################################################################
 ###############################################################################
--- Stop Module: scf at Mon Nov 18 14:58:34 2024 /rc=_RC_ALL_IS_WELL_ ---
*** files: H8_3.00.LprOrb H8_3.00.LoProp.molden H8_3.00.scf.molden H8_3.00.ScfOrb H8_3.00.scf.h5 xmldump
    saved to directory /home/grierjones/DDCASPT2/hydrogen_comps/H8_chain/H8_3.00

>>> COPY /tmp/H8_3.00/H8_3.00.scf.h5 /home/grierjones/DDCASPT2/hydrogen_comps/H8_chain/H8_3.00/

*** symbolic link created: INPORB -> H8_3.00.ScfOrb
--- Start Module: rasscf at Mon Nov 18 14:58:34 2024 ---
 
()()()()()()()()()()()()()()()()()()()()()()()()()()()()()()()()()()()()()()()()()()()()()()()()()()

                                              &RASSCF

                                   only a single process is used
                       available to each process: 2.0 GB of memory, 1 thread?
()()()()()()()()()()()()()()()()()()()()()()()()()()()()()()()()()()()()()()()()()()()()()()()()()()
 
 
 *************** WARNING ****************
 ###############################################################################
 ###############################################################################
 ###                                                                         ###
 ###                                                                         ###
 ###    Too many macro-iterations.                                           ###
 ###                                                                         ###
 ###                                                                         ###
 ###############################################################################
 ###############################################################################
 Too many macro-iterations requested.
 Reset to maximum, new MAXIT=     200
 ****************************************
 
 *************** WARNING ****************
 ###############################################################################
 ###############################################################################
 ###                                                                         ###
 ###                                                                         ###
 ###    Too many SX-iterations.                                              ###
 ###                                                                         ###
 ###                                                                         ###
 ###############################################################################
 ###############################################################################
 Too many SX-iterations requested.
 Reset to maximum, new ITMAX=     100
 ****************************************
 
      Header of the ONEINT file:
      --------------------------
      
      Integrals generated by seward 4.2.0  , Mon Nov 18 14:58:33 2024
 
 
      OrdInt status: non-squared
 
 
      Cartesian coordinates in Angstrom:
      -----------------------------------------------------
      No.  Label        X            Y            Z        
      -----------------------------------------------------
       1   H1         0.00000000   0.00000000   0.00000000
       2   H2         0.00000000   0.00000000   3.00000000
       3   H3         0.00000000   0.00000000   6.00000000
       4   H4         0.00000000   0.00000000   9.00000000
       5   H5         0.00000000   0.00000000  12.00000000
       6   H6         0.00000000   0.00000000  15.00000000
       7   H7         0.00000000   0.00000000  18.00000000
       8   H8         0.00000000   0.00000000  21.00000000
      -----------------------------------------------------
      Nuclear repulsion energy =    2.42413560
 
++    Wave function specifications:
      -----------------------------
 
      Number of closed shell electrons           0
      Number of electrons in active shells       8
      Max number of holes in RAS1 space          0
      Max nr of electrons in RAS3 space          0
      Number of inactive orbitals                0
      Number of active orbitals                  8
      Number of secondary orbitals              32
      Spin quantum number                      0.0
      State symmetry                             1
--
 
++    Orbital specifications:
      -----------------------
 
      Symmetry species                           1
                                                 a
      Frozen orbitals                            0
      Inactive orbitals                          0
      Active orbitals                            8
      RAS1 orbitals                              0
      RAS2 orbitals                              8
      RAS3 orbitals                              0
      Secondary orbitals                        32
      Deleted orbitals                           0
      Number of basis functions                 40
--
 
++    CI expansion specifications:
      ----------------------------
 
      Number of CSFs                          1764
      Number of determinants                  2485
      Number of root(s) required                 1
      Root chosen for geometry opt.              1
      CI root used                               1
         
      highest root included in the CI            1
      max. size of the explicit Hamiltonian    200
--
 
++    Optimization specifications:
      ----------------------------
 
      RASSCF algorithm: Conventional
      Maximum number of macro iterations       200
      Maximum number of SX iterations          100
      Threshold for RASSCF energy            0.100E-07
      Threshold for max MO rotation          0.100E+00
      Threshold for max BLB element          0.100E-03
      Level shift parameter                  0.500E+00
      Make Quasi-Newton update
--
 
      The MO-coefficients are taken from the file:
      /home/grierjones/DDCASPT2/hydrogen_comps/H8_chain/H8_2.98/H8_2.98.RasOrb                                                        
      Title: RASSCF average (pseudo-natural) orbitals                                      
 
      Total molecular charge    0.00
 
      ************************************************************************************************************************
      *                                                                                                                      *
      *                                            Wave function control section                                             *
      *                                                                                                                      *
      ************************************************************************************************************************
 
 
                                         RASSCF iterations: Energy and convergence statistics
                                         ----------------------------------------------------
 
      Iter CI   SX   CI       RASSCF       Energy    max ROT     max BLB   max BLB  Level Ln srch  Step   QN   Walltime
          iter iter root      energy       change     param      element    value   shift minimum  type update hh:mm:ss
 Nr of preliminary CI iterations:   8
        1   1    4    1    -3.98851356    0.00E+00  -0.15E-02    4  14 1  0.86E-03*  0.00   0.00    SX    NO    0:00:00
        2   1    4    1    -3.98852100   -0.74E-05* -0.59E-03    7  13 1 -0.36E-03*  0.00   0.00    SX    NO    0:00:00
        3   1    3    1    -3.98852204   -0.10E-05* -0.25E-03    7  13 1  0.15E-03*  0.00   0.00    SX    NO    0:00:00
        No convergence in the CI section: MAXJT will be increased to 
                    60
        4  48    4    1    -3.98885670   -0.33E-03* -0.66E-03    2  10 1  0.39E-03*  0.01   0.00    SX    NO    0:00:00
        5  10    3    1    -3.98888325   -0.27E-04* -0.18E-03    2  10 1 -0.13E-03*  0.01   1.00    QN   YES    0:00:00
        6  35    4    1    -3.98890788   -0.25E-04*  0.14E-01    7  13 1 -0.29E-03*  0.01   1.00    QN   YES    0:00:00
        No convergence in the CI section: MAXJT will be increased to 
                    96
        7  84    4    1    -3.98846909    0.44E-03*  0.90E-02    2  10 1  0.11E-01*  0.01   0.02    LS   YES    0:00:00
        8   4    4    1    -3.98886774   -0.40E-03* -0.39E-02    2  10 1  0.36E-02*  0.01   1.44    LS   YES    0:00:00
        9   4    4    1    -3.98890932   -0.42E-04* -0.22E-03    7  13 1 -0.62E-03*  0.01   1.02    QN   YES    0:00:00
       10   1    4    1    -3.98890910    0.22E-06*  0.68E-03    7  13 1 -0.59E-03*  0.01   0.09    SX   YES    0:00:00
       11 102    3    1    -3.98891407   -0.50E-05*  0.61E-04    5  39 1  0.46E-04   0.01   1.02    QN   YES    0:00:00
       12   1    3    1    -3.98891409   -0.26E-07*  0.11E-04    2  10 1 -0.94E-05   0.01   0.94    QN   YES    0:00:00
       13   9    3    1    -3.98891415   -0.57E-07*  0.65E-05    2  12 1  0.73E-05   0.01   1.00    QN   YES    0:00:00
       14   1    3    1    -3.98891415   -0.37E-09   0.53E-05    2  10 1  0.53E-05   0.01   0.93    QN   YES    0:00:00
      Convergence after 14 iterations
 
  Dmat in MO in SXCTL bf call to SXHAM                                                                                    
  mat. size =     8x    8
 
        1.1861343501464603
        0.0000000000000099      1.1617765562246030
       -0.0000401662497144      0.0000000000001323      1.1233657073624499
        0.0000000000001096     -0.0000919899427612     -0.0000000000000753      1.0768576790150237
        0.0002041111104020     -0.0000000000000300     -0.0002648143710755      0.0000000000000933      0.8377564258948857
       -0.0000000000000635      0.0003021136230754     -0.0000000000000018     -0.0003345319263067     -0.0000000000000934
        0.8771635231555381
        0.0000472496081027      0.0000000000000648     -0.0003629004475628     -0.0000000000000262     -0.0000637268424575
       -0.0000000000000651      0.9243643049514769
        0.0000000000000096     -0.0001883170232158      0.0000000000000539      0.0000626214010586     -0.0000000000000489
        0.0000457078455754      0.0000000000001629      0.8125814532495629
       15   1    3    1    -3.98891415   -0.29E-09   0.53E-05    2  10 1  0.15E-05   0.01   0.93    QN   YES    0:00:00
 
      ************************************************************************************************************************
                                                      Wave function printout:
                       occupation of active orbitals, and spin coupling of open shells (u,d: Spin up or down)
      ************************************************************************************************************************
 
      Note: transformation to natural orbitals
      has been made, which may change the order of the CSFs.
 
      printout of CI-coefficients larger than  0.05 for root  1
      energy=      -3.988914
      conf/sym  11111111     Coeff  Weight
             1  22220000   0.28465 0.08102
            23  22200020  -0.16151 0.02609
            32  22ud0ud0  -0.18072 0.03266
            40  2u2d0200  -0.05795 0.00336
            41  2u2du0d0   0.15134 0.02290
            45  2u2d0u0d  -0.06428 0.00413
            49  u22dud00   0.08742 0.00764
            56  u22d00ud  -0.17142 0.02939
            60  22020200  -0.11898 0.01416
            61  2202u0d0   0.05791 0.00335
            69  2ud2ud00   0.16629 0.02765
            76  2ud200ud  -0.08748 0.00765
            78  u2d22000  -0.05169 0.00267
            81  u2d2u0d0   0.06471 0.00419
            85  u2d20u0d  -0.13956 0.01948
            88  20222000  -0.10707 0.01146
            95  20220u0d  -0.05175 0.00268
           104  ud22u00d   0.14397 0.02073
           117  02220002  -0.11278 0.01272
           120  22uu0dd0  -0.05231 0.00274
           125  2u2ud0d0   0.05385 0.00290
           135  u22u00dd   0.06697 0.00448
           559  22000220   0.11450 0.01311
           578  2ud0ud20  -0.13019 0.01695
           607  u2d00u2d  -0.11891 0.01414
           617  20202020   0.09622 0.00926
           646  ud20u02d   0.09938 0.00988
           663  0220udud   0.05197 0.00270
           673  02200022   0.09566 0.00915
           676  2u0du2d0  -0.11297 0.01276
           704  u20d02ud  -0.10350 0.01071
           715  20ud2ud0   0.09784 0.00957
           743  udududud   0.09581 0.00918
           745  ududuudd   0.11693 0.01367
           772  02ud0ud2   0.09264 0.00858
           774  uudd2200   0.05021 0.00252
           783  uuddudud   0.14235 0.02026
           785  uudduudd  -0.05389 0.00290
           793  uudd0022   0.05109 0.00261
           802  u02d20ud  -0.09578 0.00917
           831  0u2du0d2  -0.09885 0.00977
           834  20022200   0.09347 0.00874
           843  2002udud   0.05067 0.00257
           861  ud02u20d   0.09065 0.00822
           890  02020202   0.08372 0.00701
           900  u0d22u0d  -0.10142 0.01029
           929  0ud2ud02  -0.10405 0.01083
           948  00222002   0.08447 0.00714
          1595  20002220  -0.10049 0.01010
          1608  ud00u22d   0.12113 0.01467
          1624  02000222  -0.08492 0.00721
          1627  u0d02u2d  -0.10787 0.01164
          1636  0ud022ud  -0.06345 0.00403
          1643  0ud0ud22   0.12190 0.01486
          1652  00202022  -0.08050 0.00648
          1656  u00d22ud  -0.12150 0.01476
          1663  u00dud22   0.06343 0.00402
          1671  0u0du2d2   0.10172 0.01035
          1680  00ud2ud2  -0.11275 0.01271
          1689  00022202  -0.09208 0.00848
          1764  00002222   0.14840 0.02202
 
      Natural orbitals and occupation numbers for root  1
      sym 1:   1.186135   1.161777   1.123367   1.076858   0.837756   0.877163   0.924364   0.812581
 
      ************************************************************************************************************************
      *                                                                                                                      *
      *                                                    Final results                                                     *
      *                                                                                                                      *
      ************************************************************************************************************************
 
 
++    Wave function specifications:
      -----------------------------
 
      Number of closed shell electrons           0
      Number of electrons in active shells       8
      Max number of holes in RAS1 space          0
      Max nr of electrons in RAS3 space          0
      Number of inactive orbitals                0
      Number of active orbitals                  8
      Number of secondary orbitals              32
      Spin quantum number                      0.0
      State symmetry                             1
--
 
++    Orbital specifications:
      -----------------------
 
      Symmetry species                           1
                                                 a
      Frozen orbitals                            0
      Inactive orbitals                          0
      Active orbitals                            8
      RAS1 orbitals                              0
      RAS2 orbitals                              8
      RAS3 orbitals                              0
      Secondary orbitals                        32
      Deleted orbitals                           0
      Number of basis functions                 40
--
 
++    CI expansion specifications:
      ----------------------------
 
      Number of CSFs                          1764
      Number of determinants                  2485
      Number of root(s) required                 1
      CI root used                               1
      highest root included in the CI            1
      Root passed to geometry opt.               1
--
 
++    Final optimization conditions:
      ------------------------------
 
      Average CI energy                              -3.98891415
      RASSCF energy for state  1                     -3.98891415
      Super-CI energy                                -0.00000000
      RASSCF energy change                            0.00000000
      Max change in MO coefficients              -0.447E-05
      Max non-diagonal density matrix element     0.528E-05
      Maximum BLB matrix element                  0.147E-05
      (orbital pair   2,  10 in symmetry   1)
      Norm of electronic gradient            0.499E-05
--
 
 
      Final state energy(ies):
      ------------------------
 
::    RASSCF root number  1 Total energy:     -3.98891415
 
++    Molecular orbitals:
      -------------------
 
      Pseudonatural active orbitals and approximate occupation numbers
 
 
 
 
      Molecular orbitals for symmetry species 1: a  
 
 
      Orbital                1         2         3         4         5         6         7         8         9        10
      Energy            0.0000    0.0000    0.0000    0.0000    0.0000    0.0000    0.0000    0.0000    0.3190    0.3286
      Occ. No.          1.1861    1.1618    1.1234    1.0769    0.8378    0.8772    0.9244    0.8126    0.0000    0.0000
 
    1 H1     1s         0.2075   -0.3615    0.4173   -0.3310    0.4059   -0.4552   -0.3492   -0.2376   -0.0679   -0.1021
    2 H1     2s         0.0157   -0.0276    0.0326   -0.0269    0.0488   -0.0500   -0.0350   -0.0305    0.1810    0.3258
    3 H1     2px       -0.0000    0.0000    0.0000   -0.0000   -0.0000    0.0000    0.0000    0.0000    0.0000   -0.0000
    4 H1     2py        0.0000   -0.0000   -0.0000    0.0000    0.0000   -0.0000   -0.0000    0.0000   -0.0000   -0.0000
    5 H1     2pz        0.0000    0.0000   -0.0001    0.0001    0.0018   -0.0013   -0.0005   -0.0014    0.0030    0.0049
    6 H2     1s         0.2838   -0.4321    0.3855   -0.1968   -0.5001    0.4114    0.1847    0.3447   -0.1186   -0.1524
    7 H2     2s         0.0188   -0.0330    0.0364   -0.0244   -0.0693    0.0465    0.0136    0.0533    0.2367    0.3436
    8 H2     2px        0.0000   -0.0000   -0.0000    0.0000    0.0000    0.0000   -0.0000    0.0000   -0.0000   -0.0000
    9 H2     2py        0.0000    0.0000   -0.0000   -0.0000   -0.0000    0.0000   -0.0000   -0.0000    0.0000    0.0000
   10 H2     2pz        0.0003   -0.0003    0.0002   -0.0003    0.0003   -0.0011   -0.0010    0.0003    0.0019   -0.0015
   11 H3     1s         0.3761   -0.3084   -0.1464    0.4436    0.3704    0.1440    0.4617   -0.4503   -0.1420   -0.1147
   12 H3     2s         0.0269   -0.0198   -0.0177    0.0425    0.0554    0.0137    0.0502   -0.0689    0.2893    0.2729
   13 H3     2px       -0.0000    0.0000   -0.0000    0.0000   -0.0000   -0.0000   -0.0000    0.0000    0.0000    0.0000
   14 H3     2py        0.0000    0.0000   -0.0000   -0.0000    0.0000    0.0000    0.0000   -0.0000   -0.0000    0.0000
   15 H3     2pz       -0.0003    0.0003    0.0001   -0.0005   -0.0004    0.0015    0.0007   -0.0009    0.0015   -0.0052
   16 H4     1s         0.4056   -0.1711   -0.3428    0.3769   -0.1870   -0.3912   -0.3836    0.4898   -0.1550   -0.0453
   17 H4     2s         0.0280   -0.0165   -0.0251    0.0382   -0.0235   -0.0525   -0.0391    0.0760    0.3164    0.1018
   18 H4     2px        0.0000    0.0000    0.0000   -0.0000   -0.0000   -0.0000   -0.0000   -0.0000   -0.0000   -0.0000
   19 H4     2py       -0.0000    0.0000   -0.0000   -0.0000   -0.0000   -0.0000    0.0000    0.0000    0.0000    0.0000
   20 H4     2pz        0.0003   -0.0000   -0.0003    0.0005    0.0015   -0.0003    0.0012   -0.0003    0.0006   -0.0082
   21 H5     1s         0.4056    0.1711   -0.3428   -0.3769   -0.1870    0.3912   -0.3836   -0.4898   -0.1550    0.0453
   22 H5     2s         0.0280    0.0165   -0.0251   -0.0382   -0.0235    0.0525   -0.0391   -0.0760    0.3164   -0.1018
   23 H5     2px       -0.0000    0.0000   -0.0000    0.0000    0.0000    0.0000    0.0000   -0.0000    0.0000    0.0000
   24 H5     2py       -0.0000   -0.0000   -0.0000   -0.0000   -0.0000   -0.0000    0.0000    0.0000    0.0000   -0.0000
   25 H5     2pz       -0.0003   -0.0000    0.0003    0.0005   -0.0015   -0.0003   -0.0012   -0.0003   -0.0006   -0.0082
   26 H6     1s         0.3761    0.3084   -0.1464   -0.4436    0.3704   -0.1440    0.4617    0.4503   -0.1420    0.1147
   27 H6     2s         0.0269    0.0198   -0.0177   -0.0425    0.0554   -0.0137    0.0502    0.0689    0.2893   -0.2729
   28 H6     2px       -0.0000    0.0000    0.0000    0.0000    0.0000   -0.0000   -0.0000    0.0000    0.0000    0.0000
   29 H6     2py        0.0000    0.0000    0.0000    0.0000    0.0000    0.0000    0.0000    0.0000   -0.0000    0.0000
   30 H6     2pz        0.0003    0.0003   -0.0001   -0.0005    0.0004    0.0015   -0.0007   -0.0009   -0.0015   -0.0052
   31 H7     1s         0.2838    0.4321    0.3855    0.1968   -0.5001   -0.4114    0.1847   -0.3447   -0.1186    0.1524
   32 H7     2s         0.0188    0.0330    0.0364    0.0244   -0.0693   -0.0465    0.0136   -0.0533    0.2367   -0.3436
   33 H7     2px       -0.0000   -0.0000   -0.0000   -0.0000    0.0000    0.0000   -0.0000    0.0000    0.0000   -0.0000
   34 H7     2py        0.0000   -0.0000   -0.0000   -0.0000   -0.0000    0.0000    0.0000    0.0000   -0.0000   -0.0000
   35 H7     2pz       -0.0003   -0.0003   -0.0002   -0.0003   -0.0003   -0.0011    0.0010    0.0003   -0.0019   -0.0015
   36 H8     1s         0.2075    0.3615    0.4173    0.3310    0.4059    0.4552   -0.3492    0.2376   -0.0679    0.1021
   37 H8     2s         0.0157    0.0276    0.0326    0.0269    0.0488    0.0500   -0.0350    0.0305    0.1810   -0.3258
   38 H8     2px       -0.0000    0.0000   -0.0000   -0.0000    0.0000   -0.0000   -0.0000   -0.0000    0.0000    0.0000
   39 H8     2py       -0.0000    0.0000   -0.0000    0.0000   -0.0000    0.0000   -0.0000   -0.0000    0.0000    0.0000
   40 H8     2pz       -0.0000    0.0000    0.0001    0.0001   -0.0018   -0.0013    0.0005   -0.0014   -0.0030    0.0049
 
 
      Orbital               11        12        13        14        15        16        17        18        19        20
      Energy            0.3471    0.3776    0.4243    0.4971    0.6009    0.7307    0.8066    0.9004    0.9004    0.9091
      Occ. No.          0.0000    0.0000    0.0000    0.0000    0.0000    0.0000    0.0000    0.0000    0.0000    0.0000
 
    1 H1     1s         0.0895   -0.0384    0.0307    0.0945    0.1243   -0.1036   -0.0475    0.0000    0.0000    0.0000
    2 H1     2s        -0.4231    0.4807    0.4984    0.4762    0.4037   -0.2726   -0.1184   -0.0000   -0.0000   -0.0000
    3 H1     2px        0.0000    0.0000    0.0000    0.0000    0.0000   -0.0000   -0.0000   -0.0385    0.1499    0.2651
    4 H1     2py       -0.0000    0.0000   -0.0000   -0.0000    0.0000   -0.0000   -0.0000    0.1499    0.0385   -0.1231
    5 H1     2pz       -0.0040   -0.0027   -0.0198   -0.0559   -0.1233    0.2530    0.2868   -0.0000    0.0000    0.0000
    6 H2     1s         0.0932   -0.0130    0.0020   -0.0754   -0.1704    0.1570    0.0435   -0.0000    0.0000   -0.0000
    7 H2     2s        -0.2636    0.0195   -0.3070   -0.6061   -0.7117    0.4979    0.1356    0.0000   -0.0000    0.0000
    8 H2     2px       -0.0000    0.0000   -0.0000    0.0000   -0.0000   -0.0000    0.0000   -0.0736    0.2866    0.4142
    9 H2     2py       -0.0000   -0.0000   -0.0000    0.0000    0.0000    0.0000   -0.0000    0.2866    0.0736   -0.1923
   10 H2     2pz        0.0142   -0.0358   -0.0540   -0.0423    0.0403   -0.2475   -0.3416    0.0000   -0.0000   -0.0000
   11 H3     1s        -0.0244    0.0787    0.0110    0.0060    0.1552   -0.2012   -0.0298   -0.0000    0.0000   -0.0000
   12 H3     2s         0.0665   -0.4272   -0.4238    0.0694    0.6541   -0.6307   -0.0901   -0.0000    0.0000   -0.0000
   13 H3     2px       -0.0000    0.0000   -0.0000   -0.0000    0.0000   -0.0000    0.0000   -0.0995    0.3873    0.3657
   14 H3     2py       -0.0000   -0.0000    0.0000    0.0000   -0.0000    0.0000    0.0000    0.3873    0.0995   -0.1697
   15 H3     2pz        0.0169   -0.0105    0.0390    0.1113    0.0927    0.1640    0.3383   -0.0000    0.0000   -0.0000
   16 H4     1s        -0.1112    0.0511   -0.0092    0.0646   -0.0631    0.2227    0.0107    0.0000   -0.0000   -0.0000
   17 H4     2s         0.3502   -0.2678    0.3690    0.5520   -0.2615    0.6944    0.0305    0.0000   -0.0000    0.0000
   18 H4     2px        0.0000    0.0000   -0.0000   -0.0000    0.0000   -0.0000   -0.0000   -0.1132    0.4404    0.1450
   19 H4     2py       -0.0000   -0.0000    0.0000    0.0000    0.0000   -0.0000   -0.0000    0.4404    0.1132   -0.0673
   20 H4     2pz        0.0081    0.0265    0.0450   -0.0592   -0.1848   -0.0564   -0.3314   -0.0000   -0.0000    0.0000
   21 H5     1s        -0.1112   -0.0511   -0.0092   -0.0646   -0.0631   -0.2227    0.0107   -0.0000    0.0000    0.0000
   22 H5     2s         0.3502    0.2678    0.3690   -0.5520   -0.2615   -0.6944    0.0305   -0.0000    0.0000   -0.0000
   23 H5     2px       -0.0000    0.0000    0.0000    0.0000   -0.0000    0.0000   -0.0000   -0.1132    0.4404   -0.1450
   24 H5     2py       -0.0000   -0.0000    0.0000    0.0000    0.0000   -0.0000   -0.0000    0.4404    0.1132    0.0673
   25 H5     2pz       -0.0081    0.0265   -0.0450   -0.0592    0.1848   -0.0564    0.3314    0.0000    0.0000   -0.0000
   26 H6     1s        -0.0244   -0.0787    0.0110   -0.0060    0.1552    0.2012   -0.0298   -0.0000   -0.0000    0.0000
   27 H6     2s         0.0665    0.4272   -0.4238   -0.0694    0.6541    0.6307   -0.0901    0.0000   -0.0000    0.0000
   28 H6     2px       -0.0000    0.0000   -0.0000   -0.0000   -0.0000   -0.0000   -0.0000   -0.0995    0.3873   -0.3657
   29 H6     2py        0.0000    0.0000    0.0000    0.0000   -0.0000   -0.0000   -0.0000    0.3873    0.0995    0.1697
   30 H6     2pz       -0.0169   -0.0105   -0.0390    0.1113   -0.0927    0.1640   -0.3383   -0.0000    0.0000   -0.0000
   31 H7     1s         0.0932    0.0130    0.0020    0.0754   -0.1704   -0.1570    0.0435   -0.0000    0.0000   -0.0000
   32 H7     2s        -0.2636   -0.0195   -0.3070    0.6061   -0.7117   -0.4979    0.1356   -0.0000    0.0000   -0.0000
   33 H7     2px       -0.0000   -0.0000   -0.0000    0.0000   -0.0000   -0.0000    0.0000   -0.0736    0.2866   -0.4142
   34 H7     2py       -0.0000    0.0000    0.0000    0.0000    0.0000   -0.0000   -0.0000    0.2866    0.0736    0.1923
   35 H7     2pz       -0.0142   -0.0358    0.0540   -0.0423   -0.0403   -0.2475    0.3416    0.0000   -0.0000    0.0000
   36 H8     1s         0.0895    0.0384    0.0307   -0.0945    0.1243    0.1036   -0.0475    0.0000   -0.0000   -0.0000
   37 H8     2s        -0.4231   -0.4807    0.4984   -0.4762    0.4037    0.2726   -0.1184   -0.0000    0.0000    0.0000
   38 H8     2px        0.0000   -0.0000   -0.0000    0.0000   -0.0000    0.0000   -0.0000   -0.0385    0.1499   -0.2651
   39 H8     2py       -0.0000    0.0000    0.0000   -0.0000    0.0000    0.0000   -0.0000    0.1499    0.0385    0.1231
   40 H8     2pz        0.0040   -0.0027    0.0198   -0.0559    0.1233    0.2530   -0.2868   -0.0000    0.0000   -0.0000
 
 
      Orbital               21        22        23        24        25        26        27        28        29        30
      Energy            0.9091    0.9225    0.9225    0.9394    0.9394    0.9436    0.9578    0.9578    0.9753    0.9753
      Occ. No.          0.0000    0.0000    0.0000    0.0000    0.0000    0.0000    0.0000    0.0000    0.0000    0.0000
 
    1 H1     1s         0.0000    0.0000    0.0000   -0.0000    0.0000   -0.0374    0.0000   -0.0000   -0.0000    0.0000
    2 H1     2s         0.0000   -0.0000    0.0000    0.0000    0.0000   -0.0878    0.0000    0.0000    0.0000    0.0000
    3 H1     2px       -0.1231   -0.3075   -0.2528   -0.3639    0.2792    0.0000    0.2879    0.3681    0.2991   -0.2942
    4 H1     2py       -0.2651    0.2528   -0.3075    0.2792    0.3639    0.0000   -0.3681    0.2879   -0.2942   -0.2991
    5 H1     2pz        0.0000   -0.0000    0.0000    0.0000    0.0000   -0.2980    0.0000    0.0000    0.0000   -0.0000
    6 H2     1s        -0.0000    0.0000   -0.0000   -0.0000   -0.0000    0.1328   -0.0000   -0.0000   -0.0000    0.0000
    7 H2     2s        -0.0000    0.0000   -0.0000   -0.0000   -0.0000    0.3480   -0.0000   -0.0000   -0.0000   -0.0000
    8 H2     2px       -0.1923   -0.3154   -0.2593   -0.1350    0.1036   -0.0000   -0.0944   -0.1206   -0.2910    0.2862
    9 H2     2py       -0.4142    0.2593   -0.3154    0.1036    0.1350    0.0000    0.1206   -0.0944    0.2862    0.2910
   10 H2     2pz       -0.0000    0.0000   -0.0000   -0.0000   -0.0000    0.3586   -0.0000   -0.0000   -0.0000   -0.0000
   11 H3     1s        -0.0000   -0.0000    0.0000    0.0000    0.0000   -0.2317    0.0000    0.0000    0.0000    0.0000
   12 H3     2s         0.0000   -0.0000    0.0000    0.0000    0.0000   -0.6254    0.0000    0.0000    0.0000    0.0000
   13 H3     2px       -0.1697   -0.0022   -0.0018    0.3212   -0.2465   -0.0000   -0.2543   -0.3251   -0.0039    0.0039
   14 H3     2py       -0.3657    0.0018   -0.0022   -0.2465   -0.3212   -0.0000    0.3251   -0.2543    0.0039    0.0039
   15 H3     2pz        0.0000    0.0000    0.0000    0.0000    0.0000   -0.2652    0.0000    0.0000   -0.0000    0.0000
   16 H4     1s         0.0000   -0.0000   -0.0000   -0.0000   -0.0000    0.2913    0.0000   -0.0000    0.0000   -0.0000
   17 H4     2s        -0.0000    0.0000   -0.0000   -0.0000   -0.0000    0.7928   -0.0000   -0.0000   -0.0000   -0.0000
   18 H4     2px       -0.0673    0.3119    0.2563    0.2415   -0.1853    0.0000    0.1869    0.2390    0.2938   -0.2890
   19 H4     2py       -0.1450   -0.2563    0.3119   -0.1853   -0.2415   -0.0000   -0.2390    0.1869   -0.2890   -0.2938
   20 H4     2pz       -0.0000   -0.0000   -0.0000   -0.0000   -0.0000    0.0966   -0.0000    0.0000    0.0000   -0.0000
   21 H5     1s         0.0000   -0.0000    0.0000    0.0000    0.0000   -0.2913    0.0000    0.0000    0.0000    0.0000
   22 H5     2s         0.0000   -0.0000    0.0000    0.0000    0.0000   -0.7928    0.0000    0.0000    0.0000    0.0000
   23 H5     2px        0.0673    0.3119    0.2563   -0.2415    0.1853    0.0000    0.1869    0.2390   -0.2938    0.2890
   24 H5     2py        0.1450   -0.2563    0.3119    0.1853    0.2415    0.0000   -0.2390    0.1869    0.2890    0.2938
   25 H5     2pz        0.0000    0.0000   -0.0000   -0.0000   -0.0000    0.0966    0.0000   -0.0000   -0.0000    0.0000
   26 H6     1s         0.0000    0.0000   -0.0000   -0.0000   -0.0000    0.2317   -0.0000   -0.0000    0.0000    0.0000
   27 H6     2s        -0.0000    0.0000   -0.0000   -0.0000   -0.0000    0.6254   -0.0000   -0.0000   -0.0000   -0.0000
   28 H6     2px        0.1697   -0.0022   -0.0018   -0.3212    0.2465   -0.0000   -0.2543   -0.3251    0.0039   -0.0039
   29 H6     2py        0.3657    0.0018   -0.0022    0.2465    0.3212    0.0000    0.3251   -0.2543   -0.0039   -0.0039
   30 H6     2pz        0.0000    0.0000    0.0000    0.0000    0.0000   -0.2652    0.0000    0.0000    0.0000    0.0000
   31 H7     1s         0.0000   -0.0000    0.0000    0.0000    0.0000   -0.1328    0.0000   -0.0000   -0.0000    0.0000
   32 H7     2s         0.0000    0.0000    0.0000    0.0000    0.0000   -0.3480    0.0000    0.0000    0.0000    0.0000
   33 H7     2px        0.1923   -0.3154   -0.2593    0.1350   -0.1036   -0.0000   -0.0944   -0.1206    0.2910   -0.2862
   34 H7     2py        0.4142    0.2593   -0.3154   -0.1036   -0.1350   -0.0000    0.1206   -0.0944   -0.2862   -0.2910
   35 H7     2pz       -0.0000    0.0000   -0.0000   -0.0000   -0.0000    0.3586   -0.0000   -0.0000   -0.0000   -0.0000
   36 H8     1s         0.0000    0.0000    0.0000   -0.0000   -0.0000    0.0374   -0.0000    0.0000    0.0000   -0.0000
   37 H8     2s         0.0000   -0.0000   -0.0000   -0.0000   -0.0000    0.0878   -0.0000   -0.0000   -0.0000   -0.0000
   38 H8     2px        0.1231   -0.3075   -0.2528    0.3639   -0.2792    0.0000    0.2879    0.3681   -0.2991    0.2942
   39 H8     2py        0.2651    0.2528   -0.3075   -0.2792   -0.3639   -0.0000   -0.3681    0.2879    0.2942    0.2991
   40 H8     2pz        0.0000   -0.0000    0.0000    0.0000    0.0000   -0.2980    0.0000    0.0000    0.0000    0.0000
 
 
      Orbital               31        32        33        34        35        36        37        38        39        40
      Energy            0.9898    0.9898    0.9947    0.9995    0.9995    1.0363    1.0781    1.1193    1.1554    1.1804
      Occ. No.          0.0000    0.0000    0.0000    0.0000    0.0000    0.0000    0.0000    0.0000    0.0000    0.0000
 
    1 H1     1s        -0.0000   -0.0000   -0.0588    0.0000    0.0000    0.0618   -0.0579    0.0499   -0.0374    0.0203
    2 H1     2s        -0.0000   -0.0000   -0.1475    0.0000   -0.0000    0.1663   -0.1605    0.1351   -0.0959    0.0495
    3 H1     2px       -0.1182   -0.2924    0.0000   -0.0148    0.1682   -0.0000    0.0000   -0.0000    0.0000   -0.0000
    4 H1     2py        0.2924   -0.1182   -0.0000   -0.1682   -0.0148    0.0000   -0.0000    0.0000    0.0000   -0.0000
    5 H1     2pz       -0.0000   -0.0000   -0.3711    0.0000    0.0000    0.4201   -0.4378    0.4024   -0.3080    0.1668
    6 H2     1s         0.0000    0.0000    0.1567   -0.0000    0.0000   -0.1236    0.0776   -0.0346    0.0044    0.0055
    7 H2     2s         0.0000    0.0000    0.4263   -0.0000    0.0000   -0.3423    0.2077   -0.0863    0.0119    0.0099
    8 H2     2px        0.1770    0.4377   -0.0000    0.0272   -0.3094    0.0000   -0.0000    0.0000   -0.0000    0.0000
    9 H2     2py       -0.4377    0.1770    0.0000    0.3094    0.0272   -0.0000    0.0000   -0.0000    0.0000   -0.0000
   10 H2     2pz        0.0000    0.0000    0.2939   -0.0000    0.0000   -0.0664   -0.2329    0.4712   -0.5211    0.3390
   11 H3     1s        -0.0000   -0.0000   -0.1785    0.0000    0.0000    0.0507    0.0252   -0.0346    0.0092    0.0084
   12 H3     2s        -0.0000   -0.0000   -0.4984    0.0000   -0.0000    0.1401    0.0754   -0.0908    0.0207    0.0191
   13 H3     2px       -0.1547   -0.3826    0.0000   -0.0365    0.4157    0.0000   -0.0000    0.0000    0.0000    0.0000
   14 H3     2py        0.3826   -0.1547   -0.0000   -0.4157   -0.0365    0.0000    0.0000    0.0000    0.0000    0.0000
   15 H3     2pz        0.0000    0.0000    0.1043    0.0000    0.0000   -0.4745    0.4418    0.0030   -0.4490    0.4519
   16 H4     1s         0.0000    0.0000    0.0791    0.0000    0.0000    0.0749   -0.0449   -0.0238    0.0256    0.0016
   17 H4     2s         0.0000    0.0000    0.2211   -0.0000   -0.0000    0.2202   -0.1272   -0.0591    0.0592    0.0023
   18 H4     2px        0.0612    0.1512   -0.0000    0.0415   -0.4722    0.0000   -0.0000   -0.0000   -0.0000    0.0000
   19 H4     2py       -0.1512    0.0612    0.0000    0.4722    0.0415   -0.0000   -0.0000   -0.0000   -0.0000    0.0000
   20 H4     2pz       -0.0000   -0.0000   -0.4489    0.0000   -0.0000    0.3193    0.3302   -0.4423   -0.1820    0.5177
   21 H5     1s         0.0000    0.0000    0.0791   -0.0000    0.0000   -0.0749   -0.0449    0.0238    0.0256   -0.0016
   22 H5     2s         0.0000    0.0000    0.2211    0.0000    0.0000   -0.2202   -0.1272    0.0591    0.0592   -0.0023
   23 H5     2px        0.0612    0.1512   -0.0000   -0.0415    0.4722    0.0000    0.0000   -0.0000    0.0000    0.0000
   24 H5     2py       -0.1512    0.0612   -0.0000   -0.4722   -0.0415   -0.0000    0.0000    0.0000    0.0000   -0.0000
   25 H5     2pz        0.0000    0.0000    0.4489   -0.0000    0.0000    0.3193   -0.3302   -0.4423    0.1820    0.5177
   26 H6     1s        -0.0000   -0.0000   -0.1785    0.0000   -0.0000   -0.0507    0.0252    0.0346    0.0092   -0.0084
   27 H6     2s        -0.0000   -0.0000   -0.4984    0.0000   -0.0000   -0.1401    0.0754    0.0908    0.0207   -0.0191
   28 H6     2px       -0.1547   -0.3826    0.0000    0.0365   -0.4157    0.0000    0.0000    0.0000   -0.0000    0.0000
   29 H6     2py        0.3826   -0.1547   -0.0000    0.4157    0.0365    0.0000   -0.0000   -0.0000   -0.0000    0.0000
   30 H6     2pz       -0.0000   -0.0000   -0.1043    0.0000   -0.0000   -0.4745   -0.4418    0.0030    0.4490    0.4519
   31 H7     1s         0.0000    0.0000    0.1567   -0.0000    0.0000    0.1236    0.0776    0.0346    0.0044   -0.0055
   32 H7     2s         0.0000    0.0000    0.4263   -0.0000    0.0000    0.3423    0.2077    0.0863    0.0119   -0.0099
   33 H7     2px        0.1770    0.4377   -0.0000   -0.0272    0.3094   -0.0000   -0.0000    0.0000   -0.0000   -0.0000
   34 H7     2py       -0.4377    0.1770    0.0000   -0.3094   -0.0272   -0.0000    0.0000    0.0000    0.0000    0.0000
   35 H7     2pz       -0.0000   -0.0000   -0.2939    0.0000   -0.0000   -0.0664    0.2329    0.4712    0.5211    0.3390
   36 H8     1s        -0.0000   -0.0000   -0.0588   -0.0000    0.0000   -0.0618   -0.0579   -0.0499   -0.0374   -0.0203
   37 H8     2s        -0.0000   -0.0000   -0.1475    0.0000   -0.0000   -0.1663   -0.1605   -0.1351   -0.0959   -0.0495
   38 H8     2px       -0.1182   -0.2924    0.0000    0.0148   -0.1682    0.0000   -0.0000   -0.0000    0.0000    0.0000
   39 H8     2py        0.2924   -0.1182   -0.0000    0.1682    0.0148    0.0000   -0.0000   -0.0000   -0.0000    0.0000
   40 H8     2pz        0.0000    0.0000    0.3711   -0.0000    0.0000    0.4201    0.4378    0.4024    0.3080    0.1668
--
 
      Von Neumann Entropy (Root  1) =  3.94050
 

      Mulliken population analysis for root number:  1
      -----------------------------------------------
 
 
++    Molecular charges:
      ------------------
 
      Mulliken charges per centre and basis function type
      ---------------------------------------------------
 
                H1      H2      H3      H4      H5      H6      H7      H8    
      1s       0.9944  0.9998  1.0003  1.0002  1.0002  1.0003  0.9998  0.9944
      2s       0.0052  0.0008 -0.0001 -0.0000 -0.0000 -0.0001  0.0008  0.0052
      2px      0.0000  0.0000  0.0000  0.0000  0.0000  0.0000  0.0000  0.0000
      2pz     -0.0001 -0.0001 -0.0002 -0.0002 -0.0002 -0.0002 -0.0001 -0.0001
      2py      0.0000  0.0000  0.0000  0.0000  0.0000  0.0000  0.0000  0.0000
      Total    0.9995  1.0005  1.0000  1.0000  1.0000  1.0000  1.0005  0.9995
 
      N-E      0.0005 -0.0005  0.0000  0.0000  0.0000  0.0000 -0.0005  0.0005
 
      Total electronic charge=    8.000000
 
      Total            charge=   -0.000000
--
 
 

      Expectation values of various properties for root number:  1
      -----------------------------------------------------------
 
 
++    Molecular properties:
      ---------------------
 
      Charge (e):
                      =   -0.0000
      Dipole Moment (Debye):
      Origin of the operator (Ang)=    0.0000    0.0000    0.0000
                   X=  5.8349E-13               Y=  2.5518E-13               Z= -4.1900E-12           Total=  4.2381E-12
      Quadrupole Moment (Debye*Ang):
      Origin of the operator (Ang)=    0.0000    0.0000   10.5000
                  XX= -1.2024E+01              XY=  1.8614E-26              XZ= -4.2727E-13              YY= -1.2024E+01
                  YZ=  8.7605E-13              ZZ= -1.2500E+01
      In traceless form (Debye*Ang)
                  XX=  2.3780E-01              XY=  2.7920E-26              XZ= -6.4091E-13              YY=  2.3780E-01
                  YZ=  1.3141E-12              ZZ= -4.7561E-01
--
 

      LoProp population analysis for root number:  1
      -----------------------------------------------
 
 
++    LoProp analysis:
      ----------------
 
 
 
  Input file to MOLDEN was generated!
 
 
++    Static properties:
      ------------------
 
 
      LoProp Charges per center
 

                   H1       H2       H3       H4       H5       H6       H7       H8    
      Nuclear      1.0000   1.0000   1.0000   1.0000   1.0000   1.0000   1.0000   1.0000
      Electronic  -1.0000  -1.0000  -1.0000  -1.0000  -1.0000  -1.0000  -1.0000  -1.0000
 
      Total       -0.0000   0.0000   0.0000   0.0000   0.0000   0.0000   0.0000  -0.0000
--
 
 
      Natural Bond Order analysis for root number:  1
 
++    Natural Bond Order analysis
      ---------------------------
      Based on LoProp computed density
      -------------------------------------------------------------------------------------
      Atom A       Atom B       Bond Order
      -------------------------------------------------------------------------------------
      The remaining    8.000 electrons are to be considered as diffuse
--
 
--
 
 
  Input file to MOLDEN was generated!
 
      Average orbitals are written to the RASORB file
      Natural orbitals for root   1 are written to the RASORB.1 file
      Spin density orbitals for root   1 are written to the SPDORB.1 file
 
--- Stop Module: rasscf at Mon Nov 18 14:58:35 2024 /rc=_RC_ALL_IS_WELL_ ---
*** files: H8_3.00.LprOrb H8_3.00.rasscf.molden H8_3.00.LoProp.molden H8_3.00.RasOrb H8_3.00.RasOrb.1 H8_3.00.rasscf.h5 H8_3.00.SpdOrb.1 xmldump
    saved to directory /home/grierjones/DDCASPT2/hydrogen_comps/H8_chain/H8_3.00
--- Module rasscf spent 1 second ---

>>> COPY /tmp/H8_3.00/H8_3.00.rasscf.h5 /home/grierjones/DDCASPT2/hydrogen_comps/H8_chain/H8_3.00/

>>> COPY /tmp/H8_3.00/GMJ_Fock_MO.csv /home/grierjones/DDCASPT2/hydrogen_comps/H8_chain/H8_3.00/H8_3.00.GMJ_Fock_MO.csv

>>> COPY /tmp/H8_3.00/GMJ_PT2_Fock_MO.csv /home/grierjones/DDCASPT2/hydrogen_comps/H8_chain/H8_3.00/H8_3.00.GMJ_PT2_Fock_MO.csv

*** symbolic link created: INPORB -> H8_3.00.RasOrb
--- Start Module: motra at Mon Nov 18 14:58:35 2024 ---
 
()()()()()()()()()()()()()()()()()()()()()()()()()()()()()()()()()()()()()()()()()()()()()()()()()()

                                               &MOTRA

                                   only a single process is used
                       available to each process: 2.0 GB of memory, 1 thread?
()()()()()()()()()()()()()()()()()()()()()()()()()()()()()()()()()()()()()()()()()()()()()()()()()()
 
 
      *** WARNING: Default frozen orbitals is overwritten by user input.
      *** Default values:   0
 
      Header of the integral files:
      
       Integrals generated by seward 4.2.0  , Mon Nov 18 14:58:33 2024
 
 
      Header of MO coefficients source file:
      * RASSCF average (pseudo-natural) orbitals                                      
 
 
      Cartesian coordinates in Angstrom:
      -----------------------------------------------------
      No.  Label        X            Y            Z        
      -----------------------------------------------------
       1   H1         0.00000000   0.00000000   0.00000000
       2   H2         0.00000000   0.00000000   3.00000000
       3   H3         0.00000000   0.00000000   6.00000000
       4   H4         0.00000000   0.00000000   9.00000000
       5   H5         0.00000000   0.00000000  12.00000000
       6   H6         0.00000000   0.00000000  15.00000000
       7   H7         0.00000000   0.00000000  18.00000000
       8   H8         0.00000000   0.00000000  21.00000000
      -----------------------------------------------------
      Nuclear repulsion energy =    2.42413560
 
      Orbital specifications:
      -----------------------
 
      Symmetry species:              1
      Number of basis functions:    40
      Frozen orbitals:               0
      Deleted orbitals:              0
      Number of orbitals used:      40

       SYMMETRY  BASIS FUNCTIONS       ORBITALS      INTEGRALS   CPU(SEC)  I/O(SEC)
 
        1 1 1 1   40  40  40  40    40  40  40  40      336610       0.00      0.00

       TOTAL CPU TIME(SEC)    0.16TOTAL I/O TIME(SEC)    0.44
 
--- Stop Module: motra at Mon Nov 18 14:58:35 2024 /rc=_RC_ALL_IS_WELL_ ---
*** files: xmldump
    saved to directory /home/grierjones/DDCASPT2/hydrogen_comps/H8_chain/H8_3.00

>>> COPY /tmp/H8_3.00/GMJ_one_int_indx.csv /home/grierjones/DDCASPT2/hydrogen_comps/H8_chain/H8_3.00/H8_3.00.GMJ_one_int_indx.csv

>>> COPY /tmp/H8_3.00/GMJ_one_int.csv /home/grierjones/DDCASPT2/hydrogen_comps/H8_chain/H8_3.00/H8_3.00.GMJ_one_int.csv

>>> COPY /tmp/H8_3.00/GMJ_two_int_indx.csv /home/grierjones/DDCASPT2/hydrogen_comps/H8_chain/H8_3.00/H8_3.00.GMJ_two_int_indx.csv

>>> COPY /tmp/H8_3.00/GMJ_two_int.csv /home/grierjones/DDCASPT2/hydrogen_comps/H8_chain/H8_3.00/H8_3.00.GMJ_two_int.csv

*** symbolic link created: INPORB -> H8_3.00.RasOrb
--- Start Module: caspt2 at Mon Nov 18 14:58:35 2024 ---
 
()()()()()()()()()()()()()()()()()()()()()()()()()()()()()()()()()()()()()()()()()()()()()()()()()()

                                              &CASPT2

                                   only a single process is used
                       available to each process: 2.0 GB of memory, 1 thread?
()()()()()()()()()()()()()()()()()()()()()()()()()()()()()()()()()()()()()()()()()()()()()()()()()()
 
 Cholesky algorithm in CASPT2 =    1
 
 ###############################################################################
 ###############################################################################
 ###                                                                         ###
 ###                                                                         ###
 ###    User changed nr of frozen orbitals.                                  ###
 ###                                                                         ###
 ###                                                                         ###
 ###############################################################################
 ###############################################################################
 
++    Wave function specifications:
      -----------------------------
 
      Number of closed shell electrons           0
      Number of electrons in active shells       8
      Max number of holes in RAS1 space          0
      Max number of electrons in RAS3 space      0
      Number of inactive orbitals                0
      Number of active orbitals                  8
      Number of secondary orbitals              32
      Spin quantum number                      0.0
      State symmetry                             1
      Number of CSFs                          1764
      Number of root(s) available                1
      Root passed to geometry opt.               1
      A file JOBMIX will be created.
      This is a CASSCF or RASSCF reference function
--
 
++    Orbital specifications:
      -----------------------
 
      Symmetry species                           1
                                                 a
      Frozen orbitals                            0
      Inactive orbitals                          0
      Active orbitals                            8
      Secondary orbitals                        32
      Deleted orbitals                           0
      Number of basis functions                 40
--
 
      Type of Fock operator: STANDARD
      Type of 0-order Hamiltonian: STANDARD WITH DEFAULT IPEA
        "IP-EA" denominator shift =      0.25
      The input orbitals and the CI vector will be transformed.
 
--------------------------------------------------------------------------------
 Estimated memory requirements:
  POLY3 :                   450746
  RHS:                      417296
  SIGMA :                   326032
  PRPCTL:                        0
 Available workspace:    230388092
 
++ CASPT2 computation for group   1
 
********************************************************************************
 Multi-State initialization phase begins for group   1
--------------------------------------------------------------------------------
********************************************************************************
 Compute H0 matrices for state    1
--------------------------------------------------------------------------------
--------------------------------------------------------------------------------
 H0 matrices have been computed.
 
********************************************************************************
  CASPT2 EQUATION SOLUTION
--------------------------------------------------------------------------------
 
  Total nr of CASPT2 parameters:
   Before reduction:       49280
   After  reduction:       48160
 
 The contributions to the second order correlation energy in atomic units.
-----------------------------------------------------------------------------------------------------------------------------
  IT.      VJTU        VJTI        ATVX        AIVX        VJAI        BVAT        BJAT        BJAI        TOTAL       RNORM  
-----------------------------------------------------------------------------------------------------------------------------
   1     0.000000    0.000000   -0.000178    0.000000    0.000000   -0.000613    0.000000    0.000000   -0.000792    0.000313
   2     0.000000    0.000000   -0.000180    0.000000    0.000000   -0.000614    0.000000    0.000000   -0.000794    0.000054
   3     0.000000    0.000000   -0.000181    0.000000    0.000000   -0.000614    0.000000    0.000000   -0.000795    0.000016
   4     0.000000    0.000000   -0.000180    0.000000    0.000000   -0.000614    0.000000    0.000000   -0.000795    0.000003
-------------------------------------------------------------------------------------------------------------------
 
  FINAL CASPT2 RESULT:
 
  Correlation energy /Case, /Symm, and sums:
 VJTU      0.00000000  0.00000000
 VJTIP     0.00000000  0.00000000
 VJTIM     0.00000000  0.00000000
 ATVX     -0.00018042 -0.00018042
 AIVX      0.00000000  0.00000000
 VJAIP     0.00000000  0.00000000
 VJAIM     0.00000000  0.00000000
 BVATP    -0.00052184 -0.00052184
 BVATM    -0.00009231 -0.00009231
 BJATP     0.00000000  0.00000000
 BJATM     0.00000000  0.00000000
 BJAIP     0.00000000  0.00000000
 BJAIM     0.00000000  0.00000000
 Summed:  -0.00079457 -0.00079457
 
      Reference energy:          -3.9889141512
      E2 (Non-variational):      -0.0007945693
      E2 (Variational):          -0.0007945721
      Total energy:              -3.9897087233
      Residual norm:              0.0000005311
      Reference weight:           0.99951
 
      Contributions to the CASPT2 correlation energy
      Active & Virtual Only:         -0.0007945693
      One Inactive Excited:           0.0000000000
      Two Inactive Excited:           0.0000000000
 
 
++ Denominators, etc.
----------------------------------------------------------------------------------------------------
 Report on small energy denominators, large coefficients, and large energy contributions.
CASE  SYMM ACTIVE-MIX  NON-ACTIVE INDICES          DENOMINATOR     RHS VALUE       COEFFICIENT     CONTRIBUTION
--
 
   (Skipping property calculation,
    use PROP keyword to activate)
--
 
  Total CASPT2 energies:
::    CASPT2 Root  1     Total energy:     -3.98970872
 
  A NEW JOBIPH FILE NAMED 'JOBMIX' IS PREPARED.
********************************************************************************
--- Stop Module: caspt2 at Mon Nov 18 14:58:36 2024 /rc=_RC_ALL_IS_WELL_ ---
*** files: xmldump
    saved to directory /home/grierjones/DDCASPT2/hydrogen_comps/H8_chain/H8_3.00

>>> EXPORT i = B

>>> EXPORT j = P

>>> IF (-FILE GMJ_e2_${i}_${j}.csv)
(Skipped)

>>> END FOREACH

>>> EXPORT j = M

>>> IF (-FILE GMJ_e2_${i}_${j}.csv)
(Skipped)

>>> END FOREACH

>>> END FOREACH

>>> EXPORT i = E

>>> EXPORT j = P

>>> IF (-FILE GMJ_e2_${i}_${j}.csv)
(Skipped)

>>> END FOREACH

>>> EXPORT j = M

>>> IF (-FILE GMJ_e2_${i}_${j}.csv)
(Skipped)

>>> END FOREACH

>>> END FOREACH

>>> EXPORT i = F

>>> EXPORT j = P

>>> IF (-FILE GMJ_e2_${i}_${j}.csv)

>>> COPY /tmp/H8_3.00/GMJ_RHS_F_P.csv /home/grierjones/DDCASPT2/hydrogen_comps/H8_chain/H8_3.00/GMJ_RHS_F_P.csv

>>> COPY /tmp/H8_3.00/GMJ_IVECW_F_P.csv /home/grierjones/DDCASPT2/hydrogen_comps/H8_chain/H8_3.00/GMJ_IVECW_F_P.csv

>>> COPY /tmp/H8_3.00/GMJ_IVECX_F_P.csv /home/grierjones/DDCASPT2/hydrogen_comps/H8_chain/H8_3.00/GMJ_IVECX_F_P.csv

>>> COPY /tmp/H8_3.00/GMJ_IVECC2_F_P.csv /home/grierjones/DDCASPT2/hydrogen_comps/H8_chain/H8_3.00/GMJ_IVECC2_F_P.csv

>>> COPY /tmp/H8_3.00/GMJ_e2_F_P.csv /home/grierjones/DDCASPT2/hydrogen_comps/H8_chain/H8_3.00/GMJ_e2_F_P.csv

>>> END FOREACH

>>> EXPORT j = M

>>> IF (-FILE GMJ_e2_${i}_${j}.csv)

>>> COPY /tmp/H8_3.00/GMJ_RHS_F_M.csv /home/grierjones/DDCASPT2/hydrogen_comps/H8_chain/H8_3.00/GMJ_RHS_F_M.csv

>>> COPY /tmp/H8_3.00/GMJ_IVECW_F_M.csv /home/grierjones/DDCASPT2/hydrogen_comps/H8_chain/H8_3.00/GMJ_IVECW_F_M.csv

>>> COPY /tmp/H8_3.00/GMJ_IVECX_F_M.csv /home/grierjones/DDCASPT2/hydrogen_comps/H8_chain/H8_3.00/GMJ_IVECX_F_M.csv

>>> COPY /tmp/H8_3.00/GMJ_IVECC2_F_M.csv /home/grierjones/DDCASPT2/hydrogen_comps/H8_chain/H8_3.00/GMJ_IVECC2_F_M.csv

>>> COPY /tmp/H8_3.00/GMJ_e2_F_M.csv /home/grierjones/DDCASPT2/hydrogen_comps/H8_chain/H8_3.00/GMJ_e2_F_M.csv

>>> END FOREACH

>>> END FOREACH

>>> EXPORT i = G

>>> EXPORT j = P

>>> IF (-FILE GMJ_e2_${i}_${j}.csv)
(Skipped)

>>> END FOREACH

>>> EXPORT j = M

>>> IF (-FILE GMJ_e2_${i}_${j}.csv)
(Skipped)

>>> END FOREACH

>>> END FOREACH

>>> EXPORT i = H

>>> EXPORT j = P

>>> IF (-FILE GMJ_e2_${i}_${j}.csv)
(Skipped)

>>> END FOREACH

>>> EXPORT j = M

>>> IF (-FILE GMJ_e2_${i}_${j}.csv)
(Skipped)

>>> END FOREACH

>>> END FOREACH

>>> EXPORT i = A

>>> IF (-FILE GMJ_e2_$i.csv)
(Skipped)

>>> END FOREACH

>>> EXPORT i = C

>>> IF (-FILE GMJ_e2_$i.csv)

>>> COPY /tmp/H8_3.00/GMJ_RHS_C.csv /home/grierjones/DDCASPT2/hydrogen_comps/H8_chain/H8_3.00/GMJ_RHS_C.csv

>>> COPY /tmp/H8_3.00/GMJ_IVECW_C.csv /home/grierjones/DDCASPT2/hydrogen_comps/H8_chain/H8_3.00/GMJ_IVECW_C.csv

>>> COPY /tmp/H8_3.00/GMJ_IVECX_C.csv /home/grierjones/DDCASPT2/hydrogen_comps/H8_chain/H8_3.00/GMJ_IVECX_C.csv

>>> COPY /tmp/H8_3.00/GMJ_IVECC2_C.csv /home/grierjones/DDCASPT2/hydrogen_comps/H8_chain/H8_3.00/GMJ_IVECC2_C.csv

>>> COPY /tmp/H8_3.00/GMJ_e2_C.csv /home/grierjones/DDCASPT2/hydrogen_comps/H8_chain/H8_3.00/GMJ_e2_C.csv

>>> END FOREACH

>>> EXPORT i = D

>>> IF (-FILE GMJ_e2_$i.csv)
(Skipped)

>>> END FOREACH

.########################.
.# Non-zero return code #.
.########################.

    Timing: Wall=2.98 User=2.08 System=0.89
***************************************
*** WorkDir at /tmp/H8_3.00 cleaned ***
***************************************
