[Molden Format]
[N_Atoms]
                     2
[Atoms] (AU)
F1          1      9           0.00000000      0.00000000      0.00000000
O2          2      8           0.00000000      0.00000000      5.29123315
[Charge] (Mulliken)
 -6.054981618799360E-004
  6.054981618257571E-004
[GTO] (AU)
   1
   s  14
  1.031094600E+05  1.713099991E-04
  1.528100700E+04  7.123999962E-04
  3.441539200E+03  2.990479984E-03
  9.670948300E+02  1.164036994E-02
  3.140353400E+02  3.968642979E-02
  1.134423000E+02  1.128546094E-01
  4.464472700E+01  2.473650687E-01
  1.894287400E+01  3.672702681E-01
  8.532743000E+00  2.896286985E-01
  3.919401000E+00  7.786681959E-02
  1.568157000E+00  4.562139976E-03
  6.232900000E-01  2.468879987E-03
  2.408610000E-01  1.106309994E-03
  8.430100000E-02  1.739699991E-04
   s  14
  1.031094600E+05 -4.044999995E-05
  1.528100700E+04 -1.682299998E-04
  3.441539200E+03 -7.084299991E-04
  9.670948300E+02 -2.767999996E-03
  3.140353400E+02 -9.611379987E-03
  1.134423000E+02 -2.833957996E-02
  4.464472700E+01 -6.839343991E-02
  1.894287400E+01 -1.237379298E-01
  8.532743000E+00 -1.512859698E-01
  3.919401000E+00 -9.099909988E-03
  1.568157000E+00  3.716257695E-01
  6.232900000E-01  5.500214393E-01
  2.408610000E-01  2.092318697E-01
  8.430100000E-02  8.074639989E-03
   p   9
  2.453302900E+02  1.024860004E-03
  5.691900500E+01  8.344290032E-03
  1.760456800E+01  4.078927016E-02
  6.274995000E+00  1.351370605E-01
  2.447030000E+00  2.798830811E-01
  9.950600000E-01  3.597966414E-01
  4.039730000E-01  3.055347412E-01
  1.548100000E-01  1.354703905E-01
  5.418400000E-02  2.804449011E-02
 
   2
   s  14
  1.053749500E+05  1.238600013E-04
  1.567924000E+04  5.120100053E-04
  3.534544700E+03  2.152910022E-03
  9.873651600E+02  8.528440089E-03
  3.159787500E+02  3.018049031E-02
  1.116542800E+02  9.099702095E-02
  4.269945100E+01  2.177936423E-01
  1.739559600E+01  3.686245738E-01
  7.438309000E+00  3.366707335E-01
  3.222862000E+00  9.657630101E-02
  1.253877000E+00  2.144520022E-03
  4.951550000E-01  1.194350012E-03
  1.916650000E-01  5.390200056E-04
  6.708300000E-02  2.103400022E-04
   s  14
  1.053749500E+05 -2.815000008E-05
  1.567924000E+04 -1.163000003E-04
  3.534544700E+03 -4.909200013E-04
  9.873651600E+02 -1.946160005E-03
  3.159787500E+02 -7.005300019E-03
  1.116542800E+02 -2.167814006E-02
  4.269945100E+01 -5.641213015E-02
  1.739559600E+01 -1.127053003E-01
  7.438309000E+00 -1.589119704E-01
  3.222862000E+00 -3.355083009E-02
  1.253877000E+00  3.531902810E-01
  4.951550000E-01  5.534199315E-01
  1.916650000E-01  2.301839106E-01
  6.708300000E-02  1.127267003E-02
   p   9
  2.000000000E+02  9.173000030E-04
  4.653336700E+01  7.377140024E-03
  1.462180900E+01  3.483515011E-02
  5.313064000E+00  1.144397004E-01
  2.102525000E+00  2.554966408E-01
  8.502230000E-01  3.722557412E-01
  3.375970000E-01  3.323314911E-01
  1.288920000E-01  1.400847905E-01
  4.511200000E-02  2.395784008E-02
 
[MO]
Sym=     1a  
Ene=   -26.4260
Spin= Alpha
Occup=    1.00000
   1         0.99999119
   2        -0.00420763
   3        -0.00000000
   4        -0.00000000
   5         0.00000338
   6        -0.00000129
   7        -0.00001658
   8        -0.00000000
   9         0.00000000
  10         0.00002132
Sym=     1a  
Ene=   -26.4680
Spin= Beta
Occup=    1.00000
   1         0.99999698
   2        -0.00249544
   3        -0.00000000
   4         0.00000000
   5         0.00000367
   6        -0.00000147
   7        -0.00002435
   8         0.00000000
   9        -0.00000000
  10         0.00004193
Sym=     2a  
Ene=   -20.7630
Spin= Alpha
Occup=    1.00000
   1        -0.00000252
   2        -0.00004037
   3        -0.00000000
   4         0.00000000
   5        -0.00007041
   6         0.99999889
   7         0.00158069
   8         0.00000000
   9        -0.00000000
  10        -0.00000380
Sym=     2a  
Ene=   -20.6930
Spin= Beta
Occup=    1.00000
   1        -0.00000157
   2        -0.00001821
   3        -0.00000000
   4         0.00000000
   5        -0.00001457
   6         0.99999773
   7        -0.00214236
   8         0.00000000
   9        -0.00000000
  10        -0.00000327
Sym=     3a  
Ene=    -1.5152
Spin= Alpha
Occup=    1.00000
   1         0.00419240
   2         0.99930478
   3         0.00000000
   4        -0.00000000
   5         0.00118214
   6        -0.00016301
   7         0.02734715
   8        -0.00000000
   9         0.00000000
  10        -0.00332196
Sym=     3a  
Ene=    -1.6913
Spin= Beta
Occup=    1.00000
   1         0.00249637
   2         0.99997979
   3         0.00000000
   4        -0.00000000
   5         0.00106499
   6        -0.00010924
   7         0.00199010
   8        -0.00000000
   9         0.00000000
  10         0.00002166
Sym=     4a  
Ene=    -1.4254
Spin= Alpha
Occup=    1.00000
   1        -0.00038873
   2        -0.03502417
   3        -0.00000000
   4         0.00000000
   5        -0.00008323
   6        -0.00157344
   7         0.99965442
   8         0.00000000
   9         0.00000000
  10        -0.00141828
Sym=     4a  
Ene=    -1.1147
Spin= Beta
Occup=    1.00000
   1        -0.00027352
   2        -0.00971736
   3        -0.00000000
   4         0.00000000
   5         0.01964989
   6         0.00210694
   7         0.99923128
   8         0.00000000
   9         0.00000000
  10        -0.00276680
Sym=     5a  
Ene=    -0.7129
Spin= Alpha
Occup=    1.00000
   1         0.00211564
   2         0.03259800
   3        -0.00000000
   4         0.00000000
   5        -0.01116942
   6         0.00001360
   7         0.00161997
   8        -0.00000000
   9         0.00000000
  10         0.99982502
Sym=     5a  
Ene=    -0.8423
Spin= Beta
Occup=    1.00000
   1         0.00000745
   2        -0.00067402
   3         0.00000000
   4         0.00000000
   5         1.00021148
   6        -0.00191035
   7        -0.05004149
   8        -0.00000000
   9         0.00000000
  10        -0.00107115
Sym=     6a  
Ene=    -0.7128
Spin= Alpha
Occup=    1.00000
   1        -0.00000000
   2        -0.00000000
   3        -0.29361863
   4         0.25064987
   5         0.00000000
   6        -0.00000000
   7        -0.00000000
   8        -0.69768501
   9         0.59558433
  10        -0.00000000
Sym=     6a  
Ene=    -0.7520
Spin= Beta
Occup=    1.00000
   1         0.00000000
   2         0.00000000
   3        -0.76056686
   4         0.64926392
   5         0.00000000
   6        -0.00000000
   7        -0.00000000
   8         0.00016003
   9        -0.00013661
  10         0.00000000
Sym=     7a  
Ene=    -0.7073
Spin= Alpha
Occup=    1.00000
   1        -0.00000000
   2        -0.00000000
   3         0.64873950
   4         0.75995255
   5        -0.00000000
   6         0.00000000
   7         0.00000000
   8         0.01877257
   9         0.02199074
  10        -0.00000000
Sym=     7a  
Ene=    -0.7519
Spin= Beta
Occup=    1.00000
   1        -0.00000000
   2        -0.00000000
   3         0.64918153
   4         0.76047036
   5        -0.00000000
   6         0.00000000
   7         0.00000000
   8         0.00473241
   9         0.00554369
  10        -0.00000000
Sym=     8a  
Ene=    -0.7064
Spin= Alpha
Occup=    1.00000
   1        -0.00000000
   2        -0.00000000
   3        -0.70167686
   4         0.59899200
   5         0.00000000
   6        -0.00000000
   7        -0.00000000
   8         0.30298175
   9        -0.25864277
  10        -0.00000000
Sym=     8a  
Ene=    -0.5535
Spin= Beta
Occup=    1.00000
   1         0.00000000
   2         0.00000000
   3        -0.01342056
   4        -0.01572124
   5         0.00000000
   6        -0.00000000
   7        -0.00000000
   8         0.64930299
   9         0.76061264
  10         0.00000000
Sym=     9a  
Ene=    -0.6325
Spin= Alpha
Occup=    1.00000
   1         0.00000000
   2         0.00000000
   3        -0.02745606
   4        -0.03216284
   5         0.00000000
   6        -0.00000000
   7        -0.00000000
   8         0.64904882
   9         0.76031489
  10         0.00000000
Sym=     9a  
Ene=     0.1257
Spin= Beta
Occup=    0.00000
   1         0.00000000
   2         0.00000000
   3        -0.01001830
   4         0.00855220
   5         0.00000000
   6        -0.00000000
   7         0.00000000
   8         0.76063282
   9        -0.64932023
  10         0.00000000
Sym=    10a  
Ene=     0.0677
Spin= Alpha
Occup=    0.00000
   1         0.00012618
   2         0.00082066
   3         0.00000000
   4         0.00000000
   5         1.00155427
   6        -0.00181493
   7        -0.03024846
   8        -0.00000000
   9        -0.00000000
  10         0.05929471
Sym=    10a  
Ene=     0.1261
Spin= Beta
Occup=    0.00000
   1        -0.00208467
   2        -0.02927535
   3        -0.00000000
   4         0.00000000
   5        -0.04926329
   6         0.00008784
   7        -0.00102686
   8         0.00000000
   9        -0.00000000
  10        -1.00158384
