[Molden Format]
[N_Atoms]
                     2
[Atoms] (AU)
B1          1      5           0.00000000      0.00000000      0.00000000
N2          2      7           0.00000000      0.00000000      3.59047964
[Charge] (Mulliken)
  0.000000000000000E+000
  0.000000000000000E+000
[GTO] (AU)
   1
   s  14
  3.336021700E+04  1.039699991E-04
  4.972095200E+03  5.254399956E-04
  1.125641700E+03  2.509059979E-03
  3.164913600E+02  1.031887991E-02
  1.020072600E+02  3.636632969E-02
  3.629587300E+01  1.064607991E-01
  1.397141000E+01  2.403999880E-01
  5.741156000E+00  3.748581168E-01
  2.494268000E+00  3.100066974E-01
  1.114202000E+00  7.922455933E-02
  4.215490000E-01 -4.947589958E-03
  1.696330000E-01 -7.737119935E-03
  6.853500000E-02 -1.501079987E-03
  2.398700000E-02 -1.333299989E-04
   s  14
  3.336021700E+04 -2.030000008E-05
  4.972095200E+03 -1.025700004E-04
  1.125641700E+03 -4.911300020E-04
  3.164913600E+02 -2.026570008E-03
  1.020072600E+02 -7.261010030E-03
  3.629587300E+01 -2.197722009E-02
  1.397141000E+01 -5.408428022E-02
  5.741156000E+00 -1.022402604E-01
  2.494268000E+00 -1.423595206E-01
  1.114202000E+00 -4.658690019E-02
  4.215490000E-01  3.799402916E-01
  1.696330000E-01  5.890463624E-01
  6.853500000E-02  1.749075107E-01
  2.398700000E-02 -1.142030005E-03
   p   9
  5.500000000E+01  1.229800005E-03
  1.336610100E+01  8.827380035E-03
  4.135394000E+00  3.843340015E-02
  1.481256000E+00  1.150031805E-01
  6.021360000E-01  2.733674011E-01
  2.556360000E-01  4.061972116E-01
  1.111510000E-01  3.014967912E-01
  4.764800000E-02  7.684809030E-02
  1.667700000E-02 -8.170000032E-06
 
   2
   s  14
  7.476171500E+04  1.182599996E-04
  1.112365400E+04  5.172899983E-04
  2.512685700E+03  2.266659992E-03
  7.037772900E+02  9.145289970E-03
  2.254787900E+02  3.239342989E-02
  7.961581000E+01  9.770792967E-02
  3.023728300E+01  2.317036792E-01
  1.226362200E+01  3.768898887E-01
  5.265086000E+00  3.177420689E-01
  2.333471000E+00  8.211308973E-02
  9.018560000E-01  3.312089989E-03
  3.583360000E-01  3.720819988E-03
  1.410930000E-01  3.165419989E-03
  4.938300000E-02  4.595799985E-04
   s  14
  7.476171500E+04 -2.707000010E-05
  1.112365400E+04 -1.183700004E-04
  2.512685700E+03 -5.203800020E-04
  7.037772900E+02 -2.102930008E-03
  2.254787900E+02 -7.568200028E-03
  7.961581000E+01 -2.346767009E-02
  3.023728300E+01 -6.042901023E-02
  1.226362200E+01 -1.170549104E-01
  5.265086000E+00 -1.555321506E-01
  2.333471000E+00 -2.468935009E-02
  9.018560000E-01  3.625054514E-01
  3.583360000E-01  5.550845021E-01
  1.410930000E-01  2.148376908E-01
  4.938300000E-02  8.983850034E-03
   p   9
  1.266665700E+02  1.233630000E-03
  2.983738900E+01  9.493409996E-03
  9.394038000E+00  4.293961998E-02
  3.405104000E+00  1.362925399E-01
  1.350000000E+00  2.921362499E-01
  5.576960000E-01  3.887887598E-01
  2.324490000E-01  2.946801399E-01
  9.426400000E-02  8.012875997E-02
  3.299200000E-02  5.405199998E-04
 
[MO]
Sym=     1a  
Ene=   -15.6350
Spin= Alpha
Occup=    2.00000
   1        -0.00005381
   2         0.00064629
   3        -0.00000000
   4        -0.00000000
   5         0.00080729
   6         0.99995455
   7         0.00002648
   8        -0.00000000
   9        -0.00000000
  10        -0.00001338
Sym=     2a  
Ene=    -7.6969
Spin= Alpha
Occup=    2.00000
   1         0.99992465
   2         0.00005786
   3        -0.00000000
   4         0.00000000
   5         0.00004235
   6         0.00010499
   7         0.00144013
   8         0.00000000
   9        -0.00000000
  10        -0.00214037
Sym=     3a  
Ene=    -1.0407
Spin= Alpha
Occup=    2.00000
   1        -0.01337943
   2         0.19705751
   3         0.00000000
   4        -0.00000000
   5         0.13379074
   6        -0.00987816
   7         0.87405692
   8        -0.00000000
   9         0.00000000
  10        -0.09748931
Sym=     4a  
Ene=    -0.6488
Spin= Alpha
Occup=    2.00000
   1         0.01939022
   2        -0.37612170
   3        -0.00000000
   4        -0.00000000
   5        -0.07369318
   6         0.01082109
   7         0.34370927
   8        -0.00000000
   9        -0.00000000
  10         0.79692896
Sym=     5a  
Ene=    -0.5845
Spin= Alpha
Occup=    2.00000
   1         0.00000000
   2         0.00000000
   3         0.10322388
   4         0.12183502
   5        -0.00000000
   6         0.00000000
   7         0.00000000
   8         0.62326565
   9         0.73563967
  10         0.00000000
Sym=     6a  
Ene=    -0.5845
Spin= Alpha
Occup=    2.00000
   1         0.00000000
   2        -0.00000000
   3         0.12183502
   4        -0.10322388
   5         0.00000000
   6        -0.00000000
   7         0.00000000
   8         0.73563967
   9        -0.62326565
  10         0.00000000
Sym=     7a  
Ene=    -0.4209
Spin= Alpha
Occup=    0.00000
   1         0.01338398
   2         0.86725802
   3        -0.00000000
   4        -0.00000000
   5        -0.40017506
   6        -0.00126837
   7        -0.10761711
   8        -0.00000000
   9         0.00000000
  10         0.43245544
Sym=     8a  
Ene=    -0.2971
Spin= Alpha
Occup=    0.00000
   1         0.00000000
   2         0.00000000
   3         0.88932148
   4         0.45310896
   5        -0.00000000
   6         0.00000000
   7        -0.00000000
   8        -0.27036653
   9        -0.13775164
  10         0.00000000
Sym=     9a  
Ene=    -0.2971
Spin= Alpha
Occup=    0.00000
   1        -0.00000000
   2         0.00000000
   3        -0.45310896
   4         0.88932148
   5        -0.00000000
   6         0.00000000
   7         0.00000000
   8         0.13775164
   9        -0.27036653
  10         0.00000000
Sym=    10a  
Ene=    -0.2099
Spin= Alpha
Occup=    0.00000
   1         0.02189186
   2         0.46687729
   3        -0.00000000
   4         0.00000000
   5         1.02686766
   6        -0.05076345
   7        -0.57246534
   8        -0.00000000
   9        -0.00000000
  10         0.57763793
