[Molden Format]
[N_Atoms]
                     2
[Atoms] (AU)
C1          1      6           0.00000000      0.00000000      0.00000000
N2          2      7           0.00000000      0.00000000      2.07869874
[Charge] (Mulliken)
  0.207587646419973     
 -0.207587646420029     
[GTO] (AU)
   1
   s  14
  5.055750100E+04  1.128874000E-04
  7.524785600E+03  5.295373000E-04
  1.694327600E+03  2.450038300E-03
  4.728227900E+02  1.005398470E-02
  1.517107500E+02  3.545398060E-02
  5.391874600E+01  1.044071086E-01
  2.065931100E+01  2.412894918E-01
  8.383976000E+00  3.834225483E-01
  3.577015000E+00  3.078514393E-01
  1.547118000E+00  6.872442990E-02
  6.130130000E-01  2.224445000E-04
  2.460680000E-01  1.976748900E-03
  9.908700000E-02  2.057859400E-03
  3.468000000E-02  4.182020000E-04
   s  14
  5.055750100E+04 -2.507420000E-05
  7.524785600E+03 -1.175945000E-04
  1.694327600E+03 -5.456275000E-04
  4.728227900E+02 -2.245077100E-03
  1.517107500E+02 -8.043471800E-03
  5.391874600E+01 -2.442588710E-02
  2.065931100E+01 -6.136791180E-02
  8.383976000E+00 -1.177767835E-01
  3.577015000E+00 -1.550487783E-01
  1.547118000E+00 -1.933316860E-02
  6.130130000E-01  3.996930678E-01
  2.460680000E-01  5.589420949E-01
  9.908700000E-02  1.711195023E-01
  3.468000000E-02  7.456244600E-03
   p   9
  8.333315500E+01  1.344656000E-03
  1.955761100E+01  1.023555500E-02
  6.080365000E+00  4.520067100E-02
  2.179317000E+00  1.410756198E-01
  8.651500000E-01  3.047388085E-01
  3.619440000E-01  3.995281011E-01
  1.547400000E-01  2.719163432E-01
  6.542900000E-02  5.857669330E-02
  2.290000000E-02 -1.263813000E-04
 
   2
   s  14
  7.476171500E+04  1.182599996E-04
  1.112365400E+04  5.172899983E-04
  2.512685700E+03  2.266659992E-03
  7.037772900E+02  9.145289970E-03
  2.254787900E+02  3.239342989E-02
  7.961581000E+01  9.770792967E-02
  3.023728300E+01  2.317036792E-01
  1.226362200E+01  3.768898887E-01
  5.265086000E+00  3.177420689E-01
  2.333471000E+00  8.211308973E-02
  9.018560000E-01  3.312089989E-03
  3.583360000E-01  3.720819988E-03
  1.410930000E-01  3.165419989E-03
  4.938300000E-02  4.595799985E-04
   s  14
  7.476171500E+04 -2.707000010E-05
  1.112365400E+04 -1.183700004E-04
  2.512685700E+03 -5.203800020E-04
  7.037772900E+02 -2.102930008E-03
  2.254787900E+02 -7.568200028E-03
  7.961581000E+01 -2.346767009E-02
  3.023728300E+01 -6.042901023E-02
  1.226362200E+01 -1.170549104E-01
  5.265086000E+00 -1.555321506E-01
  2.333471000E+00 -2.468935009E-02
  9.018560000E-01  3.625054514E-01
  3.583360000E-01  5.550845021E-01
  1.410930000E-01  2.148376908E-01
  4.938300000E-02  8.983850034E-03
   p   9
  1.266665700E+02  1.233630000E-03
  2.983738900E+01  9.493409996E-03
  9.394038000E+00  4.293961998E-02
  3.405104000E+00  1.362925399E-01
  1.350000000E+00  2.921362499E-01
  5.576960000E-01  3.887887598E-01
  2.324490000E-01  2.946801399E-01
  9.426400000E-02  8.012875997E-02
  3.299200000E-02  5.405199998E-04
 
[MO]
Sym=     1a  
Ene=   -15.7000
Spin= Alpha
Occup=    1.00000
   1        -0.00053109
   2        -0.00336177
   3         0.00000000
   4        -0.00000000
   5        -0.00140732
   6         1.00037533
   7        -0.00338827
   8        -0.00000000
   9         0.00000000
  10        -0.00449807
Sym=     1a  
Ene=   -15.7200
Spin= Beta
Occup=    1.00000
   1        -0.00082379
   2        -0.00416530
   3         0.00000000
   4        -0.00000000
   5        -0.00215270
   6         1.00052260
   7        -0.00137962
   8        -0.00000000
   9         0.00000000
  10        -0.00506029
Sym=     2a  
Ene=   -11.5050
Spin= Alpha
Occup=    1.00000
   1         0.99995634
   2         0.00028417
   3        -0.00000000
   4         0.00000000
   5         0.00209047
   6        -0.00137005
   7        -0.00110210
   8         0.00000000
   9        -0.00000000
  10        -0.00100511
Sym=     2a  
Ene=   -11.4570
Spin= Beta
Occup=    1.00000
   1         0.99994258
   2        -0.00245050
   3         0.00000000
   4        -0.00000000
   5         0.00255950
   6        -0.00116067
   7        -0.00074667
   8        -0.00000000
   9        -0.00000000
  10        -0.00087040
Sym=     3a  
Ene=    -1.3423
Spin= Alpha
Occup=    1.00000
   1        -0.07524629
   2         0.39204058
   3        -0.00000000
   4        -0.00000000
   5         0.22777104
   6        -0.04960459
   7         0.51565598
   8         0.00000000
   9        -0.00000000
  10        -0.29401458
Sym=     3a  
Ene=    -1.3476
Spin= Beta
Occup=    1.00000
   1        -0.07968043
   2         0.26974587
   3         0.00000000
   4        -0.00000000
   5         0.23488649
   6        -0.04245353
   7         0.62785658
   8        -0.00000000
   9         0.00000000
  10        -0.27396492
Sym=     4a  
Ene=    -0.7587
Spin= Alpha
Occup=    1.00000
   1        -0.02219243
   2        -0.76871908
   3         0.00000000
   4        -0.00000000
   5         0.54377093
   6        -0.00670668
   7         0.40557433
   8         0.00000000
   9        -0.00000000
  10         0.06924557
Sym=     4a  
Ene=    -0.6286
Spin= Beta
Occup=    1.00000
   1         0.02843060
   2        -0.37110408
   3        -0.00000000
   4         0.00000000
   5        -0.15176030
   6         0.04735304
   7         0.72591588
   8        -0.00000000
   9         0.00000000
  10         0.66572315
Sym=     5a  
Ene=    -0.5969
Spin= Alpha
Occup=    1.00000
   1        -0.00000000
   2        -0.00000000
   3        -0.02862517
   4         0.72468245
   5         0.00000000
   6        -0.00000000
   7        -0.00000000
   8        -0.01854511
   9         0.46949307
  10        -0.00000000
Sym=     5a  
Ene=    -0.5934
Spin= Beta
Occup=    1.00000
   1         0.00000000
   2        -0.00000000
   3         0.00074345
   4        -0.44187620
   5        -0.00000000
   6         0.00000000
   7         0.00000000
   8         0.00125813
   9        -0.74778131
  10         0.00000000
Sym=     6a  
Ene=    -0.5969
Spin= Alpha
Occup=    1.00000
   1        -0.00000000
   2        -0.00000000
   3         0.72468245
   4         0.02862517
   5         0.00000000
   6        -0.00000000
   7        -0.00000000
   8         0.46949307
   9         0.01854511
  10        -0.00000000
Sym=     6a  
Ene=    -0.5934
Spin= Beta
Occup=    1.00000
   1        -0.00000000
   2         0.00000000
   3        -0.44187620
   4        -0.00074345
   5        -0.00000000
   6        -0.00000000
   7        -0.00000000
   8        -0.74778131
   9        -0.00125813
  10        -0.00000000
Sym=     7a  
Ene=    -0.5882
Spin= Alpha
Occup=    1.00000
   1         0.04514954
   2         0.11894202
   3         0.00000000
   4         0.00000000
   5        -0.45734937
   6         0.04893398
   7         0.63711710
   8         0.00000000
   9         0.00000000
  10         0.73443543
Sym=     7a  
Ene=    -0.0114
Spin= Beta
Occup=    0.00000
   1         0.05286683
   2         0.81705559
   3        -0.00000000
   4         0.00000000
   5        -0.61356605
   6         0.01448173
   7        -0.04661890
   8         0.00000000
   9        -0.00000000
  10         0.37258967
Sym=     8a  
Ene=     0.2302
Spin= Alpha
Occup=    0.00000
   1         0.00000000
   2         0.00000000
   3        -0.00118707
   4        -0.79637462
   5        -0.00000000
   6         0.00000000
   7        -0.00000000
   8         0.00144474
   9         0.96924106
  10         0.00000000
Sym=     8a  
Ene=     0.2553
Spin= Beta
Occup=    0.00000
   1         0.00000000
   2         0.00000000
   3        -0.00874951
   4        -0.98227609
   5        -0.00000000
   6        -0.00000000
   7        -0.00000000
   8         0.00690521
   9         0.77522373
  10         0.00000000
Sym=     9a  
Ene=     0.2302
Spin= Alpha
Occup=    0.00000
   1        -0.00000000
   2        -0.00000000
   3        -0.79637462
   4         0.00118707
   5         0.00000000
   6         0.00000000
   7        -0.00000000
   8         0.96924106
   9        -0.00144474
  10        -0.00000000
Sym=     9a  
Ene=     0.2553
Spin= Beta
Occup=    0.00000
   1        -0.00000000
   2        -0.00000000
   3        -0.98227609
   4         0.00874951
   5         0.00000000
   6         0.00000000
   7         0.00000000
   8         0.77522373
   9        -0.00690521
  10        -0.00000000
Sym=    10a  
Ene=     1.0728
Spin= Alpha
Occup=    0.00000
   1         0.25263020
   2         1.42961167
   3         0.00000000
   4         0.00000000
   5         1.30083890
   6        -0.24802160
   7        -1.50853105
   8         0.00000000
   9         0.00000000
  10         1.14612909
Sym=    10a  
Ene=     1.1193
Spin= Beta
Occup=    0.00000
   1         0.24917856
   2         1.38725942
   3        -0.00000000
   4        -0.00000000
   5         1.33949460
   6        -0.24872949
   7        -1.47941032
   8        -0.00000000
   9        -0.00000000
  10         1.13453716
