[Molden Format]
[N_Atoms]
                     2
[Atoms] (AU)
C1          1      6           0.00000000      0.00000000      0.00000000
F2          2      9           0.00000000      0.00000000      1.70075351
[Charge] (Mulliken)
  0.305733077718180     
 -0.305733077718195     
[GTO] (AU)
   1
   s  14
  5.055750100E+04  1.128874000E-04
  7.524785600E+03  5.295373000E-04
  1.694327600E+03  2.450038300E-03
  4.728227900E+02  1.005398470E-02
  1.517107500E+02  3.545398060E-02
  5.391874600E+01  1.044071086E-01
  2.065931100E+01  2.412894918E-01
  8.383976000E+00  3.834225483E-01
  3.577015000E+00  3.078514393E-01
  1.547118000E+00  6.872442990E-02
  6.130130000E-01  2.224445000E-04
  2.460680000E-01  1.976748900E-03
  9.908700000E-02  2.057859400E-03
  3.468000000E-02  4.182020000E-04
   s  14
  5.055750100E+04 -2.507420000E-05
  7.524785600E+03 -1.175945000E-04
  1.694327600E+03 -5.456275000E-04
  4.728227900E+02 -2.245077100E-03
  1.517107500E+02 -8.043471800E-03
  5.391874600E+01 -2.442588710E-02
  2.065931100E+01 -6.136791180E-02
  8.383976000E+00 -1.177767835E-01
  3.577015000E+00 -1.550487783E-01
  1.547118000E+00 -1.933316860E-02
  6.130130000E-01  3.996930678E-01
  2.460680000E-01  5.589420949E-01
  9.908700000E-02  1.711195023E-01
  3.468000000E-02  7.456244600E-03
   p   9
  8.333315500E+01  1.344656000E-03
  1.955761100E+01  1.023555500E-02
  6.080365000E+00  4.520067100E-02
  2.179317000E+00  1.410756198E-01
  8.651500000E-01  3.047388085E-01
  3.619440000E-01  3.995281011E-01
  1.547400000E-01  2.719163432E-01
  6.542900000E-02  5.857669330E-02
  2.290000000E-02 -1.263813000E-04
 
   2
   s  14
  1.031094600E+05  1.713099991E-04
  1.528100700E+04  7.123999962E-04
  3.441539200E+03  2.990479984E-03
  9.670948300E+02  1.164036994E-02
  3.140353400E+02  3.968642979E-02
  1.134423000E+02  1.128546094E-01
  4.464472700E+01  2.473650687E-01
  1.894287400E+01  3.672702681E-01
  8.532743000E+00  2.896286985E-01
  3.919401000E+00  7.786681959E-02
  1.568157000E+00  4.562139976E-03
  6.232900000E-01  2.468879987E-03
  2.408610000E-01  1.106309994E-03
  8.430100000E-02  1.739699991E-04
   s  14
  1.031094600E+05 -4.044999995E-05
  1.528100700E+04 -1.682299998E-04
  3.441539200E+03 -7.084299991E-04
  9.670948300E+02 -2.767999996E-03
  3.140353400E+02 -9.611379987E-03
  1.134423000E+02 -2.833957996E-02
  4.464472700E+01 -6.839343991E-02
  1.894287400E+01 -1.237379298E-01
  8.532743000E+00 -1.512859698E-01
  3.919401000E+00 -9.099909988E-03
  1.568157000E+00  3.716257695E-01
  6.232900000E-01  5.500214393E-01
  2.408610000E-01  2.092318697E-01
  8.430100000E-02  8.074639989E-03
   p   9
  2.453302900E+02  1.024860004E-03
  5.691900500E+01  8.344290032E-03
  1.760456800E+01  4.078927016E-02
  6.274995000E+00  1.351370605E-01
  2.447030000E+00  2.798830811E-01
  9.950600000E-01  3.597966414E-01
  4.039730000E-01  3.055347412E-01
  1.548100000E-01  1.354703905E-01
  5.418400000E-02  2.804449011E-02
 
[MO]
Sym=     1a  
Ene=   -26.6490
Spin= Alpha
Occup=    1.00000
   1        -0.00078001
   2        -0.00249117
   3         0.00000000
   4         0.00000000
   5        -0.00134195
   6         1.00031988
   7        -0.00017036
   8         0.00000000
   9         0.00000000
  10        -0.00311778
Sym=     1a  
Ene=   -26.6340
Spin= Beta
Occup=    1.00000
   1        -0.00066165
   2        -0.00206926
   3         0.00000000
   4         0.00000000
   5        -0.00103286
   6         1.00025492
   7        -0.00097617
   8         0.00000000
   9         0.00000000
  10        -0.00299573
Sym=     2a  
Ene=   -11.5130
Spin= Alpha
Occup=    1.00000
   1         0.99932606
   2        -0.00050130
   3         0.00000000
   4        -0.00000000
   5         0.00664323
   6        -0.00204676
   7        -0.00055079
   8        -0.00000000
   9         0.00000000
  10        -0.00443778
Sym=     2a  
Ene=   -11.4880
Spin= Beta
Occup=    1.00000
   1         0.99914252
   2        -0.00353197
   3         0.00000000
   4        -0.00000000
   5         0.00605897
   6        -0.00179664
   7         0.00091955
   8        -0.00000000
   9        -0.00000000
  10        -0.00475414
Sym=     3a  
Ene=    -2.1504
Spin= Alpha
Occup=    1.00000
   1        -0.13160268
   2         0.04846569
   3         0.00000000
   4         0.00000000
   5         0.13868032
   6        -0.01718491
   7         0.83168663
   8        -0.00000000
   9         0.00000000
  10        -0.33369463
Sym=     3a  
Ene=    -2.1219
Spin= Beta
Occup=    1.00000
   1        -0.13220136
   2         0.03870067
   3         0.00000000
   4         0.00000000
   5         0.14381642
   6        -0.01675374
   7         0.83132009
   8        -0.00000000
   9         0.00000000
  10        -0.34174677
Sym=     4a  
Ene=    -1.1009
Spin= Alpha
Occup=    1.00000
   1         0.09288420
   2        -0.13091049
   3        -0.00000000
   4        -0.00000000
   5        -0.14623630
   6         0.02777702
   7         0.51131448
   8        -0.00000000
   9        -0.00000000
  10         0.86307459
Sym=     4a  
Ene=    -1.0723
Spin= Beta
Occup=    1.00000
   1         0.09794976
   2        -0.06638919
   3        -0.00000000
   4        -0.00000000
   5        -0.15042309
   6         0.02401987
   7         0.48743114
   8        -0.00000000
   9        -0.00000000
  10         0.88540656
Sym=     5a  
Ene=    -1.0788
Spin= Alpha
Occup=    1.00000
   1         0.00000000
   2        -0.00000000
   3         0.18179532
   4         0.13667924
   5        -0.00000000
   6         0.00000000
   7         0.00000000
   8         0.70693753
   9         0.53149712
  10         0.00000000
Sym=     5a  
Ene=    -0.9956
Spin= Beta
Occup=    1.00000
   1        -0.00000000
   2        -0.00000000
   3        -0.13559768
   4         0.18035675
   5         0.00000000
   6        -0.00000000
   7        -0.00000000
   8        -0.53215119
   9         0.70780751
  10        -0.00000000
Sym=     6a  
Ene=    -1.0043
Spin= Alpha
Occup=    1.00000
   1        -0.00000000
   2        -0.00000000
   3        -0.14190209
   4         0.18874216
   5         0.00000000
   6        -0.00000000
   7        -0.00000000
   8        -0.52831427
   9         0.70270407
  10        -0.00000000
Sym=     6a  
Ene=    -0.9667
Spin= Beta
Occup=    1.00000
   1         0.00000000
   2         0.00000000
   3         0.16938763
   4         0.12735077
   5        -0.00000000
   6         0.00000000
   7         0.00000000
   8         0.71436591
   9         0.53708200
  10         0.00000000
Sym=     7a  
Ene=    -0.6007
Spin= Alpha
Occup=    1.00000
   1         0.06665487
   2         0.95710925
   3         0.00000000
   4         0.00000000
   5        -0.47788325
   6        -0.01339107
   7        -0.17393397
   8        -0.00000000
   9        -0.00000000
  10         0.29868236
Sym=     7a  
Ene=    -0.5179
Spin= Beta
Occup=    1.00000
   1         0.05587400
   2         0.92998646
   3         0.00000000
   4         0.00000000
   5        -0.50492141
   6        -0.00870048
   7        -0.15225788
   8        -0.00000000
   9        -0.00000000
  10         0.23136704
Sym=     8a  
Ene=    -0.3171
Spin= Alpha
Occup=    1.00000
   1         0.00000000
   2         0.00000000
   3        -0.85845225
   4        -0.64541049
   5        -0.00000000
   6        -0.00000000
   7        -0.00000000
   8         0.51983567
   9         0.39082826
  10         0.00000000
Sym=     8a  
Ene=     0.2403
Spin= Beta
Occup=    0.00000
   1         0.00000000
   2        -0.00000000
   3         0.64563858
   4        -0.85875563
   5         0.00000000
   6        -0.00000000
   7        -0.00000000
   8        -0.38993720
   9         0.51865049
  10         0.00000000
Sym=     9a  
Ene=     0.2112
Spin= Alpha
Occup=    0.00000
   1         0.00000000
   2        -0.00000000
   3         0.64428232
   4        -0.85695169
   5         0.00000000
   6        -0.00000000
   7        -0.00000000
   8        -0.39512016
   9         0.52554428
  10         0.00000000
Sym=     9a  
Ene=     0.2936
Spin= Beta
Occup=    0.00000
   1         0.00000000
   2         0.00000000
   3        -0.86098643
   4        -0.64731576
   5        -0.00000000
   6        -0.00000000
   7        -0.00000000
   8         0.50957937
   9         0.38311726
  10         0.00000000
Sym=    10a  
Ene=     1.0401
Spin= Alpha
Occup=    0.00000
   1         0.24997029
   2         1.22494280
   3         0.00000000
   4         0.00000000
   5         1.37274477
   6        -0.23755785
   7        -1.44055418
   8         0.00000000
   9        -0.00000000
  10         0.78652300
Sym=    10a  
Ene=     1.0831
Spin= Beta
Occup=    0.00000
   1         0.25109452
   2         1.25109516
   3        -0.00000000
   4         0.00000000
   5         1.36204631
   6        -0.23849011
   7        -1.45145734
   8         0.00000000
   9        -0.00000000
  10         0.78090392
