[Molden Format]
[N_Atoms]
                     2
[Atoms] (AU)
C1          1      6           0.00000000      0.00000000      0.00000000
F2          2      9           0.00000000      0.00000000      4.34637009
[Charge] (Mulliken)
  0.455113708856632     
 -0.455113708856642     
[GTO] (AU)
   1
   s  14
  5.055750100E+04  1.128874000E-04
  7.524785600E+03  5.295373000E-04
  1.694327600E+03  2.450038300E-03
  4.728227900E+02  1.005398470E-02
  1.517107500E+02  3.545398060E-02
  5.391874600E+01  1.044071086E-01
  2.065931100E+01  2.412894918E-01
  8.383976000E+00  3.834225483E-01
  3.577015000E+00  3.078514393E-01
  1.547118000E+00  6.872442990E-02
  6.130130000E-01  2.224445000E-04
  2.460680000E-01  1.976748900E-03
  9.908700000E-02  2.057859400E-03
  3.468000000E-02  4.182020000E-04
   s  14
  5.055750100E+04 -2.507420000E-05
  7.524785600E+03 -1.175945000E-04
  1.694327600E+03 -5.456275000E-04
  4.728227900E+02 -2.245077100E-03
  1.517107500E+02 -8.043471800E-03
  5.391874600E+01 -2.442588710E-02
  2.065931100E+01 -6.136791180E-02
  8.383976000E+00 -1.177767835E-01
  3.577015000E+00 -1.550487783E-01
  1.547118000E+00 -1.933316860E-02
  6.130130000E-01  3.996930678E-01
  2.460680000E-01  5.589420949E-01
  9.908700000E-02  1.711195023E-01
  3.468000000E-02  7.456244600E-03
   p   9
  8.333315500E+01  1.344656000E-03
  1.955761100E+01  1.023555500E-02
  6.080365000E+00  4.520067100E-02
  2.179317000E+00  1.410756198E-01
  8.651500000E-01  3.047388085E-01
  3.619440000E-01  3.995281011E-01
  1.547400000E-01  2.719163432E-01
  6.542900000E-02  5.857669330E-02
  2.290000000E-02 -1.263813000E-04
 
   2
   s  14
  1.031094600E+05  1.713099991E-04
  1.528100700E+04  7.123999962E-04
  3.441539200E+03  2.990479984E-03
  9.670948300E+02  1.164036994E-02
  3.140353400E+02  3.968642979E-02
  1.134423000E+02  1.128546094E-01
  4.464472700E+01  2.473650687E-01
  1.894287400E+01  3.672702681E-01
  8.532743000E+00  2.896286985E-01
  3.919401000E+00  7.786681959E-02
  1.568157000E+00  4.562139976E-03
  6.232900000E-01  2.468879987E-03
  2.408610000E-01  1.106309994E-03
  8.430100000E-02  1.739699991E-04
   s  14
  1.031094600E+05 -4.044999995E-05
  1.528100700E+04 -1.682299998E-04
  3.441539200E+03 -7.084299991E-04
  9.670948300E+02 -2.767999996E-03
  3.140353400E+02 -9.611379987E-03
  1.134423000E+02 -2.833957996E-02
  4.464472700E+01 -6.839343991E-02
  1.894287400E+01 -1.237379298E-01
  8.532743000E+00 -1.512859698E-01
  3.919401000E+00 -9.099909988E-03
  1.568157000E+00  3.716257695E-01
  6.232900000E-01  5.500214393E-01
  2.408610000E-01  2.092318697E-01
  8.430100000E-02  8.074639989E-03
   p   9
  2.453302900E+02  1.024860004E-03
  5.691900500E+01  8.344290032E-03
  1.760456800E+01  4.078927016E-02
  6.274995000E+00  1.351370605E-01
  2.447030000E+00  2.798830811E-01
  9.950600000E-01  3.597966414E-01
  4.039730000E-01  3.055347412E-01
  1.548100000E-01  1.354703905E-01
  5.418400000E-02  2.804449011E-02
 
[MO]
Sym=     1a  
Ene=   -26.0500
Spin= Alpha
Occup=    2.00000
   1        -0.00005357
   2        -0.00292533
   3        -0.00000000
   4        -0.00000000
   5         0.00015801
   6         0.99999955
   7        -0.00279312
   8        -0.00000000
   9         0.00000000
  10        -0.00026004
Sym=     2a  
Ene=   -11.5180
Spin= Alpha
Occup=    2.00000
   1         0.99993703
   2        -0.01122177
   3         0.00000000
   4         0.00000000
   5         0.00120052
   6         0.00000228
   7        -0.00038050
   8         0.00000000
   9        -0.00000000
  10         0.00006620
Sym=     3a  
Ene=    -1.3748
Spin= Alpha
Occup=    2.00000
   1        -0.00124366
   2        -0.05482797
   3         0.00000000
   4         0.00000000
   5         0.03348261
   6         0.00265679
   7         0.99735462
   8        -0.00000000
   9        -0.00000000
  10        -0.00913081
Sym=     4a  
Ene=    -0.4977
Spin= Alpha
Occup=    2.00000
   1         0.00000000
   2         0.00000000
   3         0.02125486
   4         0.02665919
   5        -0.00000000
   6         0.00000000
   7         0.00000000
   8         0.62209527
   9         0.78027122
  10         0.00000000
Sym=     5a  
Ene=    -0.4963
Spin= Alpha
Occup=    2.00000
   1        -0.00000000
   2        -0.00000000
   3         0.03725662
   4        -0.02970399
   5        -0.00000000
   6         0.00000000
   7         0.00000000
   8         0.77936952
   9        -0.62137636
  10        -0.00000000
Sym=     6a  
Ene=    -0.4143
Spin= Alpha
Occup=    2.00000
   1         0.00640218
   2         0.03021590
   3        -0.00000000
   4        -0.00000000
   5        -0.46822336
   6         0.00398527
   7         0.06966336
   8        -0.00000000
   9        -0.00000000
  10         0.83054345
Sym=     7a  
Ene=    -0.8189
Spin= Alpha
Occup=    2.00000
   1        -0.01130184
   2        -0.99562327
   3         0.00000000
   4         0.00000000
   5         0.08631319
   6        -0.00058042
   7        -0.01443892
   8        -0.00000000
   9         0.00000000
  10        -0.00155125
Sym=     8a  
Ene=     0.0000
Spin= Alpha
Occup=    1.00000
   1        -0.00000000
   2        -0.00000000
   3        -0.62364716
   4        -0.78221770
   5         0.00000000
   6        -0.00000000
   7         0.00000000
   8         0.04883670
   9         0.06125408
  10        -0.00000000
Sym=     9a  
Ene=    -0.0113
Spin= Alpha
Occup=    0.00000
   1         0.00000000
   2         0.00000000
   3        -0.78178462
   4         0.62330187
   5         0.00000000
   6        -0.00000000
   7        -0.00000000
   8         0.07182196
   9        -0.05726227
  10         0.00000000
Sym=    10a  
Ene=    -0.0054
Spin= Alpha
Occup=    0.00000
   1        -0.00443104
   2        -0.13477365
   3        -0.00000000
   4         0.00000000
   5        -0.89374463
   6         0.00762729
   7         0.11570985
   8         0.00000000
   9        -0.00000000
  10        -0.58050759
