[Molden Format]
[N_Atoms]
                     2
[Atoms] (AU)
F1          1      9           0.00000000      0.00000000      0.00000000
LI2         2      3           0.00000000      0.00000000      4.72431531
[Charge] (Mulliken)
 -0.686742794372819     
  0.686742794372793     
[GTO] (AU)
   1
   s  14
  1.031094600E+05  1.713099991E-04
  1.528100700E+04  7.123999962E-04
  3.441539200E+03  2.990479984E-03
  9.670948300E+02  1.164036994E-02
  3.140353400E+02  3.968642979E-02
  1.134423000E+02  1.128546094E-01
  4.464472700E+01  2.473650687E-01
  1.894287400E+01  3.672702681E-01
  8.532743000E+00  2.896286985E-01
  3.919401000E+00  7.786681959E-02
  1.568157000E+00  4.562139976E-03
  6.232900000E-01  2.468879987E-03
  2.408610000E-01  1.106309994E-03
  8.430100000E-02  1.739699991E-04
   s  14
  1.031094600E+05 -4.044999995E-05
  1.528100700E+04 -1.682299998E-04
  3.441539200E+03 -7.084299991E-04
  9.670948300E+02 -2.767999996E-03
  3.140353400E+02 -9.611379987E-03
  1.134423000E+02 -2.833957996E-02
  4.464472700E+01 -6.839343991E-02
  1.894287400E+01 -1.237379298E-01
  8.532743000E+00 -1.512859698E-01
  3.919401000E+00 -9.099909988E-03
  1.568157000E+00  3.716257695E-01
  6.232900000E-01  5.500214393E-01
  2.408610000E-01  2.092318697E-01
  8.430100000E-02  8.074639989E-03
   p   9
  2.453302900E+02  1.024860004E-03
  5.691900500E+01  8.344290032E-03
  1.760456800E+01  4.078927016E-02
  6.274995000E+00  1.351370605E-01
  2.447030000E+00  2.798830811E-01
  9.950600000E-01  3.597966414E-01
  4.039730000E-01  3.055347412E-01
  1.548100000E-01  1.354703905E-01
  5.418400000E-02  2.804449011E-02
 
   2
   s  14
  9.497934400E+03  9.668999974E-05
  1.416811200E+03  6.087099984E-04
  3.214599400E+02  3.101519992E-03
  9.112416300E+01  1.266904997E-02
  2.999989100E+01  4.248012989E-02
  1.101763100E+01  1.150183297E-01
  4.372801000E+00  2.398650094E-01
  1.831256000E+00  3.584300090E-01
  8.022610000E-01  3.048527792E-01
  3.626480000E-01  8.824261976E-02
  1.139950000E-01 -8.445899977E-04
  5.123700000E-02 -7.943959979E-03
  2.246800000E-02 -3.764419990E-03
  7.860000000E-03 -8.868999976E-05
   s  14
  9.497934400E+03 -1.244999993E-05
  1.416811200E+03 -7.838999954E-05
  3.214599400E+02 -4.007099976E-04
  9.112416300E+01 -1.645249990E-03
  2.999989100E+01 -5.634599967E-03
  1.101763100E+01 -1.590780991E-02
  4.372801000E+00 -3.612581979E-02
  1.831256000E+00 -6.459927962E-02
  8.022610000E-01 -1.008321794E-01
  3.626480000E-01 -9.757613942E-02
  1.139950000E-01  2.301215886E-01
  5.123700000E-02  6.102389764E-01
  2.246800000E-02  2.849406083E-01
  7.860000000E-03  4.026899976E-03
   p   9
  1.311950400E+01  1.524940000E-03
  3.077424200E+00  8.314830000E-03
  1.098800500E+00  1.933203000E-02
  4.357784000E-01  4.934293000E-02
  1.802432000E-01  1.623554000E-01
  7.613330000E-02  3.847505400E-01
  3.254650000E-02  4.336100400E-01
  1.401820000E-02  1.287005900E-01
  4.906400000E-03 -1.018520000E-03
 
[MO]
Sym=     1a  
Ene=   -25.7900
Spin= Alpha
Occup=    1.00000
   1         1.00000835
   2        -0.00228753
   3         0.00000000
   4         0.00000000
   5         0.00037782
   6        -0.00001790
   7        -0.00021424
   8        -0.00000000
   9        -0.00000000
  10         0.00030280
Sym=     1a  
Ene=   -25.7900
Spin= Beta
Occup=    1.00000
   1         1.00000835
   2        -0.00228753
   3         0.00000000
   4         0.00000000
   5         0.00037782
   6        -0.00001790
   7        -0.00021424
   8        -0.00000000
   9        -0.00000000
  10         0.00030280
Sym=     2a  
Ene=    -2.5483
Spin= Alpha
Occup=    1.00000
   1         0.00004534
   2         0.00122793
   3        -0.00000000
   4        -0.00000000
   5         0.00065047
   6         0.99990757
   7         0.01223974
   8        -0.00000000
   9         0.00000000
  10         0.00207339
Sym=     2a  
Ene=    -2.5483
Spin= Beta
Occup=    1.00000
   1         0.00004534
   2         0.00122793
   3        -0.00000000
   4        -0.00000000
   5         0.00065047
   6         0.99990757
   7         0.01223974
   8        -0.00000000
   9         0.00000000
  10         0.00207339
Sym=     3a  
Ene=    -1.2107
Spin= Alpha
Occup=    1.00000
   1         0.00109491
   2         0.98626842
   3         0.00000000
   4        -0.00000000
   5         0.00838990
   6        -0.00392481
   7         0.02681464
   8         0.00000000
   9         0.00000000
  10        -0.03380123
Sym=     3a  
Ene=    -1.2107
Spin= Beta
Occup=    1.00000
   1         0.00109491
   2         0.98626842
   3         0.00000000
   4        -0.00000000
   5         0.00838990
   6        -0.00392481
   7         0.02681464
   8         0.00000000
   9         0.00000000
  10        -0.03380123
Sym=     4a  
Ene=    -0.3221
Spin= Alpha
Occup=    1.00000
   1         0.00000000
   2         0.00000000
   3        -0.02892889
   4         0.98501137
   5        -0.00000000
   6         0.00000000
   7         0.00000000
   8        -0.00287140
   9         0.09776932
  10         0.00000000
Sym=     4a  
Ene=    -0.3221
Spin= Beta
Occup=    1.00000
   1         0.00000000
   2         0.00000000
   3        -0.02892889
   4         0.98501137
   5        -0.00000000
   6         0.00000000
   7         0.00000000
   8        -0.00287140
   9         0.09776932
  10         0.00000000
Sym=     5a  
Ene=    -0.3221
Spin= Alpha
Occup=    1.00000
   1         0.00000000
   2         0.00000000
   3         0.98501137
   4         0.02892889
   5        -0.00000000
   6         0.00000000
   7        -0.00000000
   8         0.09776932
   9         0.00287140
  10         0.00000000
Sym=     5a  
Ene=    -0.3221
Spin= Beta
Occup=    1.00000
   1         0.00000000
   2         0.00000000
   3         0.98501137
   4         0.02892889
   5        -0.00000000
   6         0.00000000
   7        -0.00000000
   8         0.09776932
   9         0.00287140
  10         0.00000000
Sym=     6a  
Ene=    -0.3001
Spin= Alpha
Occup=    1.00000
   1        -0.00766845
   2        -0.09695279
   3         0.00000000
   4         0.00000000
   5         0.92607289
   6        -0.01935568
   7         0.22953500
   8         0.00000000
   9         0.00000000
  10        -0.14585919
Sym=     6a  
Ene=    -0.3001
Spin= Beta
Occup=    1.00000
   1        -0.00766845
   2        -0.09695279
   3         0.00000000
   4         0.00000000
   5         0.92607289
   6        -0.01935568
   7         0.22953500
   8         0.00000000
   9         0.00000000
  10        -0.14585919
Sym=     7a  
Ene=    -0.0211
Spin= Alpha
Occup=    0.00000
   1         0.00127629
   2        -0.00024761
   3        -0.00000000
   4        -0.00000000
   5        -0.16147873
   6        -0.00846137
   7         0.84375838
   8         0.00000000
   9        -0.00000000
  10         0.52467514
Sym=     7a  
Ene=    -0.0211
Spin= Beta
Occup=    0.00000
   1         0.00127629
   2        -0.00024761
   3        -0.00000000
   4        -0.00000000
   5        -0.16147873
   6        -0.00846137
   7         0.84375838
   8         0.00000000
   9        -0.00000000
  10         0.52467514
Sym=     8a  
Ene=     0.0552
Spin= Alpha
Occup=    0.00000
   1         0.00000000
   2         0.00000000
   3        -0.08908235
   4        -0.17651243
   5         0.00000000
   6        -0.00000000
   7        -0.00000000
   8         0.45069044
   9         0.89302162
  10         0.00000000
Sym=     8a  
Ene=     0.0552
Spin= Beta
Occup=    0.00000
   1         0.00000000
   2         0.00000000
   3        -0.08908235
   4        -0.17651243
   5         0.00000000
   6        -0.00000000
   7        -0.00000000
   8         0.45069044
   9         0.89302162
  10         0.00000000
Sym=     9a  
Ene=     0.0552
Spin= Alpha
Occup=    0.00000
   1         0.00000000
   2         0.00000000
   3         0.17651243
   4        -0.08908235
   5         0.00000000
   6        -0.00000000
   7        -0.00000000
   8        -0.89302162
   9         0.45069044
  10         0.00000000
Sym=     9a  
Ene=     0.0552
Spin= Beta
Occup=    0.00000
   1         0.00000000
   2         0.00000000
   3         0.17651243
   4        -0.08908235
   5         0.00000000
   6        -0.00000000
   7        -0.00000000
   8        -0.89302162
   9         0.45069044
  10         0.00000000
Sym=    10a  
Ene=     0.1661
Spin= Alpha
Occup=    0.00000
   1         0.03133392
   2         0.34369162
   3        -0.00000000
   4         0.00000000
   5         0.37538073
   6        -0.00308041
   7        -0.52486105
   8         0.00000000
   9        -0.00000000
  10         0.88714684
Sym=    10a  
Ene=     0.1661
Spin= Beta
Occup=    0.00000
   1         0.03133392
   2         0.34369162
   3        -0.00000000
   4         0.00000000
   5         0.37538073
   6        -0.00308041
   7        -0.52486105
   8         0.00000000
   9        -0.00000000
  10         0.88714684
