   This run of MOLCAS is using the pymolcas driver

                             OPE
                             OPE          NMOL  CASOP  ENMOLC A   SO
                 OPE        NMOLC        AS  OP EN  MO LC     AS  OP
                OPENM       OL CA        SO  PE NM  OL CA     SOP EN
                OP EN      MO   LC       AS  OP ENMOL  CASO   PENMOL
                OP  EN     MO   LC       AS  OP EN     MO     LC ASO
               OP   E  NMOL  C  AS       OP  EN MO     LC     AS  OP
               OP  E   NMO   LC AS        OPEN  MO     LCASOP EN   M
               O  PEN   MO  LCA  SO
            OPE   NMO   L   CAS    OP
        OPENMOL  CASOP     ENMOL   CASOPE
     OPENMOLCA   SOPENMOLCASOPEN   MOLCASOPE
    OPENMOLCAS   OP           EN   MOL    CAS
    OPENMOLCAS       OP  ENM        O     LCA
    OPENMOLCAS    OPEN  MOLCASO     P  E  NMO
    OPENMOLCAS     OP               E  N  MOL
    OPENMOLCA   SO           PENM   O  L  CAS    OPEN    MO    LCAS
    OPENMOLCA   SOP           ENM   O  L  CAS   OP  EN  MOLC  AS   O
    OPENMOLCA   SOPE           NM      O  LCA   S      OP  EN MO
    OPENMOLC                AS         O  PEN   M      OL  CA  SOPE
    OPENMO        LCASOPE  NMOL        C  ASO   P      ENMOLC     AS
    OPE     NMO      LCA  SO     P     E   NM   OL  CA SO  PE N   MO
          OPENMOLCA            SOPE   NMO        LCAS  O    P  ENMO
     OPENMOLCASOPENMOLCASOPENMOLCASOPENMOLCA
        OPENMOLCASOPENMOLCASOPENMOLCASOPE
            OPENMOLCASOPENMOLCASOPENM
               OPENMOLCASOPENMOLCA        version: 90637a455-dirty
                   OPENMOLCASO
                       OPE                tag:

 OpenMolcas is free software; you can redistribute it and/or modify it
 under the terms of the GNU Lesser General Public License version 2.1.
 OpenMolcas is distributed in the hope that it will be useful, but it
 is provided "as is" and without any express or implied warranties.
 For more details see the full text of the license in the file
 LICENSE or in <http://www.gnu.org/licenses/>.

                 Copyright (C) The OpenMolcas Authors
           For the author list and the recommended citation,
                   consult the file CONTRIBUTORS.md

           *************************************************
           * pymolcas version py2.28                       *
           *   build c4a6d18ded8cb6cad61d2372a9abd97c      *
           *   (after the EMIL interpreter by V. Veryazov) *
           *************************************************

configuration info
------------------
C Compiler ID: IntelLLVM
C flags: -std=gnu99 -qopenmp
Fortran Compiler ID: IntelLLVM
Fortran flags: -standard-semantics -fltconsistency -fpp -i8 -heap-arrays -qopenmp
Definitions: _MOLCAS_;_I8_;_LINUX_
Parallel: OFF (GA=OFF)


   -----------------------------------------------------------------------------------------
  |
  |              Project: H14_0.72
  |       Submitted from: /home/grierjones/DDCASPT2/hydrogen_comps/bigrun/H14_chain/H14_0.72
  |         Scratch area: /tmp/H14_0.72
  |      Save outputs to: /home/grierjones/DDCASPT2/hydrogen_comps/bigrun/H14_chain/H14_0.72
  |               Molcas: /home/grierjones/Test/build
  |
  | Scratch area is empty
  |
  |       MOLCAS_DRIVER = /usr/local/pymolcas
  | MOLCAS_KEEP_WORKDIR = NO
  |  MOLCAS_NEW_WORKDIR = YES
  |       MOLCAS_NPROCS = 1
  |        MOLCAS_PRINT = NORMAL
  |       MOLCAS_SOURCE = /home/grierjones/Test
  |    MOLCAS_STRUCTURE = 0
  |      MOLCAS_THREADS = 12
  |
   -----------------------------------------------------------------------------------------

++ ---------   Input file   ---------

&GATEWAY
coord=H14_0.72.xyz
Basis = ANO-RCC-VDZP
Group = nosymm
End of Input

&SEWARD
End of Input

&SCF

>>> COPY $WorkDir/H14_0.72.scf.h5 $CurrDir/

&RASSCF
Title= RASSCF
NACTEL
14 0 0
Inactive
0
RAS2
14
Symmetry
1
Spin
1
orblisting
all

>>> COPY $WorkDir/H14_0.72.rasscf.h5 $CurrDir/

>>> COPY $WorkDir/GMJ_Fock_MO.csv $CurrDir/H14_0.72.GMJ_Fock_MO.csv

&MOTRA
Frozen=0
LUMORB

>>> COPY $WorkDir/GMJ_one_int_indx.csv $CurrDir/H14_0.72.GMJ_one_int_indx.csv

>>> COPY $WorkDir/GMJ_one_int.csv $CurrDir/H14_0.72.GMJ_one_int.csv

>>> COPY $WorkDir/GMJ_two_int_indx.csv $CurrDir/H14_0.72.GMJ_two_int_indx.csv

>>> COPY $WorkDir/GMJ_two_int.csv $CurrDir/H14_0.72.GMJ_two_int.csv

&CASPT2
Frozen
0

MAXITER
50

>>> FOREACH k IN (1)

  >>> FOREACH i IN (B,E,F,G,H)

    >>> FOREACH j IN (P,M)

      >>> IF (-FILE GMJ_e2_${i}_${j}_${k}_.csv)

        >>> COPY $WorkDir/GMJ_RHS_${i}_${j}_${k}_.csv $CurrDir/GMJ_RHS_${i}_${j}_${k}_.csv

        >>> COPY $WorkDir/GMJ_IVECW_${i}_${j}_${k}_.csv $CurrDir/GMJ_IVECW_${i}_${j}_${k}_.csv

        >>> COPY $WorkDir/GMJ_IVECX_${i}_${j}_${k}_.csv $CurrDir/GMJ_IVECX_${i}_${j}_${k}_.csv

        >>> COPY $WorkDir/GMJ_IVECC2_${i}_${j}_${k}_.csv $CurrDir/GMJ_IVECC2_${i}_${j}_${k}_.csv

        >>> COPY $WorkDir/GMJ_e2_${i}_${j}_${k}_.csv $CurrDir/GMJ_e2_${i}_${j}_${k}_.csv

      >>> END IF

    >>> END FOREACH

  >>> END FOREACH

>>> END FOREACH

>>> FOREACH j IN (1)

  >>> FOREACH i IN (A,C,D)

    >>> IF (-FILE GMJ_e2_${i}_${j}_.csv)

      >>> COPY $WorkDir/GMJ_RHS_${i}_${j}_.csv $CurrDir/GMJ_RHS_${i}_${j}_.csv

      >>> COPY $WorkDir/GMJ_IVECW_${i}_${j}_.csv $CurrDir/GMJ_IVECW_${i}_${j}_.csv

      >>> COPY $WorkDir/GMJ_IVECX_${i}_${j}_.csv $CurrDir/GMJ_IVECX_${i}_${j}_.csv

      >>> COPY $WorkDir/GMJ_IVECC2_${i}_${j}_.csv $CurrDir/GMJ_IVECC2_${i}_${j}_.csv

      >>> COPY $WorkDir/GMJ_e2_${i}_${j}_.csv $CurrDir/GMJ_e2_${i}_${j}_.csv

    >>> END IF

  >>> END FOREACH

>>> END FOREACH

-- ----------------------------------

--- Start Module: gateway at Tue Mar  4 03:56:58 2025 ---
 
()()()()()()()()()()()()()()()()()()()()()()()()()()()()()()()()()()()()()()()()()()()()()()()()()()

                                              &GATEWAY

                                   only a single process is used
                      available to each process: 2.0 GB of memory, 12 threads
()()()()()()()()()()()()()()()()()()()()()()()()()()()()()()()()()()()()()()()()()()()()()()()()()()
 
 
++    Symmetry information:
      ---------------------
 
                    Character Table for C1 
 
                             E  
                    a        1  x, y, xy, Rz, z, xz, Ry, yz, Rx, I
--
 
 
++    Basis set information:
      ----------------------
 
 
      Basis set label: H.ANO-RCC...2S1P.
 
      Electronic valence basis set:
      ------------------
      Associated Effective Charge   1.000000 au
      Associated Actual Charge      1.000000 au
      Nuclear Model: Point charge
 
      Shell  nPrim  nBasis  Cartesian Spherical Contaminant
         s       8       2        X                  
         p       4       1        X                  
--
 
 
++    Molecular structure info:
      -------------------------
 
                    ************************************************ 
                    **** Cartesian Coordinates / Bohr, Angstrom **** 
                    ************************************************ 
 
     Center  Label                x              y              z                     x              y              z
        1      H1               0.000000       0.000000       0.000000              0.000000       0.000000       0.000000
        2      H2               0.000000       0.000000       1.362893              0.000000       0.000000       0.721212
        3      H3               0.000000       0.000000       2.725786              0.000000       0.000000       1.442424
        4      H4               0.000000       0.000000       4.088679              0.000000       0.000000       2.163636
        5      H5               0.000000       0.000000       5.451573              0.000000       0.000000       2.884848
        6      H6               0.000000       0.000000       6.814468              0.000000       0.000000       3.606061
        7      H7               0.000000       0.000000       8.177361              0.000000       0.000000       4.327273
        8      H8               0.000000       0.000000       9.540254              0.000000       0.000000       5.048485
        9      H9               0.000000       0.000000      10.903147              0.000000       0.000000       5.769697
       10      H10              0.000000       0.000000      12.266040              0.000000       0.000000       6.490909
       11      H11              0.000000       0.000000      13.628933              0.000000       0.000000       7.212121
       12      H12              0.000000       0.000000      14.991827              0.000000       0.000000       7.933333
       13      H13              0.000000       0.000000      16.354720              0.000000       0.000000       8.654545
       14      H14              0.000000       0.000000      17.717615              0.000000       0.000000       9.375758
 
                    *************************************** 
                    *    InterNuclear Distances / Bohr    * 
                    *************************************** 
 
               1 H1            2 H2            3 H3            4 H4            5 H5            6 H6    
    1 H1       0.000000
    2 H2       1.362893        0.000000
    3 H3       2.725786        1.362893        0.000000
    4 H4       4.088679        2.725786        1.362893        0.000000
    5 H5       5.451573        4.088679        2.725786        1.362893        0.000000
    6 H6       6.814468        5.451575        4.088681        2.725788        1.362895        0.000000
    7 H7       8.177361        6.814468        5.451575        4.088681        2.725788        1.362893
    8 H8       9.540254        8.177361        6.814468        5.451575        4.088681        2.725786
    9 H9      10.903147        9.540254        8.177361        6.814468        5.451575        4.088679
   10 H10     12.266040       10.903147        9.540254        8.177361        6.814468        5.451573
   11 H11     13.628933       12.266040       10.903147        9.540254        8.177361        6.814466
   12 H12     14.991827       13.628933       12.266040       10.903147        9.540254        8.177359
   13 H13     16.354720       14.991827       13.628933       12.266040       10.903147        9.540252
   14 H14     17.717615       16.354722       14.991829       13.628935       12.266042       10.903147
 
               7 H7            8 H8            9 H9           10 H10          11 H11          12 H12   
    7 H7       0.000000
    8 H8       1.362893        0.000000
    9 H9       2.725786        1.362893        0.000000
   10 H10      4.088679        2.725786        1.362893        0.000000
   11 H11      5.451573        4.088679        2.725786        1.362893        0.000000
   12 H12      6.814466        5.451573        4.088679        2.725786        1.362893        0.000000
   13 H13      8.177359        6.814466        5.451573        4.088679        2.725786        1.362893
   14 H14      9.540254        8.177361        6.814468        5.451575        4.088681        2.725788
 
              13 H13          14 H14   
   13 H13      0.000000
   14 H14      1.362895        0.000000
 
                    ******************************************* 
                    *    InterNuclear Distances / Angstrom    * 
                    ******************************************* 
 
               1 H1            2 H2            3 H3            4 H4            5 H5            6 H6    
    1 H1       0.000000
    2 H2       0.721212        0.000000
    3 H3       1.442424        0.721212        0.000000
    4 H4       2.163636        1.442424        0.721212        0.000000
    5 H5       2.884848        2.163636        1.442424        0.721212        0.000000
    6 H6       3.606061        2.884849        2.163637        1.442425        0.721213        0.000000
    7 H7       4.327273        3.606061        2.884849        2.163637        1.442425        0.721212
    8 H8       5.048485        4.327273        3.606061        2.884849        2.163637        1.442424
    9 H9       5.769697        5.048485        4.327273        3.606061        2.884849        2.163636
   10 H10      6.490909        5.769697        5.048485        4.327273        3.606061        2.884848
   11 H11      7.212121        6.490909        5.769697        5.048485        4.327273        3.606060
   12 H12      7.933333        7.212121        6.490909        5.769697        5.048485        4.327272
   13 H13      8.654545        7.933333        7.212121        6.490909        5.769697        5.048484
   14 H14      9.375758        8.654546        7.933334        7.212122        6.490910        5.769697
 
               7 H7            8 H8            9 H9           10 H10          11 H11          12 H12   
    7 H7       0.000000
    8 H8       0.721212        0.000000
    9 H9       1.442424        0.721212        0.000000
   10 H10      2.163636        1.442424        0.721212        0.000000
   11 H11      2.884848        2.163636        1.442424        0.721212        0.000000
   12 H12      3.606060        2.884848        2.163636        1.442424        0.721212        0.000000
   13 H13      4.327272        3.606060        2.884848        2.163636        1.442424        0.721212
   14 H14      5.048485        4.327273        3.606061        2.884849        2.163637        1.442425
 
              13 H13          14 H14   
   13 H13      0.000000
   14 H14      0.721213        0.000000
 
                    ************************************** 
                    *    Valence Bond Angles / Degree    * 
                    ************************************** 
                          Atom centers                 Phi
                      2 H2       1 H1       3 H3         0.00
                      1 H1       2 H2       3 H3       180.00
                      1 H1       2 H2       4 H4       180.00
                      3 H3       2 H2       4 H4         0.00
                      1 H1       3 H3       2 H2         0.00
                      1 H1       3 H3       4 H4       180.00
                      1 H1       3 H3       5 H5       180.00
                      2 H2       3 H3       4 H4       180.00
                      2 H2       3 H3       5 H5       180.00
                      4 H4       3 H3       5 H5         0.00
                      2 H2       4 H4       3 H3         0.00
                      2 H2       4 H4       5 H5       180.00
                      2 H2       4 H4       6 H6       180.00
                      3 H3       4 H4       5 H5       180.00
                      3 H3       4 H4       6 H6       180.00
                      5 H5       4 H4       6 H6         0.00
                      3 H3       5 H5       4 H4         0.00
                      3 H3       5 H5       6 H6       180.00
                      3 H3       5 H5       7 H7       180.00
                      4 H4       5 H5       6 H6       180.00
                      4 H4       5 H5       7 H7       180.00
                      6 H6       5 H5       7 H7         0.00
                      4 H4       6 H6       5 H5         0.00
                      4 H4       6 H6       7 H7       180.00
                      4 H4       6 H6       8 H8       180.00
                      5 H5       6 H6       7 H7       180.00
                      5 H5       6 H6       8 H8       180.00
                      7 H7       6 H6       8 H8         0.00
                      5 H5       7 H7       6 H6         0.00
                      5 H5       7 H7       8 H8       180.00
                      5 H5       7 H7       9 H9       180.00
                      6 H6       7 H7       8 H8       180.00
                      6 H6       7 H7       9 H9       180.00
                      8 H8       7 H7       9 H9         0.00
                      6 H6       8 H8       7 H7         0.00
                      6 H6       8 H8       9 H9       180.00
                      6 H6       8 H8      10 H10      180.00
                      7 H7       8 H8       9 H9       180.00
                      7 H7       8 H8      10 H10      180.00
                      9 H9       8 H8      10 H10        0.00
                      7 H7       9 H9       8 H8         0.00
                      7 H7       9 H9      10 H10      180.00
                      7 H7       9 H9      11 H11      180.00
                      8 H8       9 H9      10 H10      180.00
                      8 H8       9 H9      11 H11      180.00
                     10 H10      9 H9      11 H11        0.00
                      8 H8      10 H10      9 H9         0.00
                      8 H8      10 H10     11 H11      180.00
                      8 H8      10 H10     12 H12      180.00
                      9 H9      10 H10     11 H11      180.00
                      9 H9      10 H10     12 H12      180.00
                     11 H11     10 H10     12 H12        0.00
                      9 H9      11 H11     10 H10        0.00
                      9 H9      11 H11     12 H12      180.00
                      9 H9      11 H11     13 H13      180.00
                     10 H10     11 H11     12 H12      180.00
                     10 H10     11 H11     13 H13      180.00
                     12 H12     11 H11     13 H13        0.00
                     10 H10     12 H12     11 H11        0.00
                     10 H10     12 H12     13 H13      180.00
                     10 H10     12 H12     14 H14      180.00
                     11 H11     12 H12     13 H13      180.00
                     11 H11     12 H12     14 H14      180.00
                     13 H13     12 H12     14 H14        0.00
                     11 H11     13 H13     12 H12        0.00
                     11 H11     13 H13     14 H14      180.00
                     12 H12     13 H13     14 H14      180.00
                     12 H12     14 H14     13 H13        0.00
--
 
 
            Nuclear Potential Energy             23.12864100 au
 
--- Stop Module: gateway at Tue Mar  4 03:56:59 2025 /rc=_RC_ALL_IS_WELL_ ---
*** files: xmldump
    saved to directory /home/grierjones/DDCASPT2/hydrogen_comps/bigrun/H14_chain/H14_0.72

--- Start Module: seward at Tue Mar  4 03:56:59 2025 ---
 
()()()()()()()()()()()()()()()()()()()()()()()()()()()()()()()()()()()()()()()()()()()()()()()()()()

                                              &SEWARD

                                   only a single process is used
                      available to each process: 2.0 GB of memory, 12 threads
()()()()()()()()()()()()()()()()()()()()()()()()()()()()()()()()()()()()()()()()()()()()()()()()()()
 
               SEWARD will generate:
                  Multipole Moment integrals up to order  2
                  Kinetic Energy integrals
                  Nuclear Attraction integrals (point charge)
                  One-Electron Hamiltonian integrals
                  Velocity integrals
                  Relativistic Douglas-Kroll-Hess integrals:
                    - Parametrization         : EXP
                    - DKH order of Hamiltonian: 2
                    - DKH order of Properties : 0
                         - multipole moment operators
                         - electric potential operators
                         - contact operators
                  Atomic mean-field integrals
                  Two-Electron Repulsion integrals
 
                   Integrals are discarded if absolute value <: 0.10E-13
                   Integral cutoff threshold is set to       <: 0.10E-15
 
            Nuclear Potential Energy             23.12864100 au
 
 
      Basis set specifications :
      Symmetry species         a  
      Basis functions           70
 
 
  Input file to MOLDEN was generated!
 
forrtl: warning (525): IEEE_DIVIDE_BY_ZERO is signaling
forrtl: warning (526): IEEE_INVALID is signaling
forrtl: warning (528): IEEE_UNDERFLOW is signaling
--- Stop Module: seward at Tue Mar  4 03:57:01 2025 /rc=_RC_ALL_IS_WELL_ ---
*** files: H14_0.72.GssOrb H14_0.72.guessorb.h5 H14_0.72.guessorb.molden xmldump
    saved to directory /home/grierjones/DDCASPT2/hydrogen_comps/bigrun/H14_chain/H14_0.72
--- Module seward spent 2 seconds ---

*** symbolic link created: INPORB -> H14_0.72.GssOrb
--- Start Module: scf at Tue Mar  4 03:57:01 2025 ---
 
()()()()()()()()()()()()()()()()()()()()()()()()()()()()()()()()()()()()()()()()()()()()()()()()()()

                                                &SCF

                                   only a single process is used
                      available to each process: 2.0 GB of memory, 12 threads
()()()()()()()()()()()()()()()()()()()()()()()()()()()()()()()()()()()()()()()()()()()()()()()()()()
 
++    Input section:
      --------------
 
      Header of the integral files:
      
       Integrals generated by seward 4.2.0  , Tue Mar  4 03:56:59 2025
 
 
      Cartesian coordinates in Angstrom:
      -----------------------------------------------------
      No.  Label        X            Y            Z        
      -----------------------------------------------------
       1   H1         0.00000000   0.00000000   0.00000000
       2   H2         0.00000000   0.00000000   0.72121200
       3   H3         0.00000000   0.00000000   1.44242400
       4   H4         0.00000000   0.00000000   2.16363600
       5   H5         0.00000000   0.00000000   2.88484800
       6   H6         0.00000000   0.00000000   3.60606100
       7   H7         0.00000000   0.00000000   4.32727300
       8   H8         0.00000000   0.00000000   5.04848500
       9   H9         0.00000000   0.00000000   5.76969700
      10   H10        0.00000000   0.00000000   6.49090900
      11   H11        0.00000000   0.00000000   7.21212100
      12   H12        0.00000000   0.00000000   7.93333300
      13   H13        0.00000000   0.00000000   8.65454500
      14   H14        0.00000000   0.00000000   9.37575800
      -----------------------------------------------------
      Nuclear repulsion energy =   23.12864100
--
 
++    Orbital specifications:
      -----------------------
 
      Symmetry species               1
                                     a
      Frozen orbitals                0
      Occupied orbitals              7
      Secondary orbitals            63
      Deleted orbitals               0
      Total number of orbitals      70
      Number of basis functions     70
--
 
      Molecular charge                           0.000
 
++    Optimization specifications:
      ----------------------------
 
      SCF Algorithm: Conventional
      Minimized density differences are used
      Number of density matrices in core                5
      Maximum number of NDDO SCF iterations           400
      Maximum number of HF SCF iterations             400
      Threshold for SCF energy change            0.10E-08
      Threshold for density matrix               0.10E-03
      Threshold for Fock matrix                  0.15E-03
      Threshold for linear dependence            0.10E-08
      Threshold at which DIIS is turned on       0.15E+00
      Threshold at which QNR/C2DIIS is turned on 0.75E-01
      Threshold for Norm(delta) (QNR/C2DIIS)     0.20E-04
      DIIS extrapolation of the SCF procedure
      All orbitals punched on: SCFORB
--
 
      Input vectors read from INPORB
      Orbital file label: *Guess orbitals
 
 
++ Convergence information
                                   SCF        iterations: Energy and convergence statistics
 
Iter     Tot. SCF        One-elec.       Two-elec.     Energy      Max Dij or  Max Fij      DNorm      TNorm      AccCon     Time
         Energy          Energy          Energy        Change      Delta Norm                                                in Sec.
   1    -6.787640347   -50.122609991    20.206328644   0.00E+00    0.34E+00*   0.23E+00*    0.64E+01   0.34E+02   None         0.
   2    -7.129644586   -51.331946180    21.073660593  -0.34E+00*   0.62E-01*   0.33E-01*    0.38E+01   0.35E+02   EDIIS        0.
   3    -7.143098213   -51.278619938    21.006880724  -0.13E-01*   0.18E-01*   0.81E-02*    0.15E+01   0.35E+02   EDIIS        0.
   4    -7.143868337   -51.293019762    21.020510425  -0.77E-03*   0.57E-02*   0.20E-02*    0.27E+00   0.35E+02   c2DIIS       0.
   5    -7.143940068   -51.290959831    21.018378763  -0.72E-04*   0.15E-02*   0.53E-03*    0.62E-01   0.35E+02   QNRc2DIIS    0.
   6    -7.143944116   -51.292240488    21.019655372  -0.40E-05*   0.95E-03*   0.21E-03*    0.14E-01   0.35E+02   QNRc2DIIS    0.
   7    -7.143945018   -51.292238802    21.019652784  -0.90E-06*   0.14E-03*   0.45E-04     0.33E-02   0.35E+02   QNRc2DIIS    0.
   8    -7.143945039   -51.292167588    21.019581548  -0.22E-07*   0.23E-04*   0.39E-05     0.42E-03   0.35E+02   QNRc2DIIS    0.
   9    -7.143945040   -51.292177410    21.019591370  -0.47E-09    0.18E-05    0.45E-06     0.57E-04   0.35E+02   QNRc2DIIS    0.
 
       Convergence after  9 Macro Iterations
--
 
 *****************************************************************************************************************************
 *                                                                                                                           *
 *                                             SCF/KS-DFT Program, Final results                                             *
 *                                                                                                                           *
 *                                                                                                                           *
 *                                                                                                                           *
 *                                                       Final Results                                                       *
 *                                                                                                                           *
 *****************************************************************************************************************************
 
::    Total SCF energy                                 -7.1439450398
      One-electron energy                             -51.2921774099
      Two-electron energy                              21.0195913696
      Nuclear repulsion energy                         23.1286410005
      Kinetic energy (interpolated)                     9.5197804331
      Virial theorem                                    0.7504317027
      Total spin, S(S+1)                                0.0000000000
      Total spin, S                                     0.0000000000
      Max non-diagonal density matrix element           0.0000025348
      Max non-diagonal Fock matrix element              0.0000000935
 
 
      All orbitals with orbital energies smaller than  E(LUMO)+0.5 are printed
 
++    Molecular orbitals:
      -------------------
 
      Title: SCF orbitals

      Molecular orbitals for symmetry species 1: a  
 
          Orbital            1         2         3         4         5         6         7         8         9        10    
          Energy           -0.9477   -0.9019   -0.8270   -0.7202   -0.5826   -0.4162   -0.2309    0.1264    0.1403    0.2106
          Occ. No.          2.0000    2.0000    2.0000    2.0000    2.0000    2.0000    2.0000    0.0000    0.0000    0.0000
 
        1 H1     1s         0.0452   -0.1415    0.2461   -0.3008    0.3195   -0.3669    0.4501   -1.1394    0.1566   -1.4365
        2 H1     2s         0.0186   -0.0469    0.0676   -0.0516    0.0191   -0.0300    0.1261   -0.8427    0.2263   -1.2076
        3 H1     2px       -0.0000    0.0000   -0.0000    0.0000   -0.0000    0.0000   -0.0000    0.0000   -0.0000   -0.0000
        4 H1     2py        0.0000   -0.0000    0.0000    0.0000   -0.0000    0.0000   -0.0000    0.0000    0.0000    0.0000
        5 H1     2pz        0.0024   -0.0166    0.0296   -0.0308    0.0226   -0.0121    0.0066   -0.0596    0.0082   -0.1221
        6 H2     1s         0.0285   -0.0703    0.0822   -0.1090    0.1897   -0.2418    0.1019    1.2758   -0.4300    2.0087
        7 H2     2s        -0.0287    0.0776   -0.1437    0.1613   -0.0844   -0.0279    0.0357    0.7251   -0.1599    1.2464
        8 H2     2px       -0.0000    0.0000   -0.0000    0.0000   -0.0000    0.0000    0.0000   -0.0000   -0.0000   -0.0000
        9 H2     2py        0.0000   -0.0000    0.0000   -0.0000    0.0000   -0.0000    0.0000    0.0000   -0.0000    0.0000
       10 H2     2pz       -0.0081   -0.0125    0.0240   -0.0110   -0.0140    0.0356   -0.0364   -0.0471   -0.0052   -0.1540
       11 H3     1s         0.1308   -0.2457    0.2747   -0.1921   -0.0064    0.2919   -0.4766   -0.2826    0.1904   -1.3018
       12 H3     2s        -0.0027    0.0195   -0.0297    0.0149   -0.0011    0.0397   -0.1062   -0.4082    0.2569   -0.9815
       13 H3     2px       -0.0000   -0.0000    0.0000   -0.0000    0.0000   -0.0000    0.0000    0.0000   -0.0000   -0.0000
       14 H3     2py       -0.0000   -0.0000    0.0000    0.0000   -0.0000    0.0000   -0.0000    0.0000   -0.0000    0.0000
       15 H3     2pz       -0.0128   -0.0137    0.0162    0.0088   -0.0308    0.0322   -0.0117   -0.0660   -0.0181   -0.1460
       16 H4     1s         0.1291   -0.2232    0.1558    0.0161   -0.2108    0.3683   -0.3200    0.2076   -0.0601    0.4860
       17 H4     2s        -0.0423    0.0607   -0.0504   -0.0087    0.0441    0.0354   -0.1250    0.2236    0.0679    0.4834
       18 H4     2px        0.0000   -0.0000    0.0000   -0.0000    0.0000    0.0000   -0.0000    0.0000   -0.0000    0.0000
       19 H4     2py        0.0000   -0.0000    0.0000   -0.0000   -0.0000    0.0000    0.0000    0.0000    0.0000    0.0000
       20 H4     2pz       -0.0159   -0.0150    0.0056    0.0184   -0.0143   -0.0165    0.0410   -0.0700   -0.0278   -0.1220
       21 H5     1s         0.2106   -0.1922   -0.0223    0.1926   -0.1882   -0.1135    0.5363   -0.7968   -0.0220   -0.3494
       22 H5     2s        -0.0213    0.0647   -0.0311   -0.0671    0.0735   -0.0545    0.1597   -0.4874    0.1612   -0.2322
       23 H5     2px        0.0000   -0.0000   -0.0000    0.0000    0.0000    0.0000   -0.0000    0.0000   -0.0000    0.0000
       24 H5     2py        0.0000   -0.0000    0.0000    0.0000   -0.0000   -0.0000   -0.0000    0.0000    0.0000    0.0000
       25 H5     2pz       -0.0119   -0.0221   -0.0000    0.0108    0.0155   -0.0370    0.0222   -0.0137   -0.0296   -0.0713
       26 H6     1s         0.2061   -0.1945   -0.0824    0.2628   -0.0939   -0.2945    0.3753    0.6851   -0.1787    0.7180
       27 H6     2s        -0.0482    0.0051    0.0651   -0.0451   -0.0494    0.0072    0.1111    0.3481    0.0675    0.5355
       28 H6     2px        0.0000   -0.0000    0.0000   -0.0000   -0.0000    0.0000    0.0000    0.0000   -0.0000    0.0000
       29 H6     2py       -0.0000   -0.0000    0.0000   -0.0000    0.0000    0.0000   -0.0000    0.0000    0.0000    0.0000
       30 H6     2pz       -0.0100   -0.0249   -0.0018   -0.0122    0.0358   -0.0072   -0.0374   -0.0148   -0.0117   -0.0749
       31 H7     1s         0.2389    0.0054   -0.2334    0.0174    0.2728   -0.1405   -0.4640    0.2006    0.0619   -0.3337
       32 H7     2s        -0.0388    0.0525    0.0574   -0.0823   -0.0176    0.0198   -0.1335    0.0072    0.1975   -0.0499
       33 H7     2px       -0.0000    0.0000   -0.0000    0.0000    0.0000    0.0000    0.0000    0.0000    0.0000    0.0000
       34 H7     2py        0.0000   -0.0000    0.0000    0.0000   -0.0000   -0.0000   -0.0000    0.0000    0.0000    0.0000
       35 H7     2pz       -0.0018   -0.0286   -0.0024   -0.0261    0.0193    0.0295   -0.0314   -0.0577   -0.0017   -0.0318
       36 H8     1s         0.2389   -0.0054   -0.2334   -0.0174    0.2728    0.1405   -0.4640   -0.2006    0.0619   -0.3337
       37 H8     2s        -0.0388   -0.0525    0.0574    0.0823   -0.0176   -0.0198   -0.1335   -0.0072    0.1975   -0.0499
       38 H8     2px        0.0000    0.0000   -0.0000   -0.0000   -0.0000    0.0000   -0.0000    0.0000   -0.0000    0.0000
       39 H8     2py       -0.0000    0.0000    0.0000    0.0000    0.0000   -0.0000   -0.0000   -0.0000    0.0000    0.0000
       40 H8     2pz        0.0018   -0.0286    0.0024   -0.0261   -0.0193    0.0295    0.0314   -0.0577    0.0017    0.0318
       41 H9     1s         0.2061    0.1945   -0.0824   -0.2628   -0.0939    0.2945    0.3753   -0.6851   -0.1787    0.7180
       42 H9     2s        -0.0482   -0.0051    0.0651    0.0451   -0.0494   -0.0072    0.1111   -0.3481    0.0675    0.5355
       43 H9     2px       -0.0000   -0.0000    0.0000   -0.0000    0.0000   -0.0000    0.0000    0.0000    0.0000    0.0000
       44 H9     2py       -0.0000   -0.0000   -0.0000    0.0000    0.0000   -0.0000   -0.0000    0.0000    0.0000   -0.0000
       45 H9     2pz        0.0100   -0.0249    0.0018   -0.0122   -0.0358   -0.0072    0.0374   -0.0148    0.0117    0.0749
       46 H10    1s         0.2106    0.1922   -0.0223   -0.1926   -0.1882    0.1135    0.5363    0.7968   -0.0220   -0.3494
       47 H10    2s        -0.0213   -0.0647   -0.0311    0.0671    0.0735    0.0545    0.1597    0.4874    0.1612   -0.2322
       48 H10    2px        0.0000    0.0000    0.0000    0.0000   -0.0000    0.0000   -0.0000    0.0000    0.0000    0.0000
       49 H10    2py        0.0000    0.0000    0.0000    0.0000   -0.0000   -0.0000   -0.0000    0.0000   -0.0000    0.0000
       50 H10    2pz        0.0119   -0.0221    0.0000    0.0108   -0.0155   -0.0370   -0.0222   -0.0137    0.0296    0.0713
       51 H11    1s         0.1291    0.2232    0.1558   -0.0161   -0.2108   -0.3683   -0.3200   -0.2076   -0.0601    0.4860
       52 H11    2s        -0.0423   -0.0607   -0.0504    0.0087    0.0441   -0.0354   -0.1250   -0.2236    0.0679    0.4834
       53 H11    2px        0.0000   -0.0000   -0.0000    0.0000   -0.0000    0.0000    0.0000    0.0000   -0.0000    0.0000
       54 H11    2py       -0.0000   -0.0000    0.0000    0.0000    0.0000   -0.0000   -0.0000   -0.0000   -0.0000   -0.0000
       55 H11    2pz        0.0159   -0.0150   -0.0056    0.0184    0.0143   -0.0165   -0.0410   -0.0700    0.0278    0.1220
       56 H12    1s         0.1308    0.2457    0.2747    0.1921   -0.0064   -0.2919   -0.4766    0.2826    0.1904   -1.3018
       57 H12    2s        -0.0027   -0.0195   -0.0297   -0.0149   -0.0011   -0.0397   -0.1062    0.4082    0.2569   -0.9815
       58 H12    2px       -0.0000    0.0000   -0.0000   -0.0000   -0.0000    0.0000    0.0000    0.0000    0.0000    0.0000
       59 H12    2py       -0.0000    0.0000   -0.0000   -0.0000   -0.0000   -0.0000   -0.0000   -0.0000    0.0000    0.0000
       60 H12    2pz        0.0128   -0.0137   -0.0162    0.0088    0.0308    0.0322    0.0117   -0.0660    0.0181    0.1460
       61 H13    1s         0.0285    0.0703    0.0822    0.1090    0.1897    0.2418    0.1019   -1.2758   -0.4300    2.0087
       62 H13    2s        -0.0287   -0.0776   -0.1437   -0.1613   -0.0844    0.0279    0.0357   -0.7251   -0.1599    1.2464
       63 H13    2px        0.0000   -0.0000    0.0000   -0.0000    0.0000    0.0000   -0.0000   -0.0000    0.0000   -0.0000
       64 H13    2py       -0.0000   -0.0000   -0.0000   -0.0000   -0.0000    0.0000    0.0000    0.0000   -0.0000   -0.0000
       65 H13    2pz        0.0081   -0.0125   -0.0240   -0.0110    0.0140    0.0356    0.0364   -0.0471    0.0052    0.1540
       66 H14    1s         0.0452    0.1415    0.2461    0.3008    0.3195    0.3669    0.4501    1.1394    0.1566   -1.4365
       67 H14    2s         0.0186    0.0469    0.0676    0.0516    0.0191    0.0300    0.1261    0.8427    0.2263   -1.2076
       68 H14    2px       -0.0000   -0.0000   -0.0000    0.0000   -0.0000   -0.0000    0.0000    0.0000   -0.0000    0.0000
       69 H14    2py       -0.0000    0.0000   -0.0000    0.0000    0.0000   -0.0000   -0.0000   -0.0000    0.0000    0.0000
       70 H14    2pz       -0.0024   -0.0166   -0.0296   -0.0308   -0.0226   -0.0121   -0.0066   -0.0596   -0.0082    0.1221
 
          Orbital           11        12        13        14        15        16        17        18        19        20    
          Energy            0.2200    0.3468    0.3911    0.4618    0.4618    0.5251    0.5251    0.5623    0.6109    0.6213
          Occ. No.          0.0000    0.0000    0.0000    0.0000    0.0000    0.0000    0.0000    0.0000    0.0000    0.0000
 
        1 H1     1s        -0.6365   -1.6037    1.7067    0.0000   -0.0000   -0.0000   -0.0000   -1.6011   -2.1485   -0.0000
        2 H1     2s        -0.2393   -1.4470    1.0270    0.0000   -0.0000   -0.0000   -0.0000   -1.5061   -1.3366   -0.0000
        3 H1     2px        0.0000   -0.0000    0.0000    0.0323    0.0406   -0.1142    0.0093   -0.0000   -0.0000    0.0728
        4 H1     2py        0.0000    0.0000   -0.0000    0.0406   -0.0323   -0.0093   -0.1142    0.0000    0.0000    0.1736
        5 H1     2pz       -0.0099   -0.1877    0.0407    0.0000   -0.0000   -0.0000   -0.0000   -0.2433   -0.0041    0.0000
        6 H2     1s         0.3492    2.6526   -2.2817   -0.0000   -0.0000    0.0000    0.0000    2.9225    3.9977    0.0000
        7 H2     2s         0.3831    1.8446   -1.7553   -0.0000   -0.0000    0.0000    0.0000    2.2428    3.0465    0.0000
        8 H2     2px        0.0000   -0.0000    0.0000    0.0505    0.0636   -0.1622    0.0131   -0.0000   -0.0000    0.0876
        9 H2     2py       -0.0000    0.0000   -0.0000    0.0636   -0.0505   -0.0131   -0.1622   -0.0000    0.0000    0.2090
       10 H2     2pz        0.0045   -0.2438   -0.0056    0.0000   -0.0000   -0.0000   -0.0000   -0.2764    0.0887    0.0000
       11 H3     1s         0.2889   -2.6011    0.6600    0.0000    0.0000   -0.0000    0.0000   -3.5106   -2.1170   -0.0000
       12 H3     2s         0.2669   -1.6879    0.3380    0.0000    0.0000   -0.0000    0.0000   -2.2498   -1.3256   -0.0000
       13 H3     2px        0.0000   -0.0000   -0.0000    0.0747    0.0939   -0.2090    0.0169    0.0000   -0.0000    0.0864
       14 H3     2py       -0.0000    0.0000   -0.0000    0.0939   -0.0747   -0.0169   -0.2090   -0.0000   -0.0000    0.2059
       15 H3     2pz       -0.0015   -0.1522   -0.0691    0.0000    0.0000    0.0000    0.0000   -0.0699    0.2087    0.0000
       16 H4     1s        -0.0005    1.5845   -0.1789   -0.0000   -0.0000    0.0000   -0.0000    3.4844    0.4169    0.0000
       17 H4     2s         0.2416    1.2660   -0.4191   -0.0000   -0.0000    0.0000   -0.0000    2.5022    0.3659    0.0000
       18 H4     2px        0.0000   -0.0000   -0.0000    0.0954    0.1200   -0.2174    0.0176    0.0000   -0.0000    0.0509
       19 H4     2py        0.0000    0.0000   -0.0000    0.1200   -0.0954   -0.0176   -0.2174   -0.0000   -0.0000    0.1214
       20 H4     2pz        0.0202   -0.0687   -0.1502    0.0000   -0.0000    0.0000   -0.0000    0.0320    0.2459    0.0000
       21 H5     1s        -0.5327    0.0698    0.4386    0.0000    0.0000   -0.0000    0.0000   -0.6061   -0.2029    0.0000
       22 H5     2s        -0.1189    0.0224    0.3230    0.0000    0.0000   -0.0000    0.0000   -0.4287   -0.5175   -0.0000
       23 H5     2px        0.0000    0.0000   -0.0000    0.1129    0.1420   -0.1903    0.0154    0.0000    0.0000   -0.0025
       24 H5     2py        0.0000    0.0000   -0.0000    0.1420   -0.1129   -0.0154   -0.1903   -0.0000   -0.0000   -0.0060
       25 H5     2pz        0.0983   -0.0027   -0.2194   -0.0000   -0.0000    0.0000   -0.0000    0.0972    0.1359    0.0000
       26 H6     1s         0.4327    0.3794   -0.8575   -0.0000    0.0000   -0.0000    0.0000   -1.1568   -0.0197   -0.0000
       27 H6     2s         0.3289    0.4768   -0.3829   -0.0000    0.0000   -0.0000    0.0000   -0.6977   -0.2273   -0.0000
       28 H6     2px        0.0000    0.0000   -0.0000    0.1253    0.1576   -0.1299    0.0105    0.0000    0.0000   -0.0551
       29 H6     2py        0.0000    0.0000   -0.0000    0.1576   -0.1253   -0.0105   -0.1299   -0.0000    0.0000   -0.1315
       30 H6     2pz        0.1378    0.0446   -0.1369   -0.0000    0.0000    0.0000   -0.0000    0.1333   -0.0860   -0.0000
       31 H7     1s         0.3674   -1.1629    0.8007    0.0000   -0.0000    0.0000   -0.0000    0.4104   -1.8732   -0.0000
       32 H7     2s         0.1958   -0.6627    0.6827    0.0000   -0.0000   -0.0000   -0.0000    0.0059   -1.3291   -0.0000
       33 H7     2px        0.0000    0.0000   -0.0000    0.1317    0.1656   -0.0458    0.0037    0.0000    0.0000   -0.0877
       34 H7     2py        0.0000    0.0000   -0.0000    0.1656   -0.1317   -0.0037   -0.0458   -0.0000    0.0000   -0.2091
       35 H7     2pz        0.1205    0.1439   -0.0403   -0.0000    0.0000   -0.0000   -0.0000    0.0942   -0.1685   -0.0000
       36 H8     1s        -0.3674    1.1629    0.8007   -0.0000    0.0000    0.0000    0.0000    0.4104    1.8732    0.0000
       37 H8     2s        -0.1958    0.6627    0.6827   -0.0000    0.0000    0.0000    0.0000    0.0059    1.3291    0.0000
       38 H8     2px        0.0000    0.0000    0.0000    0.1317    0.1656    0.0458   -0.0037    0.0000    0.0000   -0.0877
       39 H8     2py        0.0000    0.0000   -0.0000    0.1656   -0.1317    0.0037    0.0458   -0.0000    0.0000   -0.2091
       40 H8     2pz        0.1205    0.1439    0.0403    0.0000    0.0000   -0.0000    0.0000   -0.0942   -0.1685   -0.0000
       41 H9     1s        -0.4327   -0.3794   -0.8575   -0.0000    0.0000   -0.0000    0.0000   -1.1568    0.0197   -0.0000
       42 H9     2s        -0.3289   -0.4768   -0.3829   -0.0000    0.0000   -0.0000    0.0000   -0.6977    0.2273    0.0000
       43 H9     2px        0.0000   -0.0000    0.0000    0.1253    0.1576    0.1299   -0.0105   -0.0000    0.0000   -0.0551
       44 H9     2py        0.0000    0.0000   -0.0000    0.1576   -0.1253    0.0105    0.1299    0.0000    0.0000   -0.1315
       45 H9     2pz        0.1378    0.0446    0.1369   -0.0000    0.0000   -0.0000    0.0000   -0.1333   -0.0860   -0.0000
       46 H10    1s         0.5327   -0.0698    0.4386    0.0000   -0.0000   -0.0000    0.0000   -0.6061    0.2029    0.0000
       47 H10    2s         0.1189   -0.0224    0.3230    0.0000   -0.0000   -0.0000    0.0000   -0.4287    0.5175    0.0000
       48 H10    2px        0.0000   -0.0000    0.0000    0.1129    0.1420    0.1903   -0.0154   -0.0000   -0.0000   -0.0025
       49 H10    2py        0.0000    0.0000   -0.0000    0.1420   -0.1129    0.0154    0.1903    0.0000    0.0000   -0.0060
       50 H10    2pz        0.0983   -0.0027    0.2194   -0.0000   -0.0000   -0.0000    0.0000   -0.0972    0.1359    0.0000
       51 H11    1s         0.0005   -1.5845   -0.1789    0.0000   -0.0000    0.0000   -0.0000    3.4844   -0.4169   -0.0000
       52 H11    2s        -0.2416   -1.2660   -0.4191    0.0000   -0.0000    0.0000   -0.0000    2.5022   -0.3659   -0.0000
       53 H11    2px        0.0000   -0.0000    0.0000    0.0954    0.1200    0.2174   -0.0176   -0.0000   -0.0000    0.0509
       54 H11    2py        0.0000    0.0000   -0.0000    0.1200   -0.0954    0.0176    0.2174    0.0000   -0.0000    0.1214
       55 H11    2pz        0.0202   -0.0687    0.1502    0.0000   -0.0000    0.0000   -0.0000   -0.0320    0.2459    0.0000
       56 H12    1s        -0.2889    2.6011    0.6600   -0.0000    0.0000   -0.0000    0.0000   -3.5106    2.1170    0.0000
       57 H12    2s        -0.2669    1.6879    0.3380   -0.0000    0.0000   -0.0000    0.0000   -2.2497    1.3256    0.0000
       58 H12    2px        0.0000   -0.0000    0.0000    0.0747    0.0939    0.2090   -0.0169   -0.0000   -0.0000    0.0864
       59 H12    2py       -0.0000   -0.0000    0.0000    0.0939   -0.0747    0.0169    0.2090    0.0000   -0.0000    0.2059
       60 H12    2pz       -0.0015   -0.1522    0.0691    0.0000   -0.0000    0.0000   -0.0000    0.0699    0.2087    0.0000
       61 H13    1s        -0.3491   -2.6526   -2.2816    0.0000   -0.0000    0.0000   -0.0000    2.9224   -3.9977   -0.0000
       62 H13    2s        -0.3831   -1.8446   -1.7553    0.0000   -0.0000    0.0000   -0.0000    2.2428   -3.0465   -0.0000
       63 H13    2px        0.0000    0.0000    0.0000    0.0505    0.0636    0.1622   -0.0131   -0.0000   -0.0000    0.0876
       64 H13    2py        0.0000   -0.0000   -0.0000    0.0636   -0.0505    0.0131    0.1622    0.0000   -0.0000    0.2090
       65 H13    2pz        0.0045   -0.2438    0.0056    0.0000   -0.0000    0.0000   -0.0000    0.2764    0.0887    0.0000
       66 H14    1s         0.6365    1.6037    1.7067   -0.0000    0.0000   -0.0000    0.0000   -1.6011    2.1485    0.0000
       67 H14    2s         0.2393    1.4470    1.0270   -0.0000    0.0000   -0.0000    0.0000   -1.5061    1.3366    0.0000
       68 H14    2px        0.0000   -0.0000    0.0000    0.0323    0.0406    0.1142   -0.0093   -0.0000   -0.0000    0.0728
       69 H14    2py       -0.0000   -0.0000   -0.0000    0.0406   -0.0323    0.0093    0.1142    0.0000   -0.0000    0.1736
       70 H14    2pz       -0.0099   -0.1877   -0.0407    0.0000   -0.0000    0.0000   -0.0000    0.2433   -0.0041    0.0000
 
          Orbital           21    
          Energy            0.6213
          Occ. No.          0.0000
 
        1 H1     1s        -0.0000
        2 H1     2s        -0.0000
        3 H1     2px        0.1736
        4 H1     2py       -0.0728
        5 H1     2pz       -0.0000
        6 H2     1s         0.0000
        7 H2     2s         0.0000
        8 H2     2px        0.2090
        9 H2     2py       -0.0876
       10 H2     2pz        0.0000
       11 H3     1s        -0.0000
       12 H3     2s        -0.0000
       13 H3     2px        0.2059
       14 H3     2py       -0.0864
       15 H3     2pz        0.0000
       16 H4     1s         0.0000
       17 H4     2s         0.0000
       18 H4     2px        0.1214
       19 H4     2py       -0.0509
       20 H4     2pz        0.0000
       21 H5     1s        -0.0000
       22 H5     2s        -0.0000
       23 H5     2px       -0.0060
       24 H5     2py        0.0025
       25 H5     2pz        0.0000
       26 H6     1s        -0.0000
       27 H6     2s        -0.0000
       28 H6     2px       -0.1315
       29 H6     2py        0.0551
       30 H6     2pz       -0.0000
       31 H7     1s        -0.0000
       32 H7     2s        -0.0000
       33 H7     2px       -0.2091
       34 H7     2py        0.0877
       35 H7     2pz       -0.0000
       36 H8     1s         0.0000
       37 H8     2s         0.0000
       38 H8     2px       -0.2091
       39 H8     2py        0.0877
       40 H8     2pz       -0.0000
       41 H9     1s        -0.0000
       42 H9     2s         0.0000
       43 H9     2px       -0.1315
       44 H9     2py        0.0551
       45 H9     2pz       -0.0000
       46 H10    1s         0.0000
       47 H10    2s         0.0000
       48 H10    2px       -0.0060
       49 H10    2py        0.0025
       50 H10    2pz        0.0000
       51 H11    1s         0.0000
       52 H11    2s         0.0000
       53 H11    2px        0.1214
       54 H11    2py       -0.0509
       55 H11    2pz        0.0000
       56 H12    1s         0.0000
       57 H12    2s         0.0000
       58 H12    2px        0.2059
       59 H12    2py       -0.0864
       60 H12    2pz        0.0000
       61 H13    1s        -0.0000
       62 H13    2s        -0.0000
       63 H13    2px        0.2090
       64 H13    2py       -0.0876
       65 H13    2pz        0.0000
       66 H14    1s         0.0000
       67 H14    2s         0.0000
       68 H14    2px        0.1736
       69 H14    2py       -0.0728
       70 H14    2pz        0.0000
--
 
 
++    Molecular charges:
      ------------------
 
      Mulliken charges per centre and basis function type
      ---------------------------------------------------
 
                H1      H2      H3      H4      H5      H6      H7      H8      H9      H10     H11     H12   
      1s       1.3872  0.5174  1.0918  0.8860  0.9452  0.9481  0.9421  0.9421  0.9481  0.9452  0.8860  1.0918
      2s       0.0076  0.0382 -0.0776 -0.0450  0.0024 -0.0092 -0.0206 -0.0206 -0.0092  0.0024 -0.0450 -0.0776
      2px      0.0000  0.0000  0.0000  0.0000  0.0000  0.0000  0.0000  0.0000  0.0000  0.0000  0.0000  0.0000
      2pz      0.0368  0.0828  0.0622  0.0546  0.0455  0.0523  0.0522  0.0522  0.0523  0.0455  0.0546  0.0622
      2py      0.0000  0.0000  0.0000  0.0000  0.0000  0.0000  0.0000  0.0000  0.0000  0.0000  0.0000  0.0000
      Total    1.4315  0.6385  1.0764  0.8957  0.9930  0.9913  0.9736  0.9736  0.9913  0.9930  0.8957  1.0764
 
      N-E     -0.4315  0.3615 -0.0764  0.1043  0.0070  0.0087  0.0264  0.0264  0.0087  0.0070  0.1043 -0.0764
 
                H13     H14   
      1s       0.5174  1.3872
      2s       0.0382  0.0076
      2px      0.0000  0.0000
      2pz      0.0828  0.0368
      2py     -0.0000  0.0000
      Total    0.6385  1.4315
 
      N-E      0.3615 -0.4315
 
      Total electronic charge=   14.000000
 
      Total            charge=   -0.000000
--
 
 
  Input file to MOLDEN was generated!
 
 
++    Static properties:
      ------------------
 
 
      LoProp Charges per center
 

                   H1       H2       H3       H4       H5       H6       H7       H8       H9       H10   
      Nuclear      1.0000   1.0000   1.0000   1.0000   1.0000   1.0000   1.0000   1.0000   1.0000   1.0000
      Electronic  -1.1399  -0.9538  -0.9949  -0.9566  -0.9965  -0.9736  -0.9847  -0.9847  -0.9736  -0.9965
 
      Total       -0.1399   0.0462   0.0051   0.0434   0.0035   0.0264   0.0153   0.0153   0.0264   0.0035
 

                   H11      H12      H13      H14   
      Nuclear      1.0000   1.0000   1.0000   1.0000
      Electronic  -0.9566  -0.9949  -0.9538  -1.1399
 
      Total        0.0434   0.0051   0.0462  -0.1399
--
 
 
++    Natural Bond Order analysis
      ---------------------------
      Based on LoProp computed density
      -------------------------------------------------------------------------------------
      Atom A       Atom B       Bond Order | Atom A       Atom B       Bond Order
        H1           H2             0.958  |   H11          H12            0.930
        H13          H14            0.958  |   H5           H6             0.922
        H3           H4             0.930  |   H7           H8             0.924
        H9           H10            0.922  |
      -------------------------------------------------------------------------------------
      NBO located     13.088 electrons involved in    7 bonds.
      The remaining    0.912 electrons are to be considered as diffuse
--
 
 
++    Molecular properties:
      ---------------------
 
      Charge (e):
                      =   -0.0000
      Dipole Moment (Debye):
      Origin of the operator (Ang)=    0.0000    0.0000    0.0000
                   X=  1.0351E-13               Y= -1.0589E-13               Z= -9.3011E-06           Total=  9.3011E-06
      Quadrupole Moment (Debye*Ang):
      Origin of the operator (Ang)=    0.0000    0.0000    4.6879
                  XX= -1.2966E+01              XY=  3.7468E-28              XZ= -4.8654E-13              YY= -1.2966E+01
                  YZ=  3.6489E-13              ZZ= -3.8478E+01
      In traceless form (Debye*Ang)
                  XX=  1.2756E+01              XY=  5.6202E-28              XZ= -7.2982E-13              YY=  1.2756E+01
                  YZ=  5.4733E-13              ZZ= -2.5512E+01
--
 
 
  Input file to MOLDEN was generated!
 
 ###############################################################################
 ###############################################################################
 ###                                                                         ###
 ###                                                                         ###
 ###    RunFile label nBas                                                   ###
 ###    was used       78 times                                              ###
 ###                                                                         ###
 ###                                                                         ###
 ###############################################################################
 ###############################################################################
forrtl: warning (528): IEEE_UNDERFLOW is signaling
--- Stop Module: scf at Tue Mar  4 03:57:02 2025 /rc=_RC_ALL_IS_WELL_ ---
*** files: H14_0.72.LprOrb H14_0.72.LoProp.molden H14_0.72.scf.molden H14_0.72.ScfOrb H14_0.72.scf.h5 xmldump
    saved to directory /home/grierjones/DDCASPT2/hydrogen_comps/bigrun/H14_chain/H14_0.72

>>> COPY /tmp/H14_0.72/H14_0.72.scf.h5 /home/grierjones/DDCASPT2/hydrogen_comps/bigrun/H14_chain/H14_0.72/

*** symbolic link created: INPORB -> H14_0.72.ScfOrb
--- Start Module: rasscf at Tue Mar  4 03:57:02 2025 ---
 
()()()()()()()()()()()()()()()()()()()()()()()()()()()()()()()()()()()()()()()()()()()()()()()()()()

                                              &RASSCF

                                   only a single process is used
                      available to each process: 2.0 GB of memory, 12 threads
()()()()()()()()()()()()()()()()()()()()()()()()()()()()()()()()()()()()()()()()()()()()()()()()()()
 
 
      Header of the ONEINT file:
      --------------------------
      
      Integrals generated by seward 4.2.0  , Tue Mar  4 03:56:59 2025
 
 
      OrdInt status: non-squared
 
 
      Cartesian coordinates in Angstrom:
      -----------------------------------------------------
      No.  Label        X            Y            Z        
      -----------------------------------------------------
       1   H1         0.00000000   0.00000000   0.00000000
       2   H2         0.00000000   0.00000000   0.72121200
       3   H3         0.00000000   0.00000000   1.44242400
       4   H4         0.00000000   0.00000000   2.16363600
       5   H5         0.00000000   0.00000000   2.88484800
       6   H6         0.00000000   0.00000000   3.60606100
       7   H7         0.00000000   0.00000000   4.32727300
       8   H8         0.00000000   0.00000000   5.04848500
       9   H9         0.00000000   0.00000000   5.76969700
      10   H10        0.00000000   0.00000000   6.49090900
      11   H11        0.00000000   0.00000000   7.21212100
      12   H12        0.00000000   0.00000000   7.93333300
      13   H13        0.00000000   0.00000000   8.65454500
      14   H14        0.00000000   0.00000000   9.37575800
      -----------------------------------------------------
      Nuclear repulsion energy =   23.12864100
 
++    Wave function specifications:
      -----------------------------
 
      Number of closed shell electrons           0
      Number of electrons in active shells      14
      Max number of holes in RAS1 space          0
      Max nr of electrons in RAS3 space          0
      Number of inactive orbitals                0
      Number of active orbitals                 14
      Number of secondary orbitals              56
      Spin quantum number                      0.0
      State symmetry                             1
--
 
++    Orbital specifications:
      -----------------------
 
      Symmetry species                           1
                                                 a
      Frozen orbitals                            0
      Inactive orbitals                          0
      Active orbitals                           14
      RAS1 orbitals                              0
      RAS2 orbitals                             14
      RAS3 orbitals                              0
      Secondary orbitals                        56
      Deleted orbitals                           0
      Number of basis functions                 70
--
 
++    CI expansion specifications:
      ----------------------------
 
      Number of CSFs                       2760615
      Number of determinants               5891028
      Number of root(s) required                 1
      Root chosen for geometry opt.              1
      CI root used                               1
         
      highest root included in the CI            1
      max. size of the explicit Hamiltonian    200
--
 
++    Optimization specifications:
      ----------------------------
 
      RASSCF algorithm: Conventional
      Maximum number of macro iterations       200
      Maximum number of SX iterations          100
      Threshold for RASSCF energy            0.100E-07
      Threshold for max MO rotation          0.100E+00
      Threshold for max BLB element          0.100E-03
      Level shift parameter                  0.500E+00
      Make Quasi-Newton update
--
 
      Orbitals from runfile: scf orbitals
      The MO-coefficients are taken from scf orbitals on runfile
 
      Total molecular charge    0.00
 
      ************************************************************************************************************************
      *                                                                                                                      *
      *                                            Wave function control section                                             *
      *                                                                                                                      *
      ************************************************************************************************************************
 
 
                                         RASSCF iterations: Energy and convergence statistics
                                         ----------------------------------------------------
 
      Iter CI   SX   CI       RASSCF       Energy    max ROT     max BLB   max BLB  Level Ln srch  Step   QN   Walltime
          iter iter root      energy       change     param      element    value   shift minimum  type update hh:mm:ss
 Nr of preliminary CI iterations:   4
 ###############################################################################
 ###############################################################################
 ###                                                                         ###
 ###                                                                         ###
 ###    Large orbital rotation.                                              ###
 ###                                                                         ###
 ###                                                                         ###
 ###############################################################################
 ###############################################################################
      Molecular orbital  13 of symmetry 1 MO space 2  weight is    0.410654
 ###############################################################################
 ###############################################################################
 ###                                                                         ###
 ###                                                                         ###
 ###    Large orbital rotation.                                              ###
 ###                                                                         ###
 ###                                                                         ###
 ###############################################################################
 ###############################################################################
      Molecular orbital  18 of symmetry 1 MO space 3  weight is    0.463283
        1   1   53    1    -7.18423340    0.00E+00   0.72E+00*  13  18 1 -0.12E-01*  0.00   0.00    SX    NO    0:06:08
        2   5   47    1    -7.23001322   -0.46E-01* -0.41E+00*   7  28 1 -0.10E-01*  0.00   0.00    SX    NO    0:03:53
        3   4   34    1    -7.25838032   -0.28E-01* -0.19E+00*   2  24 1  0.58E-02*  0.00   0.00    SX    NO    0:03:34
        4   4   42    1    -7.26740603   -0.90E-02*  0.12E+00*   7  38 1 -0.54E-02*  0.00   0.00    SX    NO    0:03:33
        5   4   20    1    -7.27132529   -0.39E-02*  0.90E-01    7  38 1 -0.61E-02*  0.00   2.38    LS   YES    0:03:33
        6   4   21    1    -7.27305732   -0.17E-02*  0.91E-01    7  38 1 -0.66E-02*  0.00   2.08    QN   YES    0:03:33
        7   5   20    1    -7.27433072   -0.13E-02*  0.58E-01    7  38 1 -0.53E-02*  0.00   1.89    LS   YES    0:03:53
        8   4   20    1    -7.27467941   -0.35E-03* -0.36E-01    7  38 1 -0.44E-02*  0.00   1.46    QN   YES    0:03:33
        9   5   19    1    -7.27500155   -0.32E-03* -0.30E-01    7  54 1  0.26E-02*  0.00   2.00    LS   YES    0:03:53
       10   5   19    1    -7.27510595   -0.10E-03*  0.18E-01    7  54 1  0.16E-02*  0.00   1.22    QN   YES    0:03:53
       11   4   17    1    -7.27515211   -0.46E-04* -0.63E-02    7  38 1 -0.39E-03*  0.00   1.35    QN   YES    0:03:34
       12   4   15    1    -7.27515761   -0.55E-05*  0.14E-02    7  38 1 -0.88E-04   0.00   1.17    QN   YES    0:03:33
       13   4   13    1    -7.27515804   -0.43E-06* -0.83E-03    6  34 1 -0.24E-04   0.00   1.30    QN   YES    0:03:36
       14   4    9    1    -7.27515810   -0.57E-07* -0.19E-03    5  28 1  0.55E-05   0.00   1.11    QN   YES    0:03:33
       15   2    9    1    -7.27515810   -0.26E-08   0.32E-04    7  61 1  0.17E-05   0.00   1.19    QN   YES    0:02:54
      Convergence after 15 iterations
 
  Dmat in MO in SXCTL bf call to SXHAM                                                                                    
  mat. size =    14x   14
 
        1.9941299634910288
       -0.0000000005044254      1.9925994016237552
        0.0007277002034892      0.0000000015159831      1.9884228450208750
        0.0000000030230331     -0.0000118345535675      0.0000000007199722      1.9843665569505780
       -0.0005392879814265      0.0000000001955008      0.0016866441742213     -0.0000000004357994      1.9745501250164954
        0.0000000010858324      0.0012727157146326      0.0000000009923134      0.0022581535970363     -0.0000000019375652
        1.9569321210984409
        0.0015229094711822     -0.0000000066039076      0.0017355086007140     -0.0000000102162471      0.0057208368855224
        0.0000000111121709      1.9229981568325345
       -0.0000000043702892      0.0008322579803060     -0.0000000092391085     -0.0014659426312559     -0.0000000025533637
       -0.0332973939890002     -0.0000000724323006      0.0538082847030196
        0.0057973424679151     -0.0000000103795515      0.0027085083001502     -0.0000000164622206      0.0019399626846609
       -0.0000000383677497      0.0155149453873778      0.0000000647404378      0.0060262908151355
        0.0020000216264221      0.0000000083215549      0.0020607791498789      0.0000000483575288      0.0037891776460813
        0.0000001668909679     -0.0384945159489144     -0.0000001541590504      0.0000263344110540      0.0204206206222658
       -0.0000000061791300     -0.0039011422817111      0.0000000089146729     -0.0079913107261103      0.0000000466828292
       -0.0276828135318744     -0.0000002223305966      0.0316488896285327      0.0000000433532070     -0.0000000555215193
        0.0298653220329497
       -0.0000000023047086     -0.0020971951431599     -0.0000000058407100     -0.0088989692206836     -0.0000000379004127
        0.0380056741632316     -0.0000000241644350     -0.0216501122340807     -0.0000000205180378      0.0000000706210212
       -0.0132618591719259      0.0348574690195887
        0.0016740321199416      0.0000000086352312     -0.0036559025249922     -0.0000000181797195     -0.0251865877372563
       -0.0000000344759147      0.0315002176806227      0.0000000048113645      0.0041599224710136     -0.0131499437177045
       -0.0000000686324116      0.0000000126438964      0.0363816968783494
       -0.0000000000000002     -0.0000000000000001      0.0000000000000001     -0.0000000000000008     -0.0000000000000001
       -0.0000000000000008     -0.0000000000000122      0.0000000000000000     -0.0000000000000001      0.0000000000000001
        0.0000000000000002     -0.0000000000000001      0.0000000000000002      0.0046411459007231
       16   1    9    1    -7.27515810   -0.23E-09   0.32E-04    7  35 1  0.40E-06   0.00   1.19    QN   YES    0:02:51
 
      ************************************************************************************************************************
                                                      Wave function printout:
                       occupation of active orbitals, and spin coupling of open shells (u,d: Spin up or down)
      ************************************************************************************************************************
 
      Note: transformation to natural orbitals
      has been made, which may change the order of the CSFs.
 
      printout of CI-coefficients larger than  0.05 for root  1
      energy=      -7.275158
      conf/sym  11111111111111     Coeff  Weight
             1  22222220000000   0.95472 0.91149
            51  22222202000000  -0.13727 0.01884
            94  22222udu0000d0   0.07633 0.00583
           247  22222022000000  -0.05542 0.00307
           845  22222uud0000d0  -0.08464 0.00716
 
      Natural orbitals and occupation numbers for root  1
      sym 1:   1.994289   1.992659   1.988650   1.984629   1.975143   1.958464   1.923831   0.086184   0.004984   0.013399
               0.007854   0.022640   0.042634   0.004641
 
      ************************************************************************************************************************
      *                                                                                                                      *
      *                                                    Final results                                                     *
      *                                                                                                                      *
      ************************************************************************************************************************
 
 
++    Wave function specifications:
      -----------------------------
 
      Number of closed shell electrons           0
      Number of electrons in active shells      14
      Max number of holes in RAS1 space          0
      Max nr of electrons in RAS3 space          0
      Number of inactive orbitals                0
      Number of active orbitals                 14
      Number of secondary orbitals              56
      Spin quantum number                      0.0
      State symmetry                             1
--
 
++    Orbital specifications:
      -----------------------
 
      Symmetry species                           1
                                                 a
      Frozen orbitals                            0
      Inactive orbitals                          0
      Active orbitals                           14
      RAS1 orbitals                              0
      RAS2 orbitals                             14
      RAS3 orbitals                              0
      Secondary orbitals                        56
      Deleted orbitals                           0
      Number of basis functions                 70
--
 
++    CI expansion specifications:
      ----------------------------
 
      Number of CSFs                       2760615
      Number of determinants               5891028
      Number of root(s) required                 1
      CI root used                               1
      highest root included in the CI            1
      Root passed to geometry opt.               1
--
 
++    Final optimization conditions:
      ------------------------------
 
      Average CI energy                              -7.27515810
      RASSCF energy for state  1                     -7.27515810
      Super-CI energy                                -0.00000000
      RASSCF energy change                            0.00000000
      Max change in MO coefficients              -0.423E-03
      Max non-diagonal density matrix element     0.316E-04
      Maximum BLB matrix element                  0.403E-06
      (orbital pair   7,  35 in symmetry   1)
      Norm of electronic gradient            0.161E-05
--
 
 
      Final state energy(ies):
      ------------------------
 
::    RASSCF root number  1 Total energy:     -7.27515810
 
++    Molecular orbitals:
      -------------------
 
      Pseudonatural active orbitals and approximate occupation numbers
 
 
 
 
      Molecular orbitals for symmetry species 1: a  
 
 
      Orbital                1         2         3         4         5         6         7         8         9        10
      Energy            0.0000    0.0000    0.0000    0.0000    0.0000    0.0000    0.0000    0.0000    0.0000    0.0000
      Occ. No.          1.9943    1.9927    1.9887    1.9846    1.9751    1.9585    1.9238    0.0862    0.0050    0.0134
 
    1 H1     1s         0.0837   -0.1578    0.2989   -0.3334    0.3347   -0.3361    0.4259   -0.3037    0.6000   -0.5058
    2 H1     2s         0.0301   -0.0491    0.0741   -0.0581    0.0284   -0.0244    0.1215    0.0658    0.2247   -0.0282
    3 H1     2px       -0.0000    0.0000   -0.0000    0.0000   -0.0000    0.0000   -0.0000   -0.0000   -0.0000   -0.0000
    4 H1     2py        0.0000   -0.0000    0.0000    0.0000   -0.0000    0.0000    0.0000   -0.0000    0.0000    0.0000
    5 H1     2pz        0.0056   -0.0167    0.0312   -0.0303    0.0170   -0.0059   -0.0019    0.0355   -0.1007    0.1067
    6 H2     1s         0.0423   -0.0829    0.1006   -0.1121    0.1547   -0.1924    0.0481   -0.1063   -1.4513    0.5888
    7 H2     2s        -0.0438    0.0787   -0.1568    0.1737   -0.0869   -0.0145    0.0299   -0.1804   -0.5125   -0.1834
    8 H2     2px       -0.0000    0.0000   -0.0000    0.0000   -0.0000   -0.0000   -0.0000   -0.0000    0.0000   -0.0000
    9 H2     2py        0.0000    0.0000    0.0000   -0.0000    0.0000    0.0000    0.0000    0.0000    0.0000   -0.0000
   10 H2     2pz       -0.0057   -0.0114    0.0222   -0.0091   -0.0199    0.0364   -0.0386    0.0692    0.1127   -0.0387
   11 H3     1s         0.1484   -0.2366    0.2497   -0.1888   -0.0525    0.2688   -0.4725    0.6373    2.4609   -0.1397
   12 H3     2s        -0.0125    0.0219   -0.0245    0.0024    0.0166    0.0074   -0.0886    0.1264    0.9999    0.3620
   13 H3     2px       -0.0000   -0.0000    0.0000   -0.0000    0.0000   -0.0000   -0.0000    0.0000   -0.0000   -0.0000
   14 H3     2py        0.0000   -0.0000    0.0000   -0.0000    0.0000   -0.0000    0.0000    0.0000   -0.0000    0.0000
   15 H3     2pz       -0.0112   -0.0115    0.0122    0.0121   -0.0344    0.0322   -0.0074   -0.0191   -0.0543   -0.0899
   16 H4     1s         0.1474   -0.2067    0.0768    0.0793   -0.2780    0.3685   -0.2645   -0.3248   -3.3311   -0.5475
   17 H4     2s        -0.0496    0.0646   -0.0547    0.0102    0.0292    0.0236   -0.1042   -0.0495   -1.6331   -0.3730
   18 H4     2px       -0.0000   -0.0000    0.0000   -0.0000   -0.0000    0.0000   -0.0000   -0.0000    0.0000    0.0000
   19 H4     2py        0.0000   -0.0000    0.0000    0.0000   -0.0000   -0.0000    0.0000   -0.0000   -0.0000   -0.0000
   20 H4     2pz       -0.0131   -0.0167    0.0083    0.0166   -0.0122   -0.0150    0.0425   -0.0553   -0.0055    0.1474
   21 H5     1s         0.2199   -0.2032   -0.0379    0.1672   -0.1214   -0.0887    0.5219   -0.3731    3.3508    1.3056
   22 H5     2s        -0.0231    0.0558    0.0010   -0.0864    0.0975   -0.0360    0.1279    0.0500    1.7358    0.5103
   23 H5     2px        0.0000   -0.0000   -0.0000    0.0000   -0.0000    0.0000    0.0000   -0.0000    0.0000   -0.0000
   24 H5     2py        0.0000   -0.0000   -0.0000    0.0000   -0.0000    0.0000   -0.0000   -0.0000   -0.0000   -0.0000
   25 H5     2pz       -0.0119   -0.0236    0.0051    0.0070    0.0186   -0.0386    0.0192    0.0434    0.0582   -0.0568
   26 H6     1s         0.2002   -0.1864   -0.1192    0.2369   -0.0228   -0.3133    0.3480    0.2731   -2.3422   -1.5029
   27 H6     2s        -0.0387    0.0163    0.0600   -0.0471   -0.0421    0.0175    0.0949   -0.0391   -1.1842   -0.6124
   28 H6     2px        0.0000   -0.0000    0.0000   -0.0000   -0.0000   -0.0000    0.0000    0.0000   -0.0000   -0.0000
   29 H6     2py       -0.0000   -0.0000    0.0000    0.0000    0.0000    0.0000   -0.0000    0.0000    0.0000    0.0000
   30 H6     2pz       -0.0106   -0.0270    0.0034   -0.0117    0.0321   -0.0080   -0.0412    0.0683   -0.1131   -0.0309
   31 H7     1s         0.1955   -0.0213   -0.2334    0.0193    0.2497   -0.1669   -0.4590    0.4152    0.8112    0.6636
   32 H7     2s        -0.0317    0.0384    0.0564   -0.0738   -0.0480    0.0176   -0.1105    0.0247    0.3979    0.2908
   33 H7     2px        0.0000   -0.0000   -0.0000    0.0000   -0.0000   -0.0000    0.0000    0.0000   -0.0000    0.0000
   34 H7     2py       -0.0000    0.0000   -0.0000   -0.0000   -0.0000    0.0000   -0.0000   -0.0000   -0.0000   -0.0000
   35 H7     2pz       -0.0036   -0.0284    0.0003   -0.0236    0.0155    0.0357   -0.0331   -0.0488    0.1709    0.1074
   36 H8     1s         0.1955    0.0213   -0.2334   -0.0193    0.2497    0.1669   -0.4590   -0.4152    0.8112    0.6636
   37 H8     2s        -0.0317   -0.0384    0.0564    0.0738   -0.0480   -0.0176   -0.1105   -0.0247    0.3979    0.2908
   38 H8     2px        0.0000    0.0000   -0.0000    0.0000   -0.0000    0.0000    0.0000   -0.0000   -0.0000   -0.0000
   39 H8     2py       -0.0000    0.0000    0.0000    0.0000    0.0000   -0.0000   -0.0000   -0.0000    0.0000   -0.0000
   40 H8     2pz        0.0036   -0.0284   -0.0003   -0.0236   -0.0155    0.0357    0.0331   -0.0488   -0.1709   -0.1074
   41 H9     1s         0.2002    0.1864   -0.1192   -0.2369   -0.0228    0.3133    0.3480   -0.2731   -2.3422   -1.5029
   42 H9     2s        -0.0387   -0.0163    0.0600    0.0471   -0.0421   -0.0175    0.0949    0.0391   -1.1842   -0.6124
   43 H9     2px        0.0000   -0.0000    0.0000   -0.0000   -0.0000   -0.0000    0.0000    0.0000    0.0000    0.0000
   44 H9     2py       -0.0000   -0.0000    0.0000   -0.0000    0.0000   -0.0000   -0.0000    0.0000   -0.0000    0.0000
   45 H9     2pz        0.0106   -0.0270   -0.0034   -0.0117   -0.0321   -0.0080    0.0412    0.0683    0.1131    0.0309
   46 H10    1s         0.2199    0.2032   -0.0379   -0.1672   -0.1214    0.0887    0.5219    0.3731    3.3508    1.3056
   47 H10    2s        -0.0231   -0.0558    0.0010    0.0864    0.0975    0.0360    0.1279   -0.0500    1.7358    0.5103
   48 H10    2px        0.0000    0.0000   -0.0000    0.0000   -0.0000    0.0000   -0.0000   -0.0000    0.0000   -0.0000
   49 H10    2py       -0.0000   -0.0000   -0.0000    0.0000    0.0000   -0.0000   -0.0000    0.0000   -0.0000   -0.0000
   50 H10    2pz        0.0119   -0.0236   -0.0051    0.0070   -0.0186   -0.0386   -0.0192    0.0434   -0.0582    0.0568
   51 H11    1s         0.1474    0.2067    0.0768   -0.0793   -0.2779   -0.3685   -0.2645    0.3248   -3.3311   -0.5475
   52 H11    2s        -0.0496   -0.0646   -0.0547   -0.0102    0.0292   -0.0236   -0.1042    0.0495   -1.6331   -0.3730
   53 H11    2px       -0.0000   -0.0000   -0.0000   -0.0000   -0.0000    0.0000   -0.0000   -0.0000   -0.0000    0.0000
   54 H11    2py        0.0000    0.0000    0.0000    0.0000    0.0000    0.0000    0.0000   -0.0000    0.0000   -0.0000
   55 H11    2pz        0.0131   -0.0167   -0.0083    0.0166    0.0122   -0.0150   -0.0425   -0.0553    0.0055   -0.1474
   56 H12    1s         0.1484    0.2366    0.2497    0.1888   -0.0525   -0.2688   -0.4725   -0.6373    2.4609   -0.1397
   57 H12    2s        -0.0125   -0.0219   -0.0245   -0.0024    0.0166   -0.0074   -0.0886   -0.1264    0.9999    0.3620
   58 H12    2px       -0.0000   -0.0000   -0.0000   -0.0000   -0.0000   -0.0000   -0.0000    0.0000    0.0000    0.0000
   59 H12    2py        0.0000   -0.0000   -0.0000   -0.0000    0.0000   -0.0000    0.0000    0.0000    0.0000    0.0000
   60 H12    2pz        0.0112   -0.0115   -0.0122    0.0121    0.0344    0.0322    0.0074   -0.0191    0.0543    0.0899
   61 H13    1s         0.0423    0.0829    0.1006    0.1121    0.1547    0.1924    0.0482    0.1063   -1.4513    0.5888
   62 H13    2s        -0.0438   -0.0787   -0.1568   -0.1737   -0.0869    0.0145    0.0299    0.1804   -0.5125   -0.1834
   63 H13    2px       -0.0000    0.0000    0.0000   -0.0000    0.0000    0.0000   -0.0000    0.0000    0.0000   -0.0000
   64 H13    2py       -0.0000    0.0000    0.0000    0.0000   -0.0000    0.0000    0.0000    0.0000   -0.0000   -0.0000
   65 H13    2pz        0.0057   -0.0114   -0.0222   -0.0091    0.0199    0.0364    0.0386    0.0692   -0.1127    0.0387
   66 H14    1s         0.0837    0.1578    0.2989    0.3334    0.3347    0.3361    0.4259    0.3037    0.6000   -0.5058
   67 H14    2s         0.0301    0.0491    0.0741    0.0581    0.0284    0.0244    0.1215   -0.0658    0.2247   -0.0282
   68 H14    2px        0.0000    0.0000   -0.0000   -0.0000   -0.0000    0.0000   -0.0000   -0.0000    0.0000    0.0000
   69 H14    2py       -0.0000   -0.0000   -0.0000   -0.0000    0.0000    0.0000    0.0000   -0.0000    0.0000    0.0000
   70 H14    2pz       -0.0056   -0.0167   -0.0312   -0.0303   -0.0170   -0.0059    0.0019    0.0355    0.1007   -0.1067
 
 
      Orbital               11        12        13        14        15        16        17        18        19        20
      Energy            0.0000    0.0000    0.0000    0.0000    0.1461    0.2068    0.3152    0.4181    0.4655    0.5281
      Occ. No.          0.0079    0.0226    0.0426    0.0046    0.0000    0.0000    0.0000    0.0000    0.0000    0.0000
 
    1 H1     1s         0.5531   -0.4041    0.3841    0.0000   -0.2637    0.2796   -0.2747   -1.0082    0.0000    0.0000
    2 H1     2s         0.0625    0.0885   -0.0561    0.0000   -0.0978   -0.0111    0.1290   -1.1441    0.0000    0.0000
    3 H1     2px       -0.0000   -0.0000   -0.0000   -0.0002   -0.0000    0.0000   -0.0000   -0.0000    0.0413   -0.0906
    4 H1     2py        0.0000   -0.0000    0.0000   -0.0003    0.0000   -0.0000   -0.0000    0.0000   -0.0328    0.0720
    5 H1     2pz       -0.1222    0.0912   -0.0622   -0.0000   -0.0123   -0.0271    0.1091   -0.2762   -0.0000    0.0000
    6 H2     1s        -1.0588    0.1821   -0.0553   -0.0000    0.1955   -0.2464    0.6581    0.8948   -0.0000   -0.0000
    7 H2     2s        -0.0965   -0.3450    0.2512   -0.0000    0.2322   -0.3429    0.6455    0.6243   -0.0000   -0.0000
    8 H2     2px        0.0000   -0.0000    0.0000   -0.0001   -0.0000   -0.0000   -0.0000   -0.0000    0.0643   -0.1279
    9 H2     2py        0.0000   -0.0000    0.0000   -0.0001   -0.0000    0.0000   -0.0000    0.0000   -0.0511    0.1017
   10 H2     2pz        0.0808    0.0256   -0.0559   -0.0000   -0.0346   -0.0206    0.1350   -0.3113   -0.0000    0.0000
   11 H3     1s         1.3460    0.5988   -0.7064    0.0000   -0.2124    0.1138   -0.4021   -0.8957    0.0000    0.0000
   12 H3     2s         0.2306    0.4780   -0.2922    0.0000   -0.0285   -0.1255   -0.0631   -0.7139    0.0000    0.0000
   13 H3     2px       -0.0000    0.0000    0.0000    0.0017   -0.0000   -0.0000    0.0000    0.0000    0.0947   -0.1645
   14 H3     2py       -0.0000    0.0000   -0.0000    0.0021   -0.0000   -0.0000   -0.0000    0.0000   -0.0753    0.1308
   15 H3     2pz        0.0231   -0.1024    0.0709   -0.0000   -0.0464   -0.0242    0.1642   -0.2274   -0.0000   -0.0000
   16 H4     1s        -1.1089   -1.2304    0.8521    0.0000    0.0887   -0.0466    0.5293    1.2219   -0.0000   -0.0000
[...]
   69 H14    2py       -0.0000   -0.0000   -0.0000   -0.0000   -0.0000    0.0000   -0.0000    0.0000   -0.0000    0.0000
   70 H14    2pz        0.9036    0.8594    0.7899    0.6957    0.5827    0.4288    0.2693    0.0308    0.0614    0.2131
--
 
      Von Neumann Entropy (Root  1) =  0.63860
 

      Mulliken population analysis for root number:  1
      -----------------------------------------------
 
 
++    Molecular charges:
      ------------------
 
      Mulliken charges per centre and basis function type
      ---------------------------------------------------
 
                H1      H2      H3      H4      H5      H6      H7      H8      H9      H10     H11     H12   
      1s       1.4012  0.4656  1.0839  0.8935  0.9206  0.9314  0.9351  0.9351  0.9314  0.9206  0.8935  1.0838
      2s       0.0061  0.0515 -0.0561 -0.0419  0.0182 -0.0025 -0.0097 -0.0097 -0.0025  0.0182 -0.0419 -0.0561
      2px     -0.0000 -0.0000  0.0000 -0.0000 -0.0000 -0.0001  0.0010  0.0010 -0.0001 -0.0000 -0.0000  0.0000
      2pz      0.0404  0.0852  0.0640  0.0535  0.0482  0.0540  0.0555  0.0555  0.0540  0.0482  0.0535  0.0640
      2py     -0.0000 -0.0000  0.0000 -0.0000 -0.0000 -0.0001  0.0016  0.0016 -0.0001 -0.0000 -0.0000  0.0000
      Total    1.4477  0.6024  1.0917  0.9051  0.9870  0.9827  0.9834  0.9834  0.9827  0.9870  0.9051  1.0917
 
      N-E     -0.4477  0.3976 -0.0917  0.0949  0.0130  0.0173  0.0166  0.0166  0.0173  0.0130  0.0949 -0.0917
 
                H13     H14   
      1s       0.4656  1.4012
      2s       0.0515  0.0061
      2px     -0.0000 -0.0000
      2pz      0.0852  0.0404
      2py     -0.0000 -0.0000
      Total    0.6024  1.4477
 
      N-E      0.3976 -0.4477
 
      Total electronic charge=   14.000000
 
      Total            charge=   -0.000000
--
 
 

      Expectation values of various properties for root number:  1
      -----------------------------------------------------------
 
 
++    Molecular properties:
      ---------------------
 
      Charge (e):
                      =   -0.0000
      Dipole Moment (Debye):
      Origin of the operator (Ang)=    0.0000    0.0000    0.0000
                   X= -3.0117E-14               Y=  2.0649E-15               Z= -8.0247E-06           Total=  8.0247E-06
      Quadrupole Moment (Debye*Ang):
      Origin of the operator (Ang)=    0.0000    0.0000    4.6879
                  XX= -1.2769E+01              XY= -4.1124E-03              XZ= -2.1584E-13              YY= -1.2771E+01
                  YZ=  3.6885E-13              ZZ= -3.8084E+01
      In traceless form (Debye*Ang)
                  XX=  1.2658E+01              XY= -6.1685E-03              XZ= -3.2376E-13              YY=  1.2656E+01
                  YZ=  5.5328E-13              ZZ= -2.5314E+01
--
 

      LoProp population analysis for root number:  1
      -----------------------------------------------
 
 
++    LoProp analysis:
      ----------------
 
 
 
  Input file to MOLDEN was generated!
 
 
++    Static properties:
      ------------------
 
 
      LoProp Charges per center
 

                   H1       H2       H3       H4       H5       H6       H7       H8       H9       H10   
      Nuclear      1.0000   1.0000   1.0000   1.0000   1.0000   1.0000   1.0000   1.0000   1.0000   1.0000
      Electronic  -1.1347  -0.9590  -0.9889  -0.9628  -0.9920  -0.9763  -0.9863  -0.9863  -0.9763  -0.9920
 
      Total       -0.1347   0.0410   0.0111   0.0372   0.0080   0.0237   0.0137   0.0137   0.0237   0.0080
 

                   H11      H12      H13      H14   
      Nuclear      1.0000   1.0000   1.0000   1.0000
      Electronic  -0.9628  -0.9889  -0.9590  -1.1347
 
      Total        0.0372   0.0111   0.0410  -0.1347
--
 
 
      Natural Bond Order analysis for root number:  1
 
++    Natural Bond Order analysis
      ---------------------------
      Based on LoProp computed density
      -------------------------------------------------------------------------------------
      Atom A       Atom B       Bond Order | Atom A       Atom B       Bond Order
        H1           H2             0.924  |   H13          H14            0.924
        H3           H4             0.896  |   H5           H6             0.880
        H11          H12            0.896  |   H7           H8             0.890
        H9           H10            0.880  |
      -------------------------------------------------------------------------------------
      NBO located     12.583 electrons involved in    7 bonds.
      The remaining    1.417 electrons are to be considered as diffuse
--
 
--
 
 
  Input file to MOLDEN was generated!
 
      Average orbitals are written to the RASORB file
      Natural orbitals for root   1 are written to the RASORB.1 file
      Spin density orbitals for root   1 are written to the SPDORB.1 file
 
forrtl: warning (525): IEEE_DIVIDE_BY_ZERO is signaling
forrtl: warning (526): IEEE_INVALID is signaling
forrtl: warning (528): IEEE_UNDERFLOW is signaling
--- Stop Module: rasscf at Tue Mar  4 04:59:14 2025 /rc=_RC_ALL_IS_WELL_ ---
*** files: H14_0.72.LprOrb H14_0.72.rasscf.molden H14_0.72.LoProp.molden H14_0.72.RasOrb.1 H14_0.72.RasOrb H14_0.72.rasscf.h5 H14_0.72.SpdOrb.1 xmldump
    saved to directory /home/grierjones/DDCASPT2/hydrogen_comps/bigrun/H14_chain/H14_0.72
--- Module rasscf spent 1 hour 2 minutes 12 seconds ---

>>> COPY /tmp/H14_0.72/H14_0.72.rasscf.h5 /home/grierjones/DDCASPT2/hydrogen_comps/bigrun/H14_chain/H14_0.72/

>>> COPY /tmp/H14_0.72/GMJ_Fock_MO.csv /home/grierjones/DDCASPT2/hydrogen_comps/bigrun/H14_chain/H14_0.72/H14_0.72.GMJ_Fock_MO.csv

*** symbolic link created: INPORB -> H14_0.72.RasOrb
--- Start Module: motra at Tue Mar  4 04:59:14 2025 ---
 
()()()()()()()()()()()()()()()()()()()()()()()()()()()()()()()()()()()()()()()()()()()()()()()()()()

                                               &MOTRA

                                   only a single process is used
                      available to each process: 2.0 GB of memory, 12 threads
()()()()()()()()()()()()()()()()()()()()()()()()()()()()()()()()()()()()()()()()()()()()()()()()()()
 
 
      *** WARNING: Default frozen orbitals is overwritten by user input.
      *** Default values:   0
 
      Header of the integral files:
      
       Integrals generated by seward 4.2.0  , Tue Mar  4 03:56:59 2025
 
 
      Header of MO coefficients source file:
      * RASSCF average (pseudo-natural) orbitals                                      
 
 
      Cartesian coordinates in Angstrom:
      -----------------------------------------------------
      No.  Label        X            Y            Z        
      -----------------------------------------------------
       1   H1         0.00000000   0.00000000   0.00000000
       2   H2         0.00000000   0.00000000   0.72121200
       3   H3         0.00000000   0.00000000   1.44242400
       4   H4         0.00000000   0.00000000   2.16363600
       5   H5         0.00000000   0.00000000   2.88484800
       6   H6         0.00000000   0.00000000   3.60606100
       7   H7         0.00000000   0.00000000   4.32727300
       8   H8         0.00000000   0.00000000   5.04848500
       9   H9         0.00000000   0.00000000   5.76969700
      10   H10        0.00000000   0.00000000   6.49090900
      11   H11        0.00000000   0.00000000   7.21212100
      12   H12        0.00000000   0.00000000   7.93333300
      13   H13        0.00000000   0.00000000   8.65454500
      14   H14        0.00000000   0.00000000   9.37575800
      -----------------------------------------------------
      Nuclear repulsion energy =   23.12864100
 
      Orbital specifications:
      -----------------------
 
      Symmetry species:              1
      Number of basis functions:    70
      Frozen orbitals:               0
      Deleted orbitals:              0
      Number of orbitals used:      70

       SYMMETRY  BASIS FUNCTIONS       ORBITALS      INTEGRALS   CPU(SEC)  I/O(SEC)
        1 1 1 1   70  70  70  70    70  70  70  70     3088855       0.00      0.00

       TOTAL CPU TIME(SEC)    1.91TOTAL I/O TIME(SEC)    4.25
 
--- Stop Module: motra at Tue Mar  4 04:59:19 2025 /rc=_RC_ALL_IS_WELL_ ---
*** files: xmldump
    saved to directory /home/grierjones/DDCASPT2/hydrogen_comps/bigrun/H14_chain/H14_0.72
--- Module motra spent 4 seconds ---

>>> COPY /tmp/H14_0.72/GMJ_one_int_indx.csv /home/grierjones/DDCASPT2/hydrogen_comps/bigrun/H14_chain/H14_0.72/H14_0.72.GMJ_one_int_indx.csv

>>> COPY /tmp/H14_0.72/GMJ_one_int.csv /home/grierjones/DDCASPT2/hydrogen_comps/bigrun/H14_chain/H14_0.72/H14_0.72.GMJ_one_int.csv

>>> COPY /tmp/H14_0.72/GMJ_two_int_indx.csv /home/grierjones/DDCASPT2/hydrogen_comps/bigrun/H14_chain/H14_0.72/H14_0.72.GMJ_two_int_indx.csv

>>> COPY /tmp/H14_0.72/GMJ_two_int.csv /home/grierjones/DDCASPT2/hydrogen_comps/bigrun/H14_chain/H14_0.72/H14_0.72.GMJ_two_int.csv

*** symbolic link created: INPORB -> H14_0.72.RasOrb
--- Start Module: caspt2 at Tue Mar  4 04:59:19 2025 ---
 
()()()()()()()()()()()()()()()()()()()()()()()()()()()()()()()()()()()()()()()()()()()()()()()()()()

                                              &CASPT2

                                   only a single process is used
                      available to each process: 2.0 GB of memory, 12 threads
()()()()()()()()()()()()()()()()()()()()()()()()()()()()()()()()()()()()()()()()()()()()()()()()()()
 
 Cholesky algorithm in CASPT2 =    1
 
 ###############################################################################
 ###############################################################################
 ###                                                                         ###
 ###                                                                         ###
 ###    User changed nr of frozen orbitals.                                  ###
 ###                                                                         ###
 ###                                                                         ###
 ###############################################################################
 ###############################################################################
 
++    Wave function specifications:
      -----------------------------
 
      Number of closed shell electrons           0
      Number of electrons in active shells      14
      Max number of holes in RAS1 space          0
      Max number of electrons in RAS3 space      0
      Number of inactive orbitals                0
      Number of active orbitals                 14
      Number of secondary orbitals              56
      Spin quantum number                      0.0
      State symmetry                             1
      Number of CSFs                       2760615
      Number of root(s) available                1
      Root passed to geometry opt.               1
      A file JOBMIX will be created.
      This is a CASSCF or RASSCF reference function
--
 
++    Orbital specifications:
      -----------------------
 
      Symmetry species                           1
                                                 a
      Frozen orbitals                            0
      Inactive orbitals                          0
      Active orbitals                           14
      Secondary orbitals                        56
      Deleted orbitals                           0
      Number of basis functions                 70
--
 
      Type of Fock operator: STANDARD
      Type of 0-order Hamiltonian: STANDARD WITH DEFAULT IPEA
        "IP-EA" denominator shift =      0.25
      The input orbitals and the CI vector will be transformed.
 
--------------------------------------------------------------------------------
 Estimated memory requirements:
  POLY3 :                221099910
  RHS:                     4333268
  SIGMA :                   920320
  PRPCTL:                        0
 Available workspace:    229074296
 
++ CASPT2 computation for group   1
 
********************************************************************************
 Multi-State initialization phase begins for group   1
--------------------------------------------------------------------------------
********************************************************************************
 Compute H0 matrices for state    1
--------------------------------------------------------------------------------
--------------------------------------------------------------------------------
 H0 matrices have been computed.
 
********************************************************************************
  CASPT2 EQUATION SOLUTION
--------------------------------------------------------------------------------
 
  Total nr of CASPT2 parameters:
   Before reduction:      461384
   After  reduction:      459816
 
 The contributions to the second order correlation energy in atomic units.
-----------------------------------------------------------------------------------------------------------------------------
  IT.      VJTU        VJTI        ATVX        AIVX        VJAI        BVAT        BJAT        BJAI        TOTAL       RNORM  
-----------------------------------------------------------------------------------------------------------------------------
   1     0.000000    0.000000   -0.044734    0.000000    0.000000   -0.096981    0.000000    0.000000   -0.141716    0.008666
   2     0.000000    0.000000   -0.045159    0.000000    0.000000   -0.097228    0.000000    0.000000   -0.142387    0.001966
   3     0.000000    0.000000   -0.045195    0.000000    0.000000   -0.097257    0.000000    0.000000   -0.142452    0.000464
   4     0.000000    0.000000   -0.045169    0.000000    0.000000   -0.097253    0.000000    0.000000   -0.142422    0.000093
   5     0.000000    0.000000   -0.045168    0.000000    0.000000   -0.097252    0.000000    0.000000   -0.142420    0.000022
   6     0.000000    0.000000   -0.045169    0.000000    0.000000   -0.097252    0.000000    0.000000   -0.142421    0.000005
   7     0.000000    0.000000   -0.045169    0.000000    0.000000   -0.097252    0.000000    0.000000   -0.142421    0.000001
-------------------------------------------------------------------------------------------------------------------
 
  FINAL CASPT2 RESULT:
 
  Correlation energy /Case, /Symm, and sums:
 VJTU      0.00000000  0.00000000
 VJTIP     0.00000000  0.00000000
 VJTIM     0.00000000  0.00000000
 ATVX     -0.04516853 -0.04516853
 AIVX      0.00000000  0.00000000
 VJAIP     0.00000000  0.00000000
 VJAIM     0.00000000  0.00000000
 BVATP    -0.08632829 -0.08632829
 BVATM    -0.01092381 -0.01092381
 BJATP     0.00000000  0.00000000
 BJATM     0.00000000  0.00000000
 BJAIP     0.00000000  0.00000000
 BJAIM     0.00000000  0.00000000
 Summed:  -0.14242063 -0.14242063
 
      Reference energy:          -7.2751580979
      E2 (Non-variational):      -0.1424206340
      E2 (Variational):          -0.1424206314
      Total energy:              -7.4175787293
      Residual norm:              0.0000002456
      Reference weight:           0.95910
 
      Contributions to the CASPT2 correlation energy
      Active & Virtual Only:         -0.1424206340
      One Inactive Excited:           0.0000000000
      Two Inactive Excited:           0.0000000000
 
 
++ Denominators, etc.
----------------------------------------------------------------------------------------------------
 Report on small energy denominators, large coefficients, and large energy contributions.
CASE  SYMM ACTIVE-MIX  NON-ACTIVE INDICES          DENOMINATOR     RHS VALUE       COEFFICIENT     CONTRIBUTION
ATVX     1  Mu1.0001  Se1.015                       0.20912391      0.00001839      0.00012752      0.00000000
ATVX     1  Mu1.0001  Se1.016                       0.26977756      0.00000000     -0.00000000     -0.00000000
--
 
   (Skipping property calculation,
    use PROP keyword to activate)
--
 
  Total CASPT2 energies:
::    CASPT2 Root  1     Total energy:     -7.41757873
 
  A NEW JOBIPH FILE NAMED 'JOBMIX' IS PREPARED.
********************************************************************************
forrtl: warning (528): IEEE_UNDERFLOW is signaling
--- Stop Module: caspt2 at Tue Mar  4 05:38:16 2025 /rc=_RC_ALL_IS_WELL_ ---
*** files: xmldump
    saved to directory /home/grierjones/DDCASPT2/hydrogen_comps/bigrun/H14_chain/H14_0.72
--- Module caspt2 spent 38 minutes 57 seconds ---

>>> EXPORT k = 1

>>> EXPORT i = B

>>> EXPORT j = P

>>> IF (-FILE GMJ_e2_${i}_${j}_${k}_.csv)
(Skipped)

>>> END FOREACH

>>> EXPORT j = M

>>> IF (-FILE GMJ_e2_${i}_${j}_${k}_.csv)
(Skipped)

>>> END FOREACH

>>> END FOREACH

>>> EXPORT i = E

>>> EXPORT j = P

>>> IF (-FILE GMJ_e2_${i}_${j}_${k}_.csv)
(Skipped)

>>> END FOREACH

>>> EXPORT j = M

>>> IF (-FILE GMJ_e2_${i}_${j}_${k}_.csv)
(Skipped)

>>> END FOREACH

>>> END FOREACH

>>> EXPORT i = F

>>> EXPORT j = P

>>> IF (-FILE GMJ_e2_${i}_${j}_${k}_.csv)

>>> COPY /tmp/H14_0.72/GMJ_RHS_F_P_1_.csv /home/grierjones/DDCASPT2/hydrogen_comps/bigrun/H14_chain/H14_0.72/GMJ_RHS_F_P_1_.csv

>>> COPY /tmp/H14_0.72/GMJ_IVECW_F_P_1_.csv /home/grierjones/DDCASPT2/hydrogen_comps/bigrun/H14_chain/H14_0.72/GMJ_IVECW_F_P_1_.csv

>>> COPY /tmp/H14_0.72/GMJ_IVECX_F_P_1_.csv /home/grierjones/DDCASPT2/hydrogen_comps/bigrun/H14_chain/H14_0.72/GMJ_IVECX_F_P_1_.csv

>>> COPY /tmp/H14_0.72/GMJ_IVECC2_F_P_1_.csv /home/grierjones/DDCASPT2/hydrogen_comps/bigrun/H14_chain/H14_0.72/GMJ_IVECC2_F_P_1_.csv

>>> COPY /tmp/H14_0.72/GMJ_e2_F_P_1_.csv /home/grierjones/DDCASPT2/hydrogen_comps/bigrun/H14_chain/H14_0.72/GMJ_e2_F_P_1_.csv

>>> END FOREACH

>>> EXPORT j = M

>>> IF (-FILE GMJ_e2_${i}_${j}_${k}_.csv)

>>> COPY /tmp/H14_0.72/GMJ_RHS_F_M_1_.csv /home/grierjones/DDCASPT2/hydrogen_comps/bigrun/H14_chain/H14_0.72/GMJ_RHS_F_M_1_.csv

>>> COPY /tmp/H14_0.72/GMJ_IVECW_F_M_1_.csv /home/grierjones/DDCASPT2/hydrogen_comps/bigrun/H14_chain/H14_0.72/GMJ_IVECW_F_M_1_.csv

>>> COPY /tmp/H14_0.72/GMJ_IVECX_F_M_1_.csv /home/grierjones/DDCASPT2/hydrogen_comps/bigrun/H14_chain/H14_0.72/GMJ_IVECX_F_M_1_.csv

>>> COPY /tmp/H14_0.72/GMJ_IVECC2_F_M_1_.csv /home/grierjones/DDCASPT2/hydrogen_comps/bigrun/H14_chain/H14_0.72/GMJ_IVECC2_F_M_1_.csv

>>> COPY /tmp/H14_0.72/GMJ_e2_F_M_1_.csv /home/grierjones/DDCASPT2/hydrogen_comps/bigrun/H14_chain/H14_0.72/GMJ_e2_F_M_1_.csv

>>> END FOREACH

>>> END FOREACH

>>> EXPORT i = G

>>> EXPORT j = P

>>> IF (-FILE GMJ_e2_${i}_${j}_${k}_.csv)
(Skipped)

>>> END FOREACH

>>> EXPORT j = M

>>> IF (-FILE GMJ_e2_${i}_${j}_${k}_.csv)
(Skipped)

>>> END FOREACH

>>> END FOREACH

>>> EXPORT i = H

>>> EXPORT j = P

>>> IF (-FILE GMJ_e2_${i}_${j}_${k}_.csv)
(Skipped)

>>> END FOREACH

>>> EXPORT j = M

>>> IF (-FILE GMJ_e2_${i}_${j}_${k}_.csv)
(Skipped)

>>> END FOREACH

>>> END FOREACH

>>> END FOREACH

>>> EXPORT j = 1

>>> EXPORT i = A

>>> IF (-FILE GMJ_e2_${i}_${j}_.csv)
(Skipped)

>>> END FOREACH

>>> EXPORT i = C

>>> IF (-FILE GMJ_e2_${i}_${j}_.csv)

>>> COPY /tmp/H14_0.72/GMJ_RHS_C_1_.csv /home/grierjones/DDCASPT2/hydrogen_comps/bigrun/H14_chain/H14_0.72/GMJ_RHS_C_1_.csv

>>> COPY /tmp/H14_0.72/GMJ_IVECW_C_1_.csv /home/grierjones/DDCASPT2/hydrogen_comps/bigrun/H14_chain/H14_0.72/GMJ_IVECW_C_1_.csv

>>> COPY /tmp/H14_0.72/GMJ_IVECX_C_1_.csv /home/grierjones/DDCASPT2/hydrogen_comps/bigrun/H14_chain/H14_0.72/GMJ_IVECX_C_1_.csv

>>> COPY /tmp/H14_0.72/GMJ_IVECC2_C_1_.csv /home/grierjones/DDCASPT2/hydrogen_comps/bigrun/H14_chain/H14_0.72/GMJ_IVECC2_C_1_.csv

>>> COPY /tmp/H14_0.72/GMJ_e2_C_1_.csv /home/grierjones/DDCASPT2/hydrogen_comps/bigrun/H14_chain/H14_0.72/GMJ_e2_C_1_.csv

>>> END FOREACH

>>> EXPORT i = D

>>> IF (-FILE GMJ_e2_${i}_${j}_.csv)
(Skipped)

>>> END FOREACH

>>> END FOREACH

.########################.
.# Non-zero return code #.
.########################.

    Timing: Wall=6077.75 User=6064.72 System=12.23
****************************************
*** WorkDir at /tmp/H14_0.72 cleaned ***
****************************************
