   This run of MOLCAS is using the pymolcas driver

                             OPE
                             OPE          NMOL  CASOP  ENMOLC A   SO
                 OPE        NMOLC        AS  OP EN  MO LC     AS  OP
                OPENM       OL CA        SO  PE NM  OL CA     SOP EN
                OP EN      MO   LC       AS  OP ENMOL  CASO   PENMOL
                OP  EN     MO   LC       AS  OP EN     MO     LC ASO
               OP   E  NMOL  C  AS       OP  EN MO     LC     AS  OP
               OP  E   NMO   LC AS        OPEN  MO     LCASOP EN   M
               O  PEN   MO  LCA  SO
            OPE   NMO   L   CAS    OP
        OPENMOL  CASOP     ENMOL   CASOPE
     OPENMOLCA   SOPENMOLCASOPEN   MOLCASOPE
    OPENMOLCAS   OP           EN   MOL    CAS
    OPENMOLCAS       OP  ENM        O     LCA
    OPENMOLCAS    OPEN  MOLCASO     P  E  NMO
    OPENMOLCAS     OP               E  N  MOL
    OPENMOLCA   SO           PENM   O  L  CAS    OPEN    MO    LCAS
    OPENMOLCA   SOP           ENM   O  L  CAS   OP  EN  MOLC  AS   O
    OPENMOLCA   SOPE           NM      O  LCA   S      OP  EN MO
    OPENMOLC                AS         O  PEN   M      OL  CA  SOPE
    OPENMO        LCASOPE  NMOL        C  ASO   P      ENMOLC     AS
    OPE     NMO      LCA  SO     P     E   NM   OL  CA SO  PE N   MO
          OPENMOLCA            SOPE   NMO        LCAS  O    P  ENMO
     OPENMOLCASOPENMOLCASOPENMOLCASOPENMOLCA
        OPENMOLCASOPENMOLCASOPENMOLCASOPE
            OPENMOLCASOPENMOLCASOPENM
               OPENMOLCASOPENMOLCA        version: 24.02
                   OPENMOLCASO
                       OPE                tag: 126-g611b04c8f

 OpenMolcas is free software; you can redistribute it and/or modify it
 under the terms of the GNU Lesser General Public License version 2.1.
 OpenMolcas is distributed in the hope that it will be useful, but it
 is provided "as is" and without any express or implied warranties.
 For more details see the full text of the license in the file
 LICENSE or in <http://www.gnu.org/licenses/>.

                 Copyright (C) The OpenMolcas Authors
           For the author list and the recommended citation,
                   consult the file CONTRIBUTORS.md

           *************************************************
           * pymolcas version py2.28                       *
           *   build c4a6d18ded8cb6cad61d2372a9abd97c      *
           *   (after the EMIL interpreter by V. Veryazov) *
           *************************************************

configuration info
------------------
Host name: debian (Linux)
C Compiler ID: GNU
C flags: -std=gnu99
Fortran Compiler ID: Intel
Fortran flags: -fpp -i8 -heap-arrays
Definitions: _MOLCAS_;_I8_;_LINUX_
Parallel: OFF (GA=OFF)


   ------------------------------------------------------------------
  |
  |              Project: 1.70
  |       Submitted from: /home/grierjones/DDCASPT2/delta_ML/LiO/1.70
  |         Scratch area: /tmp/1.70
  |      Save outputs to: /home/grierjones/DDCASPT2/delta_ML/LiO/1.70
  |               Molcas: /usr/local
  |
  | Scratch area is empty
  |
  |       MOLCAS_DRIVER = /usr/local/pymolcas
  | MOLCAS_KEEP_WORKDIR = NO
  |  MOLCAS_NEW_WORKDIR = YES
  |       MOLCAS_NPROCS = 1
  |       MOLCAS_SOURCE = /usr/local
  |    MOLCAS_STRUCTURE = 0
  |
   ------------------------------------------------------------------

++ ---------   Input file   ---------

&GATEWAY
coord=1.70.xyz
Basis = ANO-RCC-MB
Group = nosymm
End of Input

&SEWARD
End of Input

&SCF
UHF

&MBPT2
Frozen
0

&RASSCF
Title= RASSCF
FileOrb
/home/grierjones/DDCASPT2/delta_ML/LiO/1.60/1.60.RasOrb

NACTEL
1 0 0
Inactive
5
RAS2
2
Symmetry
1
Spin
2
orblisting
all
ITERation
200 100
CIMX
200
SDAV
500

&CASPT2
Imaginary Shift
0.0
Frozen
0

-- ----------------------------------

--- Start Module: gateway at Thu Apr 25 14:04:11 2024 ---
 
()()()()()()()()()()()()()()()()()()()()()()()()()()()()()()()()()()()()()()()()()()()()()()()()()()

                                              &GATEWAY

                                   only a single process is used
                       available to each process: 2.0 GB of memory, 1 thread?
                                            pid: 115217
()()()()()()()()()()()()()()()()()()()()()()()()()()()()()()()()()()()()()()()()()()()()()()()()()()
 
 
++    Symmetry information:
      ---------------------
 
                    Character Table for C1 
 
                             E  
                    a        1  x, y, xy, Rz, z, xz, Ry, yz, Rx, I
--
 
 
++    Basis set information:
      ----------------------
 
 
      Basis set label: LI.ANO-RCC...2S1P.
 
      Electronic valence basis set:
      ------------------
      Associated Effective Charge   3.000000 au
      Associated Actual Charge      3.000000 au
      Nuclear Model: Point charge
 
      Shell  nPrim  nBasis  Cartesian Spherical Contaminant
         s      14       2        X                  
         p       9       1        X                  
 
 
      Basis set label: O.ANO-RCC...2S1P.
 
      Electronic valence basis set:
      ------------------
      Associated Effective Charge   8.000000 au
      Associated Actual Charge      8.000000 au
      Nuclear Model: Point charge
 
      Shell  nPrim  nBasis  Cartesian Spherical Contaminant
         s      14       2        X                  
         p       9       1        X                  
--
 
 
++    Molecular structure info:
      -------------------------
 
                    ************************************************ 
                    **** Cartesian Coordinates / Bohr, Angstrom **** 
                    ************************************************ 
 
     Center  Label                x              y              z                     x              y              z
        1      LI1              0.000000       0.000000       0.000000              0.000000       0.000000       0.000000
        2      O2               0.000000       0.000000       3.212534              0.000000       0.000000       1.700000
--
 
 
            Nuclear Potential Energy              7.47073710 au
 
--- Stop Module: gateway at Thu Apr 25 14:04:11 2024 /rc=_RC_ALL_IS_WELL_ ---
*** files: xmldump
    saved to directory /home/grierjones/DDCASPT2/delta_ML/LiO/1.70

--- Start Module: seward at Thu Apr 25 14:04:11 2024 ---
 
()()()()()()()()()()()()()()()()()()()()()()()()()()()()()()()()()()()()()()()()()()()()()()()()()()

                                              &SEWARD

                                   only a single process is used
                       available to each process: 2.0 GB of memory, 1 thread?
                                            pid: 115220
()()()()()()()()()()()()()()()()()()()()()()()()()()()()()()()()()()()()()()()()()()()()()()()()()()
 
               SEWARD will generate:
                  Multipole Moment integrals up to order  2
                  Kinetic Energy integrals
                  Nuclear Attraction integrals (point charge)
                  One-Electron Hamiltonian integrals
                  Velocity integrals
                  Relativistic Douglas-Kroll-Hess integrals:
                    - Parametrization         : EXP
                    - DKH order of Hamiltonian: 2
                    - DKH order of Properties : 0
                         - multipole moment operators
                         - electric potential operators
                         - contact operators
                  Orbital angular momentum around ( 0.0000  0.0000  2.2330 )
                  Velocity quadrupole around ( 0.0000  0.0000  2.2330 )
                  Atomic mean-field integrals
                  Two-Electron Repulsion integrals
 
                   Integrals are discarded if absolute value <: 1.00E-14
                   Integral cutoff threshold is set to       <: 1.00E-16
 
            Nuclear Potential Energy              7.47073710 au
 
 
      Basis set specifications :
      Symmetry species         a  
      Basis functions           10
 
 
      Input file to MOLDEN was generated!
 
--- Stop Module: seward at Thu Apr 25 14:04:12 2024 /rc=_RC_ALL_IS_WELL_ ---
*** files: 1.70.GssOrb 1.70.guessorb.h5 1.70.guessorb.molden xmldump
    saved to directory /home/grierjones/DDCASPT2/delta_ML/LiO/1.70

*** symbolic link created: INPORB -> 1.70.GssOrb
--- Start Module: scf at Thu Apr 25 14:04:12 2024 ---
 
()()()()()()()()()()()()()()()()()()()()()()()()()()()()()()()()()()()()()()()()()()()()()()()()()()

                                                &SCF

                                   only a single process is used
                       available to each process: 2.0 GB of memory, 1 thread?
                                            pid: 115223
()()()()()()()()()()()()()()()()()()()()()()()()()()()()()()()()()()()()()()()()()()()()()()()()()()
 
++    Input section:
      --------------
 
      Header of the integral files:
      
       Integrals generated by Gateway/Seward, Thu Apr 25 14:04:12 2024
 
 
      Cartesian coordinates in Angstrom:
      -----------------------------------------------------
      No.  Label        X            Y            Z        
      -----------------------------------------------------
       1   LI1        0.00000000   0.00000000   0.00000000
       2   O2         0.00000000   0.00000000   1.70000000
      -----------------------------------------------------
      Nuclear repulsion energy =    7.47073710
--
 
++    Orbital specifications:
      -----------------------
 
      Symmetry species               1
                                     a
      Frozen orbitals                0
      Occupied orbitals alpha        6
      Occupied orbitals beta         5
      Secondary orbitals alpha       4
      Secondary orbitals beta        5
      Deleted orbitals               0
      Total number of orbitals      10
      Number of basis functions     10
--
 
      Molecular charge                           0.000
 
++    Optimization specifications:
      ----------------------------
 
      SCF Algorithm: Conventional USCF
      D(i)-D(i-1) density differences are used
      Number of density matrices in core                 5
      Maximum number of NDDO SCF iterations            400
      Maximum number of HF SCF iterations              400
      Threshold for SCF energy change             1.00E-09
      Threshold for density matrix                1.00E-04
      Threshold for Fock matrix                   1.50E-04
      Threshold for linear dependence             1.00E-09
      Threshold at which DIIS is turned on        1.50E-01
      Maximum depth in the DIIS procedure                5
      Maximum depth in the BFGS Hessian update          30
      Threshold at which QNR/C2DIIS is turned on  7.50E-02
      Threshold for Norm(delta) (QNR/C2DIIS)      1.00E-03
      All orbitals punched on: UHFORB
--
 
      Input vectors read from INPORB
      Orbital file label: *Guess orbitals
 
 
++ Convergence information
                               UHF SCF        iterations: Energy and convergence statistics
 
Iter     Tot. SCF        One-elec.       Two-elec.     Energy      Max Dij or  Max Fij      DNorm      TNorm      AccCon     Time
         Energy          Energy          Energy        Change      Delta Norm                                                in Sec.
   1   -82.230034385  -131.470897765    41.770126284   0.00E+00    3.54E-01*   7.79E-02*    4.68E+00   2.06E+01   None         0.
   2   -82.293672427  -129.590047870    39.825638348  -6.36E-02*   8.15E-02*   3.09E-02*    1.19E+00   2.01E+01   EDIIS        0.
   3   -82.297500308  -130.077923956    40.309686553  -3.83E-03*   3.31E-02*   7.98E-03*    2.43E-01   2.03E+01   c2DIIS       0.
   4   -82.298108166  -129.911515555    40.142670293  -6.08E-04*   2.74E-02*   5.03E-03*    8.81E-02   2.02E+01   QNRc2DIIS    0.
   5   -82.298259410  -129.948112105    40.179115600  -1.51E-04*   4.42E-02*   1.87E-03*    3.94E-02   2.02E+01   QNRc2DIIS    0.
   6   -82.298369386  -129.931961174    40.162854694  -1.10E-04*   1.64E-02*   1.49E-03*    6.11E-02   2.02E+01   QNRc2DIIS    0.
   7   -82.298386042  -129.918857320    40.149734183  -1.67E-05*   6.61E-03*   1.07E-03*    2.26E-02   2.02E+01   QNRc2DIIS    0.
   8   -82.298389147  -129.914967980    40.145841738  -3.11E-06*   6.52E-04    1.22E-04     9.27E-03   2.02E+01   QNRc2DIIS    0.
   9   -82.298389199  -129.914757322    40.145631029  -5.12E-08*   9.36E-05    1.49E-05     9.28E-04   2.02E+01   QNRc2DIIS    0.
  10   -82.298389200  -129.914783659    40.145657364  -9.68E-10    4.80E-05    6.73E-06     1.42E-04   2.02E+01   QNRc2DIIS    0.
 
       Convergence after  10 Macro Iterations
--
 
 *****************************************************************************************************************************
 *                                                                                                                           *
 *                                             SCF/KS-DFT Program, Final results                                             *
 *                                                                                                                           *
 *                                                                                                                           *
 *                                                                                                                           *
 *                                                       Final Results                                                       *
 *                                                                                                                           *
 *****************************************************************************************************************************
 
::    Total SCF energy                                -82.2983891995
      One-electron energy                            -129.9147836586
      Two-electron energy                              40.1456573640
      Nuclear repulsion energy                          7.4707370951
      Kinetic energy (interpolated)                    83.5925522252
      Virial theorem                                    0.9845182018
      Total spin, S(S+1)                                0.7728093603
      Total spin, S                                     0.5113403780
      Max non-diagonal density matrix element           0.0000391107
      Max non-diagonal Fock matrix element              0.0000069859
 
 
      All orbitals with orbital energies smaller than  E(LUMO)+0.5 are printed
 
++    Molecular orbitals:
      -------------------
 
      Title: UHF orbitals (alpha)

      Molecular orbitals for symmetry species 1: a  
 
          Orbital            1         2         3         4         5         6         7         8         9        10    
          Energy          -20.3362   -2.5053   -1.1480   -0.4883   -0.3822   -0.3822    0.0040    0.0946    0.0946    0.2107
          Occ. No.          1.0000    1.0000    1.0000    1.0000    1.0000    1.0000    0.0000    0.0000    0.0000    0.0000
 
        1 LI1    1s        -0.0002    0.9987   -0.0561    0.1034   -0.0000    0.0000    0.0012   -0.0000    0.0000    0.0405
        2 LI1    2s        -0.0007    0.0119    0.0201   -0.0391    0.0000   -0.0000   -0.8423    0.0000    0.0000    0.6645
        3 LI1    2px        0.0000    0.0000    0.0000   -0.0000    0.1316   -0.0111   -0.0000    0.3323   -0.9600    0.0000
        4 LI1    2py       -0.0000   -0.0000   -0.0000   -0.0000    0.0111    0.1316    0.0000    0.9600    0.3323    0.0000
        5 LI1    2pz       -0.0007   -0.0021    0.0287   -0.0691   -0.0000   -0.0000    0.5477   -0.0000    0.0000    0.9600
        6 O2     1s         1.0001   -0.0006   -0.0037    0.0045   -0.0000    0.0000    0.0010    0.0000   -0.0000   -0.0671
        7 O2     2s         0.0022    0.0110    0.9821    0.0712   -0.0000    0.0000    0.0386    0.0000   -0.0000   -0.6195
        8 O2     2px        0.0000   -0.0000    0.0000    0.0000    0.9596   -0.0810    0.0000   -0.1143    0.3301   -0.0000
        9 O2     2py        0.0000    0.0000   -0.0000   -0.0000    0.0810    0.9596   -0.0000   -0.3301   -0.1143    0.0000
       10 O2     2pz       -0.0001   -0.0071   -0.0295    0.9942   -0.0000    0.0000   -0.0838    0.0000   -0.0000    0.1926
--
 
 
      Input file to MOLDEN was generated!
 
 
++    Static properties:
      ------------------
 
 
      LoProp Charges per center
 

                   LI1      O2    
      Nuclear      3.0000   8.0000
      Electronic  -2.2221  -8.7779
 
      Total        0.7779  -0.7779
--
 
 
      All orbitals with orbital energies smaller than  E(LUMO)+0.5 are printed
 
++    Molecular orbitals:
      -------------------
 
      Title: UHF orbitals (beta)

      Molecular orbitals for symmetry species 1: a  
 
          Orbital            1         2         3         4         5         6         7         8         9        10    
          Energy          -20.2940   -2.5007   -0.9718   -0.3073   -0.3073   -0.0006    0.1031    0.1031    0.2052    0.3407
          Occ. No.          1.0000    1.0000    1.0000    1.0000    1.0000    0.0000    0.0000    0.0000    0.0000    0.0000
 
        1 LI1    1s        -0.0001    0.9992   -0.0580   -0.0000   -0.0000    0.0118    0.0000    0.0000   -0.0010    0.1044
        2 LI1    2s        -0.0003    0.0128    0.0458    0.0000   -0.0000   -0.8486   -0.0000    0.0000   -0.5806    0.3059
        3 LI1    2px        0.0000    0.0000    0.0000    0.2373   -0.0143   -0.0000   -0.6958   -0.7133   -0.0000    0.0000
        4 LI1    2py       -0.0000   -0.0000   -0.0000    0.0143    0.2373    0.0000   -0.7133    0.6958   -0.0000   -0.0000
        5 LI1    2pz       -0.0003   -0.0021    0.0569   -0.0000   -0.0000    0.5262    0.0000   -0.0000   -0.9383    0.2582
        6 O2     1s         1.0000   -0.0006   -0.0038   -0.0000    0.0000    0.0023   -0.0000   -0.0000    0.0639   -0.0222
        7 O2     2s        -0.0002    0.0086    0.9585   -0.0000    0.0000    0.0647   -0.0000   -0.0000    0.6414   -0.1433
        8 O2     2px        0.0000   -0.0000    0.0000    0.9194   -0.0554    0.0000    0.3130    0.3209    0.0000   -0.0000
        9 O2     2py        0.0000    0.0000    0.0000    0.0554    0.9194   -0.0000    0.3209   -0.3130   -0.0000    0.0000
       10 O2     2pz       -0.0002   -0.0030   -0.0767   -0.0000   -0.0000    0.0239    0.0000    0.0000    0.2077    0.9919
--
 
 
++    Molecular charges:
      ------------------
 
      Mulliken charges per centre and basis function type
      ---------------------------------------------------
 
                            LI1                     O2    
                     alpha        beta       alpha        beta
      1s           1.0001      0.9998      1.0001      1.0000
      2s           0.0124      0.0162      0.9828      0.9523
      2px          0.0450      0.1040      0.9550      0.8960
      2pz          0.0173      0.0253      0.9873      0.0064
      2py          0.0450      0.1040      0.9550      0.8960
      Total        1.1199      1.2494      4.8801      3.7506
      Total              2.3693                  8.6307
 
      Charge            0.6307                 -0.6307
 
      Total electronic charge=   11.000000
 
      Total            charge=   -0.000000
--
 
 
      Input file to MOLDEN was generated!
 
 
++    Static properties:
      ------------------
 
 
      LoProp Charges per center
 

                   LI1      O2    
      Nuclear      3.0000   8.0000
      Electronic  -2.2221  -8.7779
 
      Total        0.7779  -0.7779
--
 
 
++    Natural Bond Order analysis
      ---------------------------
      Based on LoProp computed density
      -------------------------------------------------------------------------------------
      Atom A       Atom B       Bond Order
      -------------------------------------------------------------------------------------
      NBO located      0.993 non-bonded electrons on atom LI1       
      The remaining    4.702 electrons are to be considered as diffuse
--
 
 
++    Molecular orbitals:
      -------------------
 
      Title: Natural orbitals

      Molecular orbitals for symmetry species 1: a  
 
          Orbital            1         2         3         4         5         6         7         8         9        10    
          Energy          -20.3038   -2.5057   -1.0672   -0.3435   -0.3435   -0.0870    0.0977    0.0977    0.2118    0.0098
          Occ. No.          2.0000    2.0000    1.9996    1.9956    1.9956    1.0000    0.0044    0.0044    0.0004    0.0000
 
        1 LI1    1s         0.0156    1.0004   -0.0282    0.0000   -0.0000   -0.0964   -0.0000    0.0000    0.0401   -0.0089
        2 LI1    2s        -0.0010    0.0113    0.0339    0.0000   -0.0000    0.0370   -0.0000   -0.0000    0.8027    0.7114
        3 LI1    2px       -0.0000    0.0000    0.0000    0.1840   -0.0156    0.0000    0.3374   -0.9495    0.0000   -0.0000
        4 LI1    2py        0.0000    0.0000    0.0000    0.0156    0.1840   -0.0000    0.9495    0.3374    0.0000    0.0000
        5 LI1    2pz       -0.0014   -0.0036    0.0443   -0.0000   -0.0000    0.0693   -0.0000    0.0000    0.8473   -0.7089
        6 O2     1s         0.9998   -0.0156    0.0154    0.0000   -0.0000   -0.0046    0.0000   -0.0000   -0.0665    0.0109
        7 O2     2s        -0.0180   -0.0204    0.9675   -0.0000    0.0000   -0.1256    0.0000   -0.0000   -0.6302    0.0714
        8 O2     2px       -0.0000   -0.0000    0.0000    0.9402   -0.0795   -0.0000   -0.1336    0.3759   -0.0000    0.0000
        9 O2     2py        0.0000    0.0000    0.0000    0.0795    0.9402   -0.0000   -0.3759   -0.1336    0.0000    0.0000
       10 O2     2pz        0.0013   -0.0006   -0.0814   -0.0000   -0.0000   -0.9910   -0.0000   -0.0000    0.2061    0.0464
--
 
 
++    Molecular properties:
      ---------------------
 
      Charge (e):
                      =   -0.0000
      Dipole Moment (Debye):
      Origin of the operator (Ang)=    0.0000    0.0000    0.0000
                   X= -2.3602E-13               Y=  2.0471E-13               Z= -5.9592E+00           Total=  5.9592E+00
      Quadrupole Moment (Debye*Ang):
      Origin of the operator (Ang)=    0.0000    0.0000    1.1817
                  XX= -1.0189E+01              XY=  1.0759E-13              XZ=  2.9970E-13              YY= -1.0189E+01
                  YZ= -1.2446E-13              ZZ= -2.2432E+00
      In traceless form (Debye*Ang)
                  XX= -3.9727E+00              XY=  1.6139E-13              XZ=  4.4955E-13              YY= -3.9727E+00
                  YZ= -1.8669E-13              ZZ=  7.9453E+00
--
 
 
      Input file to MOLDEN was generated!
 
 ###############################################################################
 ###############################################################################
 ###                                                                         ###
 ###                                                                         ###
 ###    WARNING: RunFile label nBas                                          ###
 ###    was used       87 times                                              ###
 ###                                                                         ###
 ###                                                                         ###
 ###############################################################################
 ###############################################################################
--- Stop Module: scf at Thu Apr 25 14:04:13 2024 /rc=_RC_ALL_IS_WELL_ ---
*** files: 1.70.LprOrb 1.70.LoProp.molden 1.70.scf.molden 1.70.scf.h5 1.70.UhfOrb 1.70.UnaOrb xmldump
    saved to directory /home/grierjones/DDCASPT2/delta_ML/LiO/1.70

*** symbolic link created: INPORB -> 1.70.UnaOrb
--- Start Module: mbpt2 at Thu Apr 25 14:04:13 2024 ---
 
()()()()()()()()()()()()()()()()()()()()()()()()()()()()()()()()()()()()()()()()()()()()()()()()()()

                                               &MBPT2

                                   only a single process is used
                       available to each process: 2.0 GB of memory, 1 thread?
                                            pid: 115227
()()()()()()()()()()()()()()()()()()()()()()()()()()()()()()()()()()()()()()()()()()()()()()()()()()
 
 
 ###############################################################################
 ###############################################################################
 ###                                                                         ###
 ###                                                                         ###
 ###    WARNING: MP2 implementation intended for RHF references only         ###
 ###                                                                         ###
 ###                                                                         ###
 ###############################################################################
 ###############################################################################
MBPT2 WARNING: Reference function according to RunFile:UHF-SCF 
I'll assume you know what you're doing and continue
 
 
WARNING!
Default frozen orbitals as non valence orbitals is overwritten by user input.
Default values:   2
 
 
      Cartesian coordinates in Angstrom:
      -----------------------------------------------------
      No.  Label        X            Y            Z        
      -----------------------------------------------------
       1   LI1        0.00000000   0.00000000   0.00000000
       2   O2         0.00000000   0.00000000   1.70000000
      -----------------------------------------------------
      Nuclear repulsion energy =    7.47073710
 
      Contents of RUNFILE file:
      -------------------------
 
      Symmetry species                           1
                                                 a
      Number of basis functions                 10
      Frozen occupied orbitals                   0
      Active occupied orbitals                   6
      Active external orbitals                   4
      Deleted external orbitals                  0
 
 
      Energies of the active occupied orbitals
 
      symmetry species 1                   -20.336214     -2.505319     -1.147980     -0.488308     -0.382247
                                            -0.382247
 
 
      Energies of the active external orbitals
 
      symmetry species 1                     0.003984      0.094638      0.094638      0.210725
 
 
      ********************************************************************************************************
      *                                               Results                                                *
      ********************************************************************************************************
 
 Conventional algorithm used...

       SCF energy                           =      -82.2983891995 a.u.
       Second-order correlation energy      =       -0.0147197796 a.u.

       Total energy                         =      -82.3131089791 a.u.
       Reference weight ( Cref**2 )         =        0.98730
 
::    Total MBPT2 energy                              -82.3131089791
 
 
       Zeroth-order energy (E0)             =      -43.0138953807 a.u.
 
       Shanks-type energy S1(E)             =      -82.3131144966 a.u.
 
 


       Data processing and timing information:

       Section                                              time(sec)
                                                          CPU  Elapsed

      Input data processing                              0.02      0.04
      Transformation of integrals                        0.00      0.01
      MBPT2 calculations (BJAI)                          0.00      0.00
      Total MBPT2 calculations                           0.02      0.05
 
 
--- Stop Module: mbpt2 at Thu Apr 25 14:04:13 2024 /rc=_RC_ALL_IS_WELL_ ---
*** files: xmldump
    saved to directory /home/grierjones/DDCASPT2/delta_ML/LiO/1.70

*** symbolic link created: INPORB -> 1.70.UnaOrb
--- Start Module: rasscf at Thu Apr 25 14:04:13 2024 ---
 
()()()()()()()()()()()()()()()()()()()()()()()()()()()()()()()()()()()()()()()()()()()()()()()()()()

                                              &RASSCF

                                   only a single process is used
                       available to each process: 2.0 GB of memory, 1 thread?
                                            pid: 115231
()()()()()()()()()()()()()()()()()()()()()()()()()()()()()()()()()()()()()()()()()()()()()()()()()()
 
 
      Header of the ONEINT file:
      --------------------------
      
      Integrals generated by Gateway/Seward, Thu Apr 25 14:04:12 2024
 
 
      OrdInt status: non-squared
 
 
      Cartesian coordinates in Angstrom:
      -----------------------------------------------------
      No.  Label        X            Y            Z        
      -----------------------------------------------------
       1   LI1        0.00000000   0.00000000   0.00000000
       2   O2         0.00000000   0.00000000   1.70000000
      -----------------------------------------------------
      Nuclear repulsion energy =    7.47073710
 
++    Wave function specifications:
      -----------------------------
 
      Number of closed shell electrons          10
      Number of electrons in active shells       1
      Max number of holes in RAS1 space          0
      Max nr of electrons in RAS3 space          0
      Number of inactive orbitals                5
      Number of active orbitals                  2
      Number of secondary orbitals               3
      Spin quantum number                      0.5
      State symmetry                             1
--
 
++    Orbital specifications:
      -----------------------
 
      Symmetry species                           1
                                                 a
      Frozen orbitals                            0
      Inactive orbitals                          5
      Active orbitals                            2
      RAS1 orbitals                              0
      RAS2 orbitals                              2
      RAS3 orbitals                              0
      Secondary orbitals                         3
      Deleted orbitals                           0
      Number of basis functions                 10
--
 
++    CI expansion specifications:
      ----------------------------
 
      Number of CSFs                             2
      Number of determinants                     2
      Number of root(s) required                 1
      Root chosen for geometry opt.              1
      CI root used                               1
         
      highest root included in the CI            1
      max. size of the explicit Hamiltonian      2
--
 
++    Optimization specifications:
      ----------------------------
 
      RASSCF algorithm: Conventional
      Maximum number of macro iterations       200
      Maximum number of SX iterations          100
      Threshold for RASSCF energy            1.000E-08
      Threshold for max MO rotation          1.000E-01
      Threshold for max BLB element          1.000E-04
      Level shift parameter                  5.000E-01
      Make Quasi-Newton update
--
 
      The MO-coefficients are taken from the file:
      /home/grierjones/DDCASPT2/delta_ML/LiO/1.60/1.60.RasOrb                                                                                                                                                                                                         
      Title: RASSCF average (pseudo-natural) orbitals                                      
 
      Total molecular charge    0.00
 
      ************************************************************************************************************************
      *                                                                                                                      *
      *                                            Wave function control section                                             *
      *                                                                                                                      *
      ************************************************************************************************************************
 
 
                                         RASSCF iterations: Energy and convergence statistics
                                         ----------------------------------------------------
 
      Iter CI   SX   CI       RASSCF       Energy    max ROT     max BLB   max BLB  Level Ln srch  Step   QN   Walltime
          iter iter root      energy       change     param      element    value   shift minimum  type update hh:mm:ss
 Nr of preliminary CI iterations:   1
 ###############################################################################
 ###############################################################################
 ###                                                                         ###
 ###                                                                         ###
 ###    WARNING: Problems in orbital optimization.                           ###
 ###                                                                         ###
 ###                                                                         ###
 ###############################################################################
 ###############################################################################
  Warning: In symmetry  1, orbital p=   7 has diagonal density matrix element D(p,p) close to zero. D(p,p)=  4.586856E-28
        1   1    4    1   -82.29671358    0.00E+00  -6.78E-03    3  10 1  6.80E-03*  0.50   0.00    SX    NO    0:00:00
 ###############################################################################
 ###############################################################################
 ###                                                                         ###
 ###                                                                         ###
 ###    WARNING: Problems in orbital optimization.                           ###
 ###                                                                         ###
 ###                                                                         ###
 ###############################################################################
 ###############################################################################
  Warning: In symmetry  1, orbital p=   7 has diagonal density matrix element D(p,p) close to zero. D(p,p)=  4.518189E-28
        2   1    4    1   -82.29686537   -1.52E-04* -3.15E-03    6  10 1  2.51E-03*  0.50   0.00    SX    NO    0:00:00
 ###############################################################################
 ###############################################################################
 ###                                                                         ###
 ###                                                                         ###
 ###    WARNING: Problems in orbital optimization.                           ###
 ###                                                                         ###
 ###                                                                         ###
 ###############################################################################
 ###############################################################################
  Warning: In symmetry  1, orbital p=   7 has diagonal density matrix element D(p,p) close to zero. D(p,p)=  4.485954E-28
        3   1    4    1   -82.29689299   -2.76E-05* -1.55E-03    6  10 1  1.24E-03*  0.50   0.00    SX    NO    0:00:00
 ###############################################################################
 ###############################################################################
 ###                                                                         ###
 ###                                                                         ###
 ###    WARNING: Problems in orbital optimization.                           ###
 ###                                                                         ###
 ###                                                                         ###
 ###############################################################################
 ###############################################################################
  Warning: In symmetry  1, orbital p=   7 has diagonal density matrix element D(p,p) close to zero. D(p,p)=  4.471006E-28
        4   1    3    1   -82.29689948   -6.50E-06* -8.02E-04    6  10 1  6.42E-04*  0.50   0.00    SX    NO    0:00:00
 ###############################################################################
 ###############################################################################
 ###                                                                         ###
 ###                                                                         ###
 ###    WARNING: Problems in orbital optimization.                           ###
 ###                                                                         ###
 ###                                                                         ###
 ###############################################################################
 ###############################################################################
  Warning: In symmetry  1, orbital p=   7 has diagonal density matrix element D(p,p) close to zero. D(p,p)=  4.463965E-28
        5   1    3    1   -82.29690123   -1.74E-06* -9.09E-04    6  10 1  3.44E-04*  0.50   2.14    LS   YES    0:00:00
 ###############################################################################
 ###############################################################################
 ###                                                                         ###
 ###                                                                         ###
 ###    WARNING: Problems in orbital optimization.                           ###
 ###                                                                         ###
 ###                                                                         ###
 ###############################################################################
 ###############################################################################
  Warning: In symmetry  1, orbital p=   7 has diagonal density matrix element D(p,p) close to zero. D(p,p)=  4.456009E-28
        6   1    3    1   -82.29690191   -6.87E-07*  6.79E-05    5   7 1  1.23E-04*  0.50   1.00    QN   YES    0:00:00
 ###############################################################################
 ###############################################################################
 ###                                                                         ###
 ###                                                                         ###
 ###    WARNING: Problems in orbital optimization.                           ###
 ###                                                                         ###
 ###                                                                         ###
 ###############################################################################
 ###############################################################################
  Warning: In symmetry  1, orbital p=   7 has diagonal density matrix element D(p,p) close to zero. D(p,p)=  4.456632E-28
        7   1    3    1   -82.29690195   -3.78E-08* -7.16E-05    3   6 1 -6.88E-05   0.50   2.05    LS   YES    0:00:00
 ###############################################################################
 ###############################################################################
 ###                                                                         ###
 ###                                                                         ###
 ###    WARNING: Problems in orbital optimization.                           ###
 ###                                                                         ###
 ###                                                                         ###
 ###############################################################################
 ###############################################################################
  Warning: In symmetry  1, orbital p=   7 has diagonal density matrix element D(p,p) close to zero. D(p,p)=  4.457289E-28
        8   1    3    1   -82.29690197   -1.35E-08* -2.32E-05    3  10 1  6.16E-05   0.50   1.00    QN   YES    0:00:00
 ###############################################################################
 ###############################################################################
 ###                                                                         ###
 ###                                                                         ###
 ###    WARNING: Problems in orbital optimization.                           ###
 ###                                                                         ###
 ###                                                                         ###
 ###############################################################################
 ###############################################################################
  Warning: In symmetry  1, orbital p=   7 has diagonal density matrix element D(p,p) close to zero. D(p,p)=  4.457413E-28
        9   1    3    1   -82.29690197   -2.66E-09  -1.65E-05    3  10 1  2.44E-05   0.50   1.70    QN   YES    0:00:00
      Convergence after  9 iterations
       10   1    3    1   -82.29690197   -5.69E-10  -1.65E-05    3   8 1 -1.31E-06   0.50   1.70    QN   YES    0:00:00
 
      ************************************************************************************************************************
                                                      Wave function printout:
                       occupation of active orbitals, and spin coupling of open shells (u,d: Spin up or down)
      ************************************************************************************************************************
 
      Note: transformation to natural orbitals
      has been made, which may change the order of the CSFs.
 
      printout of CI-coefficients larger than  0.05 for root  1
      energy=     -82.296902
      conf/sym  11     Coeff  Weight
             1  u0   1.00000 1.00000
 
      Natural orbitals and occupation numbers for root  1
      sym 1:   1.000000   0.000000
 
      ************************************************************************************************************************
      *                                                                                                                      *
      *                                                    Final results                                                     *
      *                                                                                                                      *
      ************************************************************************************************************************
 
 
++    Wave function specifications:
      -----------------------------
 
      Number of closed shell electrons          10
      Number of electrons in active shells       1
      Max number of holes in RAS1 space          0
      Max nr of electrons in RAS3 space          0
      Number of inactive orbitals                5
      Number of active orbitals                  2
      Number of secondary orbitals               3
      Spin quantum number                      0.5
      State symmetry                             1
--
 
++    Orbital specifications:
      -----------------------
 
      Symmetry species                           1
                                                 a
      Frozen orbitals                            0
      Inactive orbitals                          5
      Active orbitals                            2
      RAS1 orbitals                              0
      RAS2 orbitals                              2
      RAS3 orbitals                              0
      Secondary orbitals                         3
      Deleted orbitals                           0
      Number of basis functions                 10
--
 
++    CI expansion specifications:
      ----------------------------
 
      Number of CSFs                             2
      Number of determinants                     2
      Number of root(s) required                 1
      CI root used                               1
      highest root included in the CI            1
      Root passed to geometry opt.               1
--
 
++    Final optimization conditions:
      ------------------------------
 
      Average CI energy                             -82.29690197
      RASSCF energy for state  1                    -82.29690197
      Super-CI energy                                -0.00000000
      RASSCF energy change                           -0.00000000
      Max change in MO coefficients              -2.371E-05
      Max non-diagonal density matrix element    -1.649E-05
      Maximum BLB matrix element                 -1.312E-06
      (orbital pair   3,   8 in symmetry   1)
      Norm of electronic gradient            1.972E-06
--
 
 
      Final state energy(ies):
      ------------------------
 
::    RASSCF root number  1 Total energy:    -82.29690197
 
++    Molecular orbitals:
      -------------------
 
      Pseudonatural active orbitals and approximate occupation numbers
 
 
 
 
      Molecular orbitals for symmetry species 1: a  
 
 
      Orbital                 1         2         3         4         5         6         7         8         9        10
      Energy           -20.3051   -2.5025   -1.0533   -0.3399   -0.3399   -0.0812   -0.0000    0.0036    0.0987    0.2199
      Occ. No.           2.0000    2.0000    2.0000    2.0000    2.0000    1.0000    0.0000    0.0000    0.0000    0.0000
 
     1 LI1    1s        -0.0002    0.9991   -0.0595   -0.0000    0.0000   -0.0962   -0.0000   -0.0014    0.0000   -0.0416
     2 LI1    2s        -0.0005    0.0123    0.0340   -0.0000    0.0000    0.0455   -0.0000    0.8359    0.0000   -0.6715
     3 LI1    2px       -0.0000   -0.0000    0.0000    0.1831   -0.0115    0.0000    0.9972    0.0000   -0.1461   -0.0000
     4 LI1    2py       -0.0000   -0.0000    0.0000    0.0115    0.1831    0.0000    0.1461   -0.0000    0.9972   -0.0000
     5 LI1    2pz       -0.0005   -0.0023    0.0446   -0.0000    0.0000    0.0707   -0.0000   -0.5569   -0.0000   -0.9539
     6 O2     1s         1.0000   -0.0006   -0.0039    0.0000   -0.0000   -0.0050    0.0000   -0.0004    0.0000    0.0673
     7 O2     2s         0.0010    0.0100    0.9678    0.0000   -0.0000   -0.1265    0.0000   -0.0350    0.0000    0.6332
     8 O2     2px        0.0000    0.0000    0.0000    0.9422   -0.0590   -0.0000   -0.3936   -0.0000    0.0577   -0.0000
     9 O2     2py        0.0000   -0.0000   -0.0000    0.0590    0.9422    0.0000   -0.0577    0.0000   -0.3936    0.0000
    10 O2     2pz       -0.0003   -0.0030   -0.0787   -0.0000    0.0000   -0.9898   -0.0000    0.0865    0.0000   -0.2002
--
 
      Von Neumann Entropy (Root   1) =  0.50000
 

      Mulliken population analysis for root number:  1
      -----------------------------------------------
 
 
++    Molecular charges:
      ------------------
 
      Mulliken charges per centre and basis function type
      ---------------------------------------------------
 
                LI1     O2    
      1s       1.9999  2.0001
      2s       0.0297  1.9360
      2px      0.1425  1.8575
      2pz      0.0428  0.9916
      2py      0.1425  1.8575
      Total    2.3574  8.6426
 
      N-E      0.6426 -0.6426
 
      Total electronic charge=   11.000000
 
      Total            charge=   -0.000000
--
 
 

      Expectation values of various properties for root number:  1
      -----------------------------------------------------------
 
 
++    Molecular properties:
      ---------------------
 
      Charge (e):
                      =   -0.0000
      Dipole Moment (Debye):
      Origin of the operator (Ang)=    0.0000    0.0000    0.0000
                   X=  3.6221E-13               Y= -5.8135E-13               Z= -6.0572E+00           Total=  6.0572E+00
      Quadrupole Moment (Debye*Ang):
      Origin of the operator (Ang)=    0.0000    0.0000    1.1817
                  XX= -1.0030E+01              XY=  8.1221E-14              XZ=  1.3830E-13              YY= -1.0030E+01
                  YZ= -5.1101E-13              ZZ= -2.0832E+00
      In traceless form (Debye*Ang)
                  XX= -3.9733E+00              XY=  1.2183E-13              XZ=  2.0745E-13              YY= -3.9733E+00
                  YZ= -7.6651E-13              ZZ=  7.9466E+00
--
 

      Mulliken spin population analysis for root number:  1
      ---------------------------------------------------
 
 
++    Molecular charges:
      ------------------
 
      Mulliken spin population per centre and basis function type
      ---------------------------------------------------
 
                LI1     O2    
      1s       0.0004  0.0000
      2s       0.0061  0.0111
      2px      0.0000  0.0000
      2pz      0.0038  0.9786
      2py      0.0000  0.0000
      Total    0.0103  0.9897
 
      Total electronic spin=    1.000000
--
 
 

      LoProp population analysis for root number:  1
      -----------------------------------------------
 
 
++    LoProp analysis:
      ----------------
 
 
 
      Input file to MOLDEN was generated!
 
 
++    Static properties:
      ------------------
 
 
      LoProp Charges per center
 

                   LI1      O2    
      Nuclear      3.0000   8.0000
      Electronic  -2.2105  -8.7895
 
      Total        0.7895  -0.7895
--
 
 
      Natural Bond Order analysis for root number:  1
 
++    Natural Bond Order analysis
      ---------------------------
      Based on LoProp computed density
      -------------------------------------------------------------------------------------
      Atom A       Atom B       Bond Order
      -------------------------------------------------------------------------------------
      NBO located      0.993 non-bonded electrons on atom LI1       
      The remaining    4.703 electrons are to be considered as diffuse
--
 
--
 
 
      Input file to MOLDEN was generated!
 
 
      Input file to MOLDEN was generated!
 
      Average orbitals are written to the RASORB file
      Natural orbitals for root   1 are written to the RASORB.1 file
      Spin density orbitals for root   1 are written to the SPDORB.1 file
 
--- Stop Module: rasscf at Thu Apr 25 14:04:14 2024 /rc=_RC_ALL_IS_WELL_ ---
*** files: 1.70.LprOrb 1.70.rasscf.molden 1.70.rasscf.molden.1 1.70.LoProp.molden 1.70.RasOrb.1 1.70.RasOrb 1.70.rasscf.h5 1.70.SpdOrb.1 xmldump
    saved to directory /home/grierjones/DDCASPT2/delta_ML/LiO/1.70

*** symbolic link created: INPORB -> 1.70.RasOrb
--- Start Module: caspt2 at Thu Apr 25 14:04:14 2024 ---
 
()()()()()()()()()()()()()()()()()()()()()()()()()()()()()()()()()()()()()()()()()()()()()()()()()()

                                              &CASPT2

                                   only a single process is used
                       available to each process: 2.0 GB of memory, 1 thread?
                                            pid: 115234
()()()()()()()()()()()()()()()()()()()()()()()()()()()()()()()()()()()()()()()()()()()()()()()()()()
 
 ###############################################################################
 ###############################################################################
 ###                                                                         ###
 ###                                                                         ###
 ###    WARNING: User changed nr of frozen orbitals.                         ###
 ###                                                                         ###
 ###                                                                         ###
 ###############################################################################
 ###############################################################################
 
++    Wave function specifications:
      -----------------------------
 
      Number of closed shell electrons          10
      Number of electrons in active shells       1
      Max number of holes in RAS1 space          0
      Max number of electrons in RAS3 space      0
      Number of inactive orbitals                5
      Number of active orbitals                  2
      Number of secondary orbitals               3
      Spin quantum number                      0.5
      State symmetry                             1
      Number of CSFs                             2
      Number of CASSCF root(s) available         1
      CASPT2 state passed to geometry opt.       1
      A file JOBMIX will be created
      This is a CASSCF or RASSCF reference function
--
 
++    Orbital specifications:
      -----------------------
 
      Symmetry species                           1
                                                 a
      Frozen orbitals                            0
      Inactive orbitals                          5
      Active orbitals                            2
      Secondary orbitals                         3
      Deleted orbitals                           0
      Number of basis functions                 10
--
 
++    CASPT2 specifications:
      ----------------------
 
      Type of calculation                        SS-CASPT2
      Fock operator                              state-specific
      IPEA shift                                 0.25
      Real shift                                 0.00
      Imaginary shift                            0.00
      The input orbitals will be transformed to quasi-canonical
--
 
--------------------------------------------------------------------------------
 Estimated memory requirements:
  POLY3 :                   250056
  RHS:                      250476
  SIGMA :                   250480
  PRPCTL:                        0
 Available workspace:    230392719
 
++ CASPT2 computation for group   1
 
********************************************************************************
 Multi-State initialization phase begins for group   1
--------------------------------------------------------------------------------
********************************************************************************
 Compute H0 matrices for state    1
--------------------------------------------------------------------------------
--------------------------------------------------------------------------------
 H0 matrices have been computed.
 
********************************************************************************
  CASPT2 EQUATION SOLUTION
--------------------------------------------------------------------------------
 
  Total nr of CASPT2 parameters:
   Before reduction:         620
   After  reduction:         438
 
 Variance of |WF0>:       0.0299540095
 
 The contributions to the second order correlation energy in atomic units.
-----------------------------------------------------------------------------------------------------------------------------
  IT.      VJTU        VJTI        ATVX        AIVX        VJAI        BVAT        BJAT        BJAI        TOTAL       RNORM  
-----------------------------------------------------------------------------------------------------------------------------
   1    -0.000239   -0.003818    0.000000   -0.001322   -0.012112    0.000000   -0.001037   -0.007369   -0.025898    0.000079
   2    -0.000239   -0.003818    0.000000   -0.001323   -0.012112    0.000000   -0.001038   -0.007370   -0.025902    0.000002
-----------------------------------------------------------------------------------------------------------------------------
 
  FINAL CASPT2 RESULT:
 
      Reference energy:         -82.2969019685
      E2 (Non-variational):      -0.0259014877
      E2 (Variational):          -0.0259014861
      Total energy:             -82.3228034546
      Residual norm:              0.0000000421
      Reference weight:           0.97495
 
      Contributions to the CASPT2 correlation energy
      Active & Virtual Only:          0.0000000004
      One Inactive Excited:          -0.0026011914
      Two Inactive Excited:          -0.0233002967
 
 
++ Denominators, etc.
--------------------------------------------------------------------------------------------------------------
 Report on small energy denominators, large coefficients, and large energy contributions.
CASE  SYMM ACTIVE-MIX  NON-ACTIVE INDICES          DENOMINATOR     RHS VALUE       COEFFICIENT     CONTRIBUTION
VJTIP    1  Mu1.0002  In1.004 In1.004               0.87723888      0.05539738     -0.06314971     -0.00349833
ATVX     1  Mu1.0001  Se1.008                       0.27225365      0.00000064     -0.00004545     -0.00000000
VJAIP    1  Mu1.0002  Se1.010 In1.004 In1.003       1.71178916     -0.04622525      0.02717543     -0.00125619
VJAIP    1  Mu1.0002  Se1.009 In1.005 In1.004       0.87723888      0.05050105     -0.05756819     -0.00290725
VJAIM    1  Mu1.0002  Se1.010 In1.004 In1.003       1.71178916      0.04738693     -0.02788476     -0.00132137
VJAIM    1  Mu1.0002  Se1.009 In1.005 In1.004       0.87723888      0.07339324     -0.08366392     -0.00614037
BJAIP    1  Se1.009 In1.003 Se1.010 In1.005         1.71178916     -0.04622525      0.02718895     -0.00125682
BJAIP    1  Se1.009 In1.005 Se1.009 In1.005         0.87723888      0.05539738     -0.06314971     -0.00349833
BJAIM    1  Se1.009 In1.003 Se1.009 In1.005         1.71178916      0.04738693     -0.02787778     -0.00132104
--
 
   (Skipping property calculation,
    use PROP keyword to activate)
--
 
  Total CASPT2 energies:
::    CASPT2 Root  1     Total energy:    -82.32280345
 
  A NEW JOBIPH FILE NAMED 'JOBMIX' IS PREPARED.
********************************************************************************
--- Stop Module: caspt2 at Thu Apr 25 14:04:14 2024 /rc=_RC_ALL_IS_WELL_ ---
*** files: xmldump
    saved to directory /home/grierjones/DDCASPT2/delta_ML/LiO/1.70

.##################.
.# Happy landing! #.
.##################.

    Timing: Wall=2.51 User=1.63 System=0.21
************************************
*** WorkDir at /tmp/1.70 removed ***
************************************
