[Molden Format]
[N_Atoms]
                     2
[Atoms] (AU)
LI1         1      3           0.00000000      0.00000000      0.00000000
O2          2      8           0.00000000      0.00000000      3.21253441
[Charge] (Mulliken)
  0.630708358531051     
 -0.630708358531074     
[GTO] (AU)
   1
   s  14
  9.497934400E+03  9.668999974E-05
  1.416811200E+03  6.087099984E-04
  3.214599400E+02  3.101519992E-03
  9.112416300E+01  1.266904997E-02
  2.999989100E+01  4.248012989E-02
  1.101763100E+01  1.150183297E-01
  4.372801000E+00  2.398650094E-01
  1.831256000E+00  3.584300090E-01
  8.022610000E-01  3.048527792E-01
  3.626480000E-01  8.824261976E-02
  1.139950000E-01 -8.445899977E-04
  5.123700000E-02 -7.943959979E-03
  2.246800000E-02 -3.764419990E-03
  7.860000000E-03 -8.868999976E-05
   s  14
  9.497934400E+03 -1.244999993E-05
  1.416811200E+03 -7.838999954E-05
  3.214599400E+02 -4.007099976E-04
  9.112416300E+01 -1.645249990E-03
  2.999989100E+01 -5.634599967E-03
  1.101763100E+01 -1.590780991E-02
  4.372801000E+00 -3.612581979E-02
  1.831256000E+00 -6.459927962E-02
  8.022610000E-01 -1.008321794E-01
  3.626480000E-01 -9.757613942E-02
  1.139950000E-01  2.301215886E-01
  5.123700000E-02  6.102389764E-01
  2.246800000E-02  2.849406083E-01
  7.860000000E-03  4.026899976E-03
   p   9
  1.311950400E+01  1.524940000E-03
  3.077424200E+00  8.314830000E-03
  1.098800500E+00  1.933203000E-02
  4.357784000E-01  4.934293000E-02
  1.802432000E-01  1.623554000E-01
  7.613330000E-02  3.847505400E-01
  3.254650000E-02  4.336100400E-01
  1.401820000E-02  1.287005900E-01
  4.906400000E-03 -1.018520000E-03
 
   2
   s  14
  1.053749500E+05  1.238600013E-04
  1.567924000E+04  5.120100053E-04
  3.534544700E+03  2.152910022E-03
  9.873651600E+02  8.528440089E-03
  3.159787500E+02  3.018049031E-02
  1.116542800E+02  9.099702095E-02
  4.269945100E+01  2.177936423E-01
  1.739559600E+01  3.686245738E-01
  7.438309000E+00  3.366707335E-01
  3.222862000E+00  9.657630101E-02
  1.253877000E+00  2.144520022E-03
  4.951550000E-01  1.194350012E-03
  1.916650000E-01  5.390200056E-04
  6.708300000E-02  2.103400022E-04
   s  14
  1.053749500E+05 -2.815000008E-05
  1.567924000E+04 -1.163000003E-04
  3.534544700E+03 -4.909200013E-04
  9.873651600E+02 -1.946160005E-03
  3.159787500E+02 -7.005300019E-03
  1.116542800E+02 -2.167814006E-02
  4.269945100E+01 -5.641213015E-02
  1.739559600E+01 -1.127053003E-01
  7.438309000E+00 -1.589119704E-01
  3.222862000E+00 -3.355083009E-02
  1.253877000E+00  3.531902810E-01
  4.951550000E-01  5.534199315E-01
  1.916650000E-01  2.301839106E-01
  6.708300000E-02  1.127267003E-02
   p   9
  2.000000000E+02  9.173000030E-04
  4.653336700E+01  7.377140024E-03
  1.462180900E+01  3.483515011E-02
  5.313064000E+00  1.144397004E-01
  2.102525000E+00  2.554966408E-01
  8.502230000E-01  3.722557412E-01
  3.375970000E-01  3.323314911E-01
  1.288920000E-01  1.400847905E-01
  4.511200000E-02  2.395784008E-02
 
[MO]
Sym=     1a  
Ene=   -20.3360
Spin= Alpha
Occup=    1.00000
   1        -0.00018398
   2        -0.00066746
   3         0.00000000
   4        -0.00000000
   5        -0.00073787
   6         1.00005563
   7         0.00221367
   8         0.00000000
   9         0.00000000
  10        -0.00014914
Sym=     1a  
Ene=   -20.2940
Spin= Beta
Occup=    1.00000
   1        -0.00011099
   2        -0.00031584
   3         0.00000000
   4        -0.00000000
   5        -0.00031979
   6         1.00002562
   7        -0.00016912
   8         0.00000000
   9         0.00000000
  10        -0.00018833
Sym=     2a  
Ene=    -2.5053
Spin= Alpha
Occup=    1.00000
   1         0.99866462
   2         0.01191524
   3         0.00000000
   4        -0.00000000
   5        -0.00211018
   6        -0.00059568
   7         0.01101675
   8        -0.00000000
   9         0.00000000
  10        -0.00708895
Sym=     2a  
Ene=    -2.5007
Spin= Beta
Occup=    1.00000
   1         0.99920904
   2         0.01284356
   3         0.00000000
   4        -0.00000000
   5        -0.00208818
   6        -0.00058394
   7         0.00863533
   8        -0.00000000
   9         0.00000000
  10        -0.00295248
Sym=     3a  
Ene=    -1.1480
Spin= Alpha
Occup=    1.00000
   1        -0.05605064
   2         0.02008362
   3         0.00000000
   4        -0.00000000
   5         0.02868226
   6        -0.00370281
   7         0.98207429
   8         0.00000000
   9        -0.00000000
  10        -0.02952419
Sym=     3a  
Ene=    -0.9718
Spin= Beta
Occup=    1.00000
   1        -0.05796194
   2         0.04578645
   3         0.00000000
   4        -0.00000000
   5         0.05690753
   6        -0.00381383
   7         0.95847999
   8         0.00000000
   9         0.00000000
  10        -0.07669749
Sym=     4a  
Ene=    -0.4883
Spin= Alpha
Occup=    1.00000
   1         0.10341019
   2        -0.03911145
   3        -0.00000000
   4        -0.00000000
   5        -0.06910186
   6         0.00448876
   7         0.07116777
   8         0.00000000
   9        -0.00000000
  10         0.99417556
Sym=     4a  
Ene=    -0.3073
Spin= Beta
Occup=    1.00000
   1        -0.00000000
   2         0.00000000
   3         0.23730979
   4         0.01429262
   5        -0.00000000
   6        -0.00000000
   7        -0.00000000
   8         0.91943603
   9         0.05537549
  10        -0.00000000
Sym=     5a  
Ene=    -0.3822
Spin= Alpha
Occup=    1.00000
   1        -0.00000000
   2         0.00000000
   3         0.13156165
   4         0.01110294
   5        -0.00000000
   6        -0.00000000
   7        -0.00000000
   8         0.95959465
   9         0.08098346
  10        -0.00000000
Sym=     5a  
Ene=    -0.3073
Spin= Beta
Occup=    1.00000
   1        -0.00000000
   2        -0.00000000
   3        -0.01429262
   4         0.23730979
   5        -0.00000000
   6         0.00000000
   7         0.00000000
   8        -0.05537549
   9         0.91943603
  10        -0.00000000
Sym=     6a  
Ene=    -0.3822
Spin= Alpha
Occup=    1.00000
   1         0.00000000
   2        -0.00000000
   3        -0.01110294
   4         0.13156165
   5        -0.00000000
   6         0.00000000
   7         0.00000000
   8        -0.08098346
   9         0.95959465
  10         0.00000000
Sym=     6a  
Ene=    -0.0006
Spin= Beta
Occup=    0.00000
   1         0.01182706
   2        -0.84859803
   3        -0.00000000
   4         0.00000000
   5         0.52617422
   6         0.00232516
   7         0.06465901
   8         0.00000000
   9        -0.00000000
  10         0.02391225
Sym=     7a  
Ene=     0.0040
Spin= Alpha
Occup=    0.00000
   1         0.00120851
   2        -0.84226181
   3        -0.00000000
   4         0.00000000
   5         0.54774483
   6         0.00101450
   7         0.03862225
   8         0.00000000
   9        -0.00000000
  10        -0.08382888
Sym=     7a  
Ene=     0.1031
Spin= Beta
Occup=    0.00000
   1         0.00000000
   2        -0.00000000
   3        -0.69576100
   4        -0.71332022
   5         0.00000000
   6        -0.00000000
   7        -0.00000000
   8         0.31304274
   9         0.32094313
  10         0.00000000
Sym=     8a  
Ene=     0.0946
Spin= Alpha
Occup=    0.00000
   1        -0.00000000
   2         0.00000000
   3         0.33232004
   4         0.95997967
   5        -0.00000000
   6         0.00000000
   7         0.00000000
   8        -0.11428375
   9        -0.33013381
  10         0.00000000
Sym=     8a  
Ene=     0.1031
Spin= Beta
Occup=    0.00000
   1         0.00000000
   2         0.00000000
   3        -0.71332022
   4         0.69576100
   5        -0.00000000
   6        -0.00000000
   7        -0.00000000
   8         0.32094313
   9        -0.31304274
  10         0.00000000
Sym=     9a  
Ene=     0.0946
Spin= Alpha
Occup=    0.00000
   1         0.00000000
   2         0.00000000
   3        -0.95997967
   4         0.33232004
   5         0.00000000
   6        -0.00000000
   7        -0.00000000
   8         0.33013381
   9        -0.11428375
  10        -0.00000000
Sym=     9a  
Ene=     0.2052
Spin= Beta
Occup=    0.00000
   1        -0.00097556
   2        -0.58057170
   3        -0.00000000
   4        -0.00000000
   5        -0.93827862
   6         0.06393044
   7         0.64144665
   8         0.00000000
   9        -0.00000000
  10         0.20773781
Sym=    10a  
Ene=     0.2107
Spin= Alpha
Occup=    0.00000
   1         0.04051989
   2         0.66450205
   3         0.00000000
   4         0.00000000
   5         0.95995182
   6        -0.06712099
   7        -0.61949022
   8        -0.00000000
   9         0.00000000
  10         0.19256398
Sym=    10a  
Ene=     0.3407
Spin= Beta
Occup=    0.00000
   1         0.10435797
   2         0.30594089
   3         0.00000000
   4        -0.00000000
   5         0.25819686
   6        -0.02220603
   7        -0.14327515
   8        -0.00000000
   9         0.00000000
  10         0.99186547
