   This run of MOLCAS is using the pymolcas driver

                             OPE
                             OPE          NMOL  CASOP  ENMOLC A   SO
                 OPE        NMOLC        AS  OP EN  MO LC     AS  OP
                OPENM       OL CA        SO  PE NM  OL CA     SOP EN
                OP EN      MO   LC       AS  OP ENMOL  CASO   PENMOL
                OP  EN     MO   LC       AS  OP EN     MO     LC ASO
               OP   E  NMOL  C  AS       OP  EN MO     LC     AS  OP
               OP  E   NMO   LC AS        OPEN  MO     LCASOP EN   M
               O  PEN   MO  LCA  SO
            OPE   NMO   L   CAS    OP
        OPENMOL  CASOP     ENMOL   CASOPE
     OPENMOLCA   SOPENMOLCASOPEN   MOLCASOPE
    OPENMOLCAS   OP           EN   MOL    CAS
    OPENMOLCAS       OP  ENM        O     LCA
    OPENMOLCAS    OPEN  MOLCASO     P  E  NMO
    OPENMOLCAS     OP               E  N  MOL
    OPENMOLCA   SO           PENM   O  L  CAS    OPEN    MO    LCAS
    OPENMOLCA   SOP           ENM   O  L  CAS   OP  EN  MOLC  AS   O
    OPENMOLCA   SOPE           NM      O  LCA   S      OP  EN MO
    OPENMOLC                AS         O  PEN   M      OL  CA  SOPE
    OPENMO        LCASOPE  NMOL        C  ASO   P      ENMOLC     AS
    OPE     NMO      LCA  SO     P     E   NM   OL  CA SO  PE N   MO
          OPENMOLCA            SOPE   NMO        LCAS  O    P  ENMO
     OPENMOLCASOPENMOLCASOPENMOLCASOPENMOLCA
        OPENMOLCASOPENMOLCASOPENMOLCASOPE
            OPENMOLCASOPENMOLCASOPENM
               OPENMOLCASOPENMOLCA        version: 24.02
                   OPENMOLCASO
                       OPE                tag: 126-g611b04c8f

 OpenMolcas is free software; you can redistribute it and/or modify it
 under the terms of the GNU Lesser General Public License version 2.1.
 OpenMolcas is distributed in the hope that it will be useful, but it
 is provided "as is" and without any express or implied warranties.
 For more details see the full text of the license in the file
 LICENSE or in <http://www.gnu.org/licenses/>.

                 Copyright (C) The OpenMolcas Authors
           For the author list and the recommended citation,
                   consult the file CONTRIBUTORS.md

           *************************************************
           * pymolcas version py2.28                       *
           *   build c4a6d18ded8cb6cad61d2372a9abd97c      *
           *   (after the EMIL interpreter by V. Veryazov) *
           *************************************************

configuration info
------------------
Host name: debian (Linux)
C Compiler ID: GNU
C flags: -std=gnu99
Fortran Compiler ID: Intel
Fortran flags: -fpp -i8 -heap-arrays
Definitions: _MOLCAS_;_I8_;_LINUX_
Parallel: OFF (GA=OFF)


   -----------------------------------------------------------------
  |
  |              Project: 2.70
  |       Submitted from: /home/grierjones/DDCASPT2/delta_ML/CF/2.70
  |         Scratch area: /tmp/2.70
  |      Save outputs to: /home/grierjones/DDCASPT2/delta_ML/CF/2.70
  |               Molcas: /usr/local
  |
  | Scratch area is empty
  |
  |       MOLCAS_DRIVER = /usr/local/pymolcas
  | MOLCAS_KEEP_WORKDIR = NO
  |  MOLCAS_NEW_WORKDIR = YES
  |       MOLCAS_NPROCS = 1
  |       MOLCAS_SOURCE = /usr/local
  |    MOLCAS_STRUCTURE = 0
  |
   -----------------------------------------------------------------

++ ---------   Input file   ---------

&GATEWAY
coord=2.70.xyz
Basis = ANO-RCC-MB
Group = nosymm
End of Input

&SEWARD
End of Input

&SCF
UHF

&MBPT2
Frozen
0

&RASSCF
Title= RASSCF
FileOrb
/home/grierjones/DDCASPT2/delta_ML/CF/2.60/2.60.RasOrb

NACTEL
1 0 0
Inactive
7
RAS2
2
Symmetry
1
Spin
2
orblisting
all
ITERation
200 100
CIMX
200
SDAV
500

&CASPT2
Imaginary Shift
0.0
Frozen
0

-- ----------------------------------

--- Start Module: gateway at Thu Apr 25 13:48:28 2024 ---
 
()()()()()()()()()()()()()()()()()()()()()()()()()()()()()()()()()()()()()()()()()()()()()()()()()()

                                              &GATEWAY

                                   only a single process is used
                       available to each process: 2.0 GB of memory, 1 thread?
                                            pid: 104389
()()()()()()()()()()()()()()()()()()()()()()()()()()()()()()()()()()()()()()()()()()()()()()()()()()
 
 
++    Symmetry information:
      ---------------------
 
                    Character Table for C1 
 
                             E  
                    a        1  x, y, xy, Rz, z, xz, Ry, yz, Rx, I
--
 
 
++    Basis set information:
      ----------------------
 
 
      Basis set label: C.ANO-RCC...2S1P.
 
      Electronic valence basis set:
      ------------------
      Associated Effective Charge   6.000000 au
      Associated Actual Charge      6.000000 au
      Nuclear Model: Point charge
 
      Shell  nPrim  nBasis  Cartesian Spherical Contaminant
         s      14       2        X                  
         p       9       1        X                  
 
 
      Basis set label: F.ANO-RCC...2S1P.
 
      Electronic valence basis set:
      ------------------
      Associated Effective Charge   9.000000 au
      Associated Actual Charge      9.000000 au
      Nuclear Model: Point charge
 
      Shell  nPrim  nBasis  Cartesian Spherical Contaminant
         s      14       2        X                  
         p       9       1        X                  
--
 
 
++    Molecular structure info:
      -------------------------
 
                    ************************************************ 
                    **** Cartesian Coordinates / Bohr, Angstrom **** 
                    ************************************************ 
 
     Center  Label                x              y              z                     x              y              z
        1      C1               0.000000       0.000000       0.000000              0.000000       0.000000       0.000000
        2      F2               0.000000       0.000000       5.102261              0.000000       0.000000       2.700000
--
 
 
            Nuclear Potential Energy             10.58354422 au
 
--- Stop Module: gateway at Thu Apr 25 13:48:28 2024 /rc=_RC_ALL_IS_WELL_ ---
*** files: xmldump
    saved to directory /home/grierjones/DDCASPT2/delta_ML/CF/2.70

--- Start Module: seward at Thu Apr 25 13:48:28 2024 ---
 
()()()()()()()()()()()()()()()()()()()()()()()()()()()()()()()()()()()()()()()()()()()()()()()()()()

                                              &SEWARD

                                   only a single process is used
                       available to each process: 2.0 GB of memory, 1 thread?
                                            pid: 104392
()()()()()()()()()()()()()()()()()()()()()()()()()()()()()()()()()()()()()()()()()()()()()()()()()()
 
               SEWARD will generate:
                  Multipole Moment integrals up to order  2
                  Kinetic Energy integrals
                  Nuclear Attraction integrals (point charge)
                  One-Electron Hamiltonian integrals
                  Velocity integrals
                  Relativistic Douglas-Kroll-Hess integrals:
                    - Parametrization         : EXP
                    - DKH order of Hamiltonian: 2
                    - DKH order of Properties : 0
                         - multipole moment operators
                         - electric potential operators
                         - contact operators
                  Orbital angular momentum around ( 0.0000  0.0000  3.1271 )
                  Velocity quadrupole around ( 0.0000  0.0000  3.1271 )
                  Atomic mean-field integrals
                  Two-Electron Repulsion integrals
 
                   Integrals are discarded if absolute value <: 1.00E-14
                   Integral cutoff threshold is set to       <: 1.00E-16
 
            Nuclear Potential Energy             10.58354422 au
 
 
      Basis set specifications :
      Symmetry species         a  
      Basis functions           10
 
 
      Input file to MOLDEN was generated!
 
--- Stop Module: seward at Thu Apr 25 13:48:29 2024 /rc=_RC_ALL_IS_WELL_ ---
*** files: 2.70.GssOrb 2.70.guessorb.h5 2.70.guessorb.molden xmldump
    saved to directory /home/grierjones/DDCASPT2/delta_ML/CF/2.70

*** symbolic link created: INPORB -> 2.70.GssOrb
--- Start Module: scf at Thu Apr 25 13:48:29 2024 ---
 
()()()()()()()()()()()()()()()()()()()()()()()()()()()()()()()()()()()()()()()()()()()()()()()()()()

                                                &SCF

                                   only a single process is used
                       available to each process: 2.0 GB of memory, 1 thread?
                                            pid: 104397
()()()()()()()()()()()()()()()()()()()()()()()()()()()()()()()()()()()()()()()()()()()()()()()()()()
 
++    Input section:
      --------------
 
      Header of the integral files:
      
       Integrals generated by Gateway/Seward, Thu Apr 25 13:48:28 2024
 
 
      Cartesian coordinates in Angstrom:
      -----------------------------------------------------
      No.  Label        X            Y            Z        
      -----------------------------------------------------
       1   C1         0.00000000   0.00000000   0.00000000
       2   F2         0.00000000   0.00000000   2.70000000
      -----------------------------------------------------
      Nuclear repulsion energy =   10.58354422
--
 
++    Orbital specifications:
      -----------------------
 
      Symmetry species               1
                                     a
      Frozen orbitals                0
      Occupied orbitals alpha        8
      Occupied orbitals beta         7
      Secondary orbitals alpha       2
      Secondary orbitals beta        3
      Deleted orbitals               0
      Total number of orbitals      10
      Number of basis functions     10
--
 
      Molecular charge                           0.000
 
++    Optimization specifications:
      ----------------------------
 
      SCF Algorithm: Conventional USCF
      D(i)-D(i-1) density differences are used
      Number of density matrices in core                 5
      Maximum number of NDDO SCF iterations            400
      Maximum number of HF SCF iterations              400
      Threshold for SCF energy change             1.00E-09
      Threshold for density matrix                1.00E-04
      Threshold for Fock matrix                   1.50E-04
      Threshold for linear dependence             1.00E-09
      Threshold at which DIIS is turned on        1.50E-01
      Maximum depth in the DIIS procedure                5
      Maximum depth in the BFGS Hessian update          30
      Threshold at which QNR/C2DIIS is turned on  7.50E-02
      Threshold for Norm(delta) (QNR/C2DIIS)      1.00E-03
      All orbitals punched on: UHFORB
--
 
      Input vectors read from INPORB
      Orbital file label: *Guess orbitals
 
 
++ Convergence information
                               UHF SCF        iterations: Energy and convergence statistics
 
Iter     Tot. SCF        One-elec.       Two-elec.     Energy      Max Dij or  Max Fij      DNorm      TNorm      AccCon     Time
         Energy          Energy          Energy        Change      Delta Norm                                                in Sec.
   1  -136.944322663  -214.684012103    67.156145222   0.00E+00    9.99E-01*   5.88E-02*    5.51E+00   2.74E+01   None         0.
   2  -134.936793559  -204.070422157    58.550084380   2.01E+00*   7.98E-01*   4.18E-02*    3.51E+00   2.52E+01   EDIIS        0.
   3  -136.918268758  -210.954797620    63.452984644  -1.98E+00*   2.33E-01*   6.05E-02*    1.91E+00   2.66E+01   EDIIS        0.
   4  -137.027475502  -213.189470124    65.578450404  -1.09E-01*   4.61E-01*   5.86E-02*    4.42E-01   2.71E+01   EDIIS        0.
   5  -137.053615239  -212.295614507    64.658455050  -2.61E-02*   3.19E-01*   7.61E-02*    5.16E-01   2.69E+01   EDIIS        0.
   6  -137.107696094  -212.171260810    64.480020498  -5.41E-02*   4.86E-01*   9.37E-02*    5.95E-01   2.69E+01   EDIIS        0.
   7  -137.164638747  -211.531663626    63.783480661  -5.69E-02*   2.91E-01*   6.75E-02*    6.41E-01   2.67E+01   EDIIS        0.
   8  -137.185031237  -211.277320391    63.508744936  -2.04E-02*   1.41E-01*   3.46E-02*    4.21E-01   2.67E+01   EDIIS        0.
   9  -137.189366768  -211.194030695    63.421119709  -4.34E-03*   9.52E-03*   2.74E-02*    2.06E-01   2.67E+01   c2DIIS       0.
  10  -137.190403427  -211.151396844    63.377449200  -1.04E-03*   4.95E-03*   1.45E-03*    2.43E-02   2.66E+01   QNRc2DIIS    0.
  11  -137.190410818  -211.151326783    63.377371747  -7.39E-06*   4.42E-03*   8.42E-04*    6.92E-03   2.66E+01   QNRc2DIIS    0.
  12  -137.190413061  -211.151860488    63.377903209  -2.24E-06*   1.21E-03*   1.83E-04*    6.24E-03   2.66E+01   QNRc2DIIS    0.
  13  -137.190413221  -211.152342095    63.378384656  -1.61E-07*   1.36E-04    2.95E-05     1.76E-03   2.66E+01   QNRc2DIIS    0.
  14  -137.190413224  -211.152384593    63.378427151  -2.06E-09*   4.32E-06    1.07E-06     1.98E-04   2.66E+01   QNRc2DIIS    0.
 DIIS_X: Reduction of the subspace dimension due to numerical imbalance of the v
 alues in the B-Matrix
 kOptim=                     5 -> kOptim=                     4
  15  -137.190413224  -211.152385179    63.378427737  -3.07E-12    1.91E-07    9.23E-08     6.16E-06   2.66E+01   QNRc2DIIS    0.
 
       Convergence after  15 Macro Iterations
--
 
 *****************************************************************************************************************************
 *                                                                                                                           *
 *                                             SCF/KS-DFT Program, Final results                                             *
 *                                                                                                                           *
 *                                                                                                                           *
 *                                                                                                                           *
 *                                                       Final Results                                                       *
 *                                                                                                                           *
 *****************************************************************************************************************************
 
::    Total SCF energy                               -137.1904132235
      One-electron energy                            -211.1523851787
      Two-electron energy                              63.3784277371
      Nuclear repulsion energy                         10.5835442181
      Kinetic energy (interpolated)                   138.2261971439
      Virial theorem                                    0.9925066019
      Total spin, S(S+1)                                1.7197170257
      Total spin, S                                     0.9034660757
      Max non-diagonal density matrix element           0.0000001013
      Max non-diagonal Fock matrix element              0.0000000216
 
 
      All orbitals with orbital energies smaller than  E(LUMO)+0.5 are printed
 
++    Molecular orbitals:
      -------------------
 
      Title: UHF orbitals (alpha)

      Molecular orbitals for symmetry species 1: a  
 
          Orbital            1         2         3         4         5         6         7         8         9        10    
          Energy          -26.4027  -11.2728   -1.5001   -0.8017   -0.6914   -0.6913   -0.4166   -0.4156    0.0844    0.0989
          Occ. No.          1.0000    1.0000    1.0000    1.0000    1.0000    1.0000    1.0000    1.0000    0.0000    0.0000
 
        1 C1     1s        -0.0000    1.0000   -0.0003   -0.0001   -0.0000   -0.0000   -0.0000   -0.0004    0.0036    0.0000
        2 C1     2s        -0.0000    0.0000    0.0066    0.9988   -0.0000   -0.0000   -0.0000   -0.0078    0.0786    0.0000
        3 C1     2px       -0.0000    0.0000   -0.0000    0.0000    0.0006   -0.0112    0.9527   -0.0000   -0.0000    0.3044
        4 C1     2py        0.0000   -0.0000   -0.0000    0.0000    0.0017    0.0036   -0.3044    0.0000   -0.0000    0.9528
        5 C1     2pz       -0.0000    0.0000    0.0060   -0.0003    0.0000   -0.0000    0.0000    0.9889    0.1765    0.0000
        6 F2     1s         1.0000   -0.0000    0.0041   -0.0014   -0.0000    0.0000   -0.0000   -0.0038   -0.0008   -0.0000
        7 F2     2s        -0.0042   -0.0002    0.9995   -0.0299   -0.0000    0.0000   -0.0000   -0.0568   -0.0141   -0.0000
        8 F2     2px        0.0000   -0.0000    0.0000   -0.0000    0.3043   -0.9522   -0.0330    0.0000    0.0000   -0.0075
        9 F2     2py       -0.0000   -0.0000    0.0000    0.0000    0.9525    0.3042    0.0105   -0.0000    0.0000   -0.0235
       10 F2     2pz       -0.0000    0.0002    0.0024   -0.0206   -0.0000   -0.0000   -0.0000   -0.0975    0.9999    0.0000
--
 
 
      Input file to MOLDEN was generated!
 
 
++    Static properties:
      ------------------
 
 
      LoProp Charges per center
 

                   C1       F2    
      Nuclear      6.0000   9.0000
      Electronic  -5.9815  -9.0185
 
      Total        0.0185  -0.0185
--
 
 
      All orbitals with orbital energies smaller than  E(LUMO)+0.5 are printed
 
++    Molecular orbitals:
      -------------------
 
      Title: UHF orbitals (beta)

      Molecular orbitals for symmetry species 1: a  
 
          Orbital            1         2         3         4         5         6         7         8         9        10    
          Energy          -26.4440  -11.2260   -1.6735   -0.8255   -0.7354   -0.7350   -0.5640    0.1601    0.2224    0.2244
          Occ. No.          1.0000    1.0000    1.0000    1.0000    1.0000    1.0000    1.0000    0.0000    0.0000    0.0000
 
        1 C1     1s        -0.0000    1.0000   -0.0003    0.0033   -0.0000    0.0000    0.0053    0.0000    0.0000   -0.0003
        2 C1     2s        -0.0001   -0.0049    0.0006   -0.0287    0.0000   -0.0000    1.0016    0.0000    0.0000   -0.0004
        3 C1     2px       -0.0000    0.0000   -0.0000    0.0000   -0.0001   -0.0008   -0.0000    0.3044    0.9528    0.0000
        4 C1     2py        0.0000   -0.0000   -0.0000    0.0000   -0.0004    0.0002   -0.0000    0.9528   -0.3044   -0.0000
        5 C1     2pz       -0.0001    0.0000   -0.0003    0.0011    0.0000    0.0000    0.0055    0.0000    0.0000   -1.0045
        6 F2     1s         1.0000   -0.0000    0.0025    0.0001   -0.0000   -0.0000   -0.0013   -0.0000   -0.0000    0.0038
        7 F2     2s        -0.0025   -0.0001    1.0000    0.0025   -0.0000   -0.0000   -0.0244   -0.0000   -0.0000    0.0521
        8 F2     2px        0.0000   -0.0000    0.0000    0.0000    0.3043    0.9526    0.0000   -0.0068   -0.0210   -0.0000
        9 F2     2py        0.0000   -0.0000    0.0000    0.0000    0.9526   -0.3044   -0.0000   -0.0214    0.0067    0.0000
       10 F2     2pz       -0.0000    0.0001   -0.0019    0.9980   -0.0000    0.0000    0.0872    0.0000    0.0000   -0.0781
--
 
 
++    Molecular charges:
      ------------------
 
      Mulliken charges per centre and basis function type
      ---------------------------------------------------
 
                            C1                      F2    
                     alpha        beta       alpha        beta
      1s           1.0000      1.0000      1.0000      1.0000
      2s           0.9984      1.0000      1.0000      1.0000
      2px          0.9074     -0.0000      1.0000      1.0000
      2pz          0.9829     -0.0001      0.0187      1.0001
      2py          0.0927     -0.0000      1.0000      1.0000
      Total        3.9814      1.9999      4.0186      5.0001
      Total              5.9812                  9.0188
 
      Charge            0.0188                 -0.0188
 
      Total electronic charge=   15.000000
 
      Total            charge=   -0.000000
--
 
 
      Input file to MOLDEN was generated!
 
 
++    Static properties:
      ------------------
 
 
      LoProp Charges per center
 

                   C1       F2    
      Nuclear      6.0000   9.0000
      Electronic  -5.9815  -9.0185
 
      Total        0.0185  -0.0185
--
 
 
++    Natural Bond Order analysis
      ---------------------------
      Based on LoProp computed density
      -------------------------------------------------------------------------------------
      Atom A       Atom B       Bond Order
      -------------------------------------------------------------------------------------
      NBO located      1.000 non-bonded electrons on atom C1        
      NBO located      0.997 non-bonded electrons on atom C1        
      The remaining    5.503 electrons are to be considered as diffuse
--
 
 
++    Molecular orbitals:
      -------------------
 
      Title: Natural orbitals

      Molecular orbitals for symmetry species 1: a  
 
          Orbital            1         2         3         4         5         6         7         8         9        10    
          Energy          -26.4233  -11.2492   -1.5868   -0.6845   -0.7131   -0.7134   -0.2998   -0.0972   -0.1649    0.1295
          Occ. No.          2.0000    2.0000    2.0000    2.0000    2.0000    2.0000    1.1745    1.0000    0.8255    0.0000
 
        1 C1     1s        -0.0000    1.0000   -0.0003   -0.0001    0.0000   -0.0000    0.0026    0.0000   -0.0025    0.0000
        2 C1     2s        -0.0000    0.0000    0.0067    0.9988   -0.0000    0.0000    0.0588    0.0000   -0.0532    0.0000
        3 C1     2px       -0.0000    0.0000   -0.0000   -0.0000   -0.0008    0.0002    0.0000    0.9528    0.0000    0.3044
        4 C1     2py        0.0000    0.0000   -0.0000    0.0000    0.0003    0.0006    0.0000   -0.3044    0.0000    0.9528
        5 C1     2pz       -0.0001    0.0001   -0.0003    0.0028   -0.0000    0.0000   -0.6440    0.0000   -0.7710    0.0000
        6 F2     1s         1.0000   -0.0000    0.0042   -0.0014   -0.0000   -0.0000    0.0024    0.0000    0.0030   -0.0000
        7 F2     2s        -0.0042   -0.0002    0.9998   -0.0301    0.0000   -0.0000    0.0294   -0.0000    0.0434   -0.0000
        8 F2     2px        0.0000    0.0000   -0.0000    0.0000    0.9526    0.3043    0.0000   -0.0209   -0.0000   -0.0071
        9 F2     2py        0.0000    0.0000    0.0000   -0.0000   -0.3044    0.9525    0.0000    0.0067   -0.0000   -0.0223
       10 F2     2pz       -0.0000    0.0002    0.0032   -0.0209    0.0000   -0.0000    0.7175    0.0000   -0.7033    0.0000
--
 
 
++    Molecular properties:
      ---------------------
 
      Charge (e):
                      =   -0.0000
      Dipole Moment (Debye):
      Origin of the operator (Ang)=    0.0000    0.0000    0.0000
                   X=  1.0284E-13               Y= -4.5283E-14               Z= -2.4352E-01           Total=  2.4352E-01
      Quadrupole Moment (Debye*Ang):
      Origin of the operator (Ang)=    0.0000    0.0000    1.6548
                  XX= -1.1239E+01              XY=  5.1815E-01              XZ=  4.1188E-13              YY= -9.7833E+00
                  YZ=  1.9713E-12              ZZ= -1.0357E+01
      In traceless form (Debye*Ang)
                  XX= -1.1694E+00              XY=  7.7723E-01              XZ=  6.1783E-13              YY=  1.0149E+00
                  YZ=  2.9569E-12              ZZ=  1.5447E-01
--
 
 
      Input file to MOLDEN was generated!
 
 ###############################################################################
 ###############################################################################
 ###                                                                         ###
 ###                                                                         ###
 ###    WARNING: RunFile label nBas                                          ###
 ###    was used       87 times                                              ###
 ###                                                                         ###
 ###                                                                         ###
 ###############################################################################
 ###############################################################################
--- Stop Module: scf at Thu Apr 25 13:48:29 2024 /rc=_RC_ALL_IS_WELL_ ---
*** files: 2.70.LprOrb 2.70.LoProp.molden 2.70.scf.molden 2.70.scf.h5 2.70.UhfOrb 2.70.UnaOrb xmldump
    saved to directory /home/grierjones/DDCASPT2/delta_ML/CF/2.70

*** symbolic link created: INPORB -> 2.70.UnaOrb
--- Start Module: mbpt2 at Thu Apr 25 13:48:29 2024 ---
 
()()()()()()()()()()()()()()()()()()()()()()()()()()()()()()()()()()()()()()()()()()()()()()()()()()

                                               &MBPT2

                                   only a single process is used
                       available to each process: 2.0 GB of memory, 1 thread?
                                            pid: 104400
()()()()()()()()()()()()()()()()()()()()()()()()()()()()()()()()()()()()()()()()()()()()()()()()()()
 
 
 ###############################################################################
 ###############################################################################
 ###                                                                         ###
 ###                                                                         ###
 ###    WARNING: MP2 implementation intended for RHF references only         ###
 ###                                                                         ###
 ###                                                                         ###
 ###############################################################################
 ###############################################################################
MBPT2 WARNING: Reference function according to RunFile:UHF-SCF 
I'll assume you know what you're doing and continue
 
 
WARNING!
Default frozen orbitals as non valence orbitals is overwritten by user input.
Default values:   2
 
 
      Cartesian coordinates in Angstrom:
      -----------------------------------------------------
      No.  Label        X            Y            Z        
      -----------------------------------------------------
       1   C1         0.00000000   0.00000000   0.00000000
       2   F2         0.00000000   0.00000000   2.70000000
      -----------------------------------------------------
      Nuclear repulsion energy =   10.58354422
 
      Contents of RUNFILE file:
      -------------------------
 
      Symmetry species                           1
                                                 a
      Number of basis functions                 10
      Frozen occupied orbitals                   0
      Active occupied orbitals                   8
      Active external orbitals                   2
      Deleted external orbitals                  0
 
 
      Energies of the active occupied orbitals
 
      symmetry species 1                   -26.402670    -11.272789     -1.500076     -0.801732     -0.691355
                                            -0.691283     -0.416640     -0.415597
 
 
      Energies of the active external orbitals
 
      symmetry species 1                     0.084397      0.098905
 
 
      ********************************************************************************************************
      *                                               Results                                                *
      ********************************************************************************************************
 
 Conventional algorithm used...

       SCF energy                           =     -137.1904132235 a.u.
       Second-order correlation energy      =       -0.0226572669 a.u.

       Total energy                         =     -137.2130704905 a.u.
       Reference weight ( Cref**2 )         =        0.98884
 
::    Total MBPT2 energy                             -137.2130704905
 
 
       Zeroth-order energy (E0)             =      -73.8007394987 a.u.
 
       Shanks-type energy S1(E)             =     -137.2130785917 a.u.
 
 


       Data processing and timing information:

       Section                                              time(sec)
                                                          CPU  Elapsed

      Input data processing                              0.01      0.05
      Transformation of integrals                        0.00      0.00
      MBPT2 calculations (BJAI)                          0.00      0.00
      Total MBPT2 calculations                           0.01      0.05
 
 
--- Stop Module: mbpt2 at Thu Apr 25 13:48:30 2024 /rc=_RC_ALL_IS_WELL_ ---
*** files: xmldump
    saved to directory /home/grierjones/DDCASPT2/delta_ML/CF/2.70

*** symbolic link created: INPORB -> 2.70.UnaOrb
--- Start Module: rasscf at Thu Apr 25 13:48:30 2024 ---
 
()()()()()()()()()()()()()()()()()()()()()()()()()()()()()()()()()()()()()()()()()()()()()()()()()()

                                              &RASSCF

                                   only a single process is used
                       available to each process: 2.0 GB of memory, 1 thread?
                                            pid: 104403
()()()()()()()()()()()()()()()()()()()()()()()()()()()()()()()()()()()()()()()()()()()()()()()()()()
 
 
      Header of the ONEINT file:
      --------------------------
      
      Integrals generated by Gateway/Seward, Thu Apr 25 13:48:28 2024
 
 
      OrdInt status: non-squared
 
 
      Cartesian coordinates in Angstrom:
      -----------------------------------------------------
      No.  Label        X            Y            Z        
      -----------------------------------------------------
       1   C1         0.00000000   0.00000000   0.00000000
       2   F2         0.00000000   0.00000000   2.70000000
      -----------------------------------------------------
      Nuclear repulsion energy =   10.58354422
 
++    Wave function specifications:
      -----------------------------
 
      Number of closed shell electrons          14
      Number of electrons in active shells       1
      Max number of holes in RAS1 space          0
      Max nr of electrons in RAS3 space          0
      Number of inactive orbitals                7
      Number of active orbitals                  2
      Number of secondary orbitals               1
      Spin quantum number                      0.5
      State symmetry                             1
--
 
++    Orbital specifications:
      -----------------------
 
      Symmetry species                           1
                                                 a
      Frozen orbitals                            0
      Inactive orbitals                          7
      Active orbitals                            2
      RAS1 orbitals                              0
      RAS2 orbitals                              2
      RAS3 orbitals                              0
      Secondary orbitals                         1
      Deleted orbitals                           0
      Number of basis functions                 10
--
 
++    CI expansion specifications:
      ----------------------------
 
      Number of CSFs                             2
      Number of determinants                     2
      Number of root(s) required                 1
      Root chosen for geometry opt.              1
      CI root used                               1
         
      highest root included in the CI            1
      max. size of the explicit Hamiltonian      2
--
 
++    Optimization specifications:
      ----------------------------
 
      RASSCF algorithm: Conventional
      Maximum number of macro iterations       200
      Maximum number of SX iterations          100
      Threshold for RASSCF energy            1.000E-08
      Threshold for max MO rotation          1.000E-01
      Threshold for max BLB element          1.000E-04
      Level shift parameter                  5.000E-01
      Make Quasi-Newton update
--
 
      The MO-coefficients are taken from the file:
      /home/grierjones/DDCASPT2/delta_ML/CF/2.60/2.60.RasOrb                                                                                                                                                                                                          
      Title: RASSCF average (pseudo-natural) orbitals                                      
 
      Total molecular charge    0.00
 
      ************************************************************************************************************************
      *                                                                                                                      *
      *                                            Wave function control section                                             *
      *                                                                                                                      *
      ************************************************************************************************************************
 
 
                                         RASSCF iterations: Energy and convergence statistics
                                         ----------------------------------------------------
 
      Iter CI   SX   CI       RASSCF       Energy    max ROT     max BLB   max BLB  Level Ln srch  Step   QN   Walltime
          iter iter root      energy       change     param      element    value   shift minimum  type update hh:mm:ss
 Nr of preliminary CI iterations:   1
 ###############################################################################
 ###############################################################################
 ###                                                                         ###
 ###                                                                         ###
 ###    WARNING: Problems in orbital optimization.                           ###
 ###                                                                         ###
 ###                                                                         ###
 ###############################################################################
 ###############################################################################
  Warning: In symmetry  1, orbital p=   9 has diagonal density matrix element D(p,p) close to zero. D(p,p)=  4.934996E-20
        1   1    3    1  -137.03375096    0.00E+00   2.11E-03    4  10 1 -5.37E-03*  0.50   0.00    SX    NO    0:00:00
 ###############################################################################
 ###############################################################################
 ###                                                                         ###
 ###                                                                         ###
 ###    WARNING: Problems in orbital optimization.                           ###
 ###                                                                         ###
 ###                                                                         ###
 ###############################################################################
 ###############################################################################
  Warning: In symmetry  1, orbital p=   9 has diagonal density matrix element D(p,p) close to zero. D(p,p)=  6.743493E-20
        2   1    3    1  -137.03377940   -2.84E-05*  1.18E-03    4  10 1 -3.02E-03*  0.50   0.00    SX    NO    0:00:00
 ###############################################################################
 ###############################################################################
 ###                                                                         ###
 ###                                                                         ###
 ###    WARNING: Problems in orbital optimization.                           ###
 ###                                                                         ###
 ###                                                                         ###
 ###############################################################################
 ###############################################################################
  Warning: In symmetry  1, orbital p=   9 has diagonal density matrix element D(p,p) close to zero. D(p,p)=  9.646093E-20
        3   1    3    1  -137.03378890   -9.50E-06*  6.67E-04    4  10 1 -1.70E-03*  0.50   0.00    SX    NO    0:00:00
 ###############################################################################
 ###############################################################################
 ###                                                                         ###
 ###                                                                         ###
 ###    WARNING: Problems in orbital optimization.                           ###
 ###                                                                         ###
 ###                                                                         ###
 ###############################################################################
 ###############################################################################
  Warning: In symmetry  1, orbital p=   9 has diagonal density matrix element D(p,p) close to zero. D(p,p)=  1.417934E-19
        4   1    3    1  -137.03379244   -3.55E-06* -4.85E-04    4  10 1 -9.58E-04*  0.50   0.00    SX    NO    0:00:00
 ###############################################################################
 ###############################################################################
 ###                                                                         ###
 ###                                                                         ###
 ###    WARNING: Problems in orbital optimization.                           ###
 ###                                                                         ###
 ###                                                                         ###
 ###############################################################################
 ###############################################################################
  Warning: In symmetry  1, orbital p=   9 has diagonal density matrix element D(p,p) close to zero. D(p,p)=  2.064966E-19
        5   1    3    1  -137.03379391   -1.47E-06*  7.26E-04    6   9 1 -6.82E-04*  0.50   2.50    LS   YES    0:00:00
 ###############################################################################
 ###############################################################################
 ###                                                                         ###
 ###                                                                         ###
 ###    WARNING: Problems in orbital optimization.                           ###
 ###                                                                         ###
 ###                                                                         ###
 ###############################################################################
 ###############################################################################
  Warning: In symmetry  1, orbital p=   9 has diagonal density matrix element D(p,p) close to zero. D(p,p)=  2.854323E-19
        6   1    3    1  -137.03379499   -1.08E-06* -3.88E-04    6   9 1 -3.46E-04*  0.50   1.30    QN   YES    0:00:00
 ###############################################################################
 ###############################################################################
 ###                                                                         ###
 ###                                                                         ###
 ###    WARNING: Problems in orbital optimization.                           ###
 ###                                                                         ###
 ###                                                                         ###
 ###############################################################################
 ###############################################################################
  Warning: In symmetry  1, orbital p=   9 has diagonal density matrix element D(p,p) close to zero. D(p,p)=  4.693497E-19
        7   1    3    1  -137.03379517   -1.79E-07*  2.77E-04    4  10 1  1.84E-04*  0.50   1.55    QN   YES    0:00:00
 ###############################################################################
 ###############################################################################
 ###                                                                         ###
 ###                                                                         ###
 ###    WARNING: Problems in orbital optimization.                           ###
 ###                                                                         ###
 ###                                                                         ###
 ###############################################################################
 ###############################################################################
  Warning: In symmetry  1, orbital p=   9 has diagonal density matrix element D(p,p) close to zero. D(p,p)=  7.214201E-19
        8   1    3    1  -137.03379524   -7.71E-08* -7.96E-05    4  10 1  1.19E-04*  0.50   1.38    QN   YES    0:00:00
 ###############################################################################
 ###############################################################################
 ###                                                                         ###
 ###                                                                         ###
 ###    WARNING: Problems in orbital optimization.                           ###
 ###                                                                         ###
 ###                                                                         ###
 ###############################################################################
 ###############################################################################
  Warning: In symmetry  1, orbital p=   9 has diagonal density matrix element D(p,p) close to zero. D(p,p)=  1.010908E-18
        9   1    2    1  -137.03379526   -1.51E-08* -2.46E-05    4  10 1  3.02E-05   0.50   1.19    QN   YES    0:00:00
 ###############################################################################
 ###############################################################################
 ###                                                                         ###
 ###                                                                         ###
 ###    WARNING: Problems in orbital optimization.                           ###
 ###                                                                         ###
 ###                                                                         ###
 ###############################################################################
 ###############################################################################
  Warning: In symmetry  1, orbital p=   9 has diagonal density matrix element D(p,p) close to zero. D(p,p)=  1.298431E-18
       10   1    2    1  -137.03379526   -1.05E-09   3.83E-06    3  10 1 -1.02E-05   0.50   1.16    QN   YES    0:00:00
      Convergence after 10 iterations
       11   1    2    1  -137.03379526   -5.97E-11   3.83E-06    3  10 1 -3.21E-06   0.50   1.16    QN   YES    0:00:00
 
      ************************************************************************************************************************
                                                      Wave function printout:
                       occupation of active orbitals, and spin coupling of open shells (u,d: Spin up or down)
      ************************************************************************************************************************
 
      Note: transformation to natural orbitals
      has been made, which may change the order of the CSFs.
 
      printout of CI-coefficients larger than  0.05 for root  1
      energy=    -137.033795
      conf/sym  11     Coeff  Weight
             1  u0   1.00000 1.00000
 
      Natural orbitals and occupation numbers for root  1
      sym 1:   1.000000   0.000000
 
      ************************************************************************************************************************
      *                                                                                                                      *
      *                                                    Final results                                                     *
      *                                                                                                                      *
      ************************************************************************************************************************
 
 
++    Wave function specifications:
      -----------------------------
 
      Number of closed shell electrons          14
      Number of electrons in active shells       1
      Max number of holes in RAS1 space          0
      Max nr of electrons in RAS3 space          0
      Number of inactive orbitals                7
      Number of active orbitals                  2
      Number of secondary orbitals               1
      Spin quantum number                      0.5
      State symmetry                             1
--
 
++    Orbital specifications:
      -----------------------
 
      Symmetry species                           1
                                                 a
      Frozen orbitals                            0
      Inactive orbitals                          7
      Active orbitals                            2
      RAS1 orbitals                              0
      RAS2 orbitals                              2
      RAS3 orbitals                              0
      Secondary orbitals                         1
      Deleted orbitals                           0
      Number of basis functions                 10
--
 
++    CI expansion specifications:
      ----------------------------
 
      Number of CSFs                             2
      Number of determinants                     2
      Number of root(s) required                 1
      CI root used                               1
      highest root included in the CI            1
      Root passed to geometry opt.               1
--
 
++    Final optimization conditions:
      ------------------------------
 
      Average CI energy                            -137.03379526
      RASSCF energy for state  1                   -137.03379526
      Super-CI energy                                -0.00000000
      RASSCF energy change                           -0.00000000
      Max change in MO coefficients               2.992E-06
      Max non-diagonal density matrix element     3.827E-06
      Maximum BLB matrix element                 -3.214E-06
      (orbital pair   3,  10 in symmetry   1)
      Norm of electronic gradient            3.249E-06
--
 
 
      Final state energy(ies):
      ------------------------
 
::    RASSCF root number  1 Total energy:   -137.03379526
 
++    Molecular orbitals:
      -------------------
 
      Pseudonatural active orbitals and approximate occupation numbers
 
 
 
 
      Molecular orbitals for symmetry species 1: a  
 
 
      Orbital                 1         2         3         4         5         6         7         8         9        10
      Energy           -26.0012  -11.5371   -1.3426   -0.8337   -0.4638   -0.4635   -0.3555   -0.2553   -0.0000   -0.0594
      Occ. No.           2.0000    2.0000    2.0000    2.0000    2.0000    2.0000    2.0000    1.0000    0.0000    0.0000
 
     1 C1     1s        -0.0000    1.0000   -0.0003   -0.0034    0.0000   -0.0000   -0.0034    0.0000    0.0000   -0.0020
     2 C1     2s        -0.0000   -0.0035    0.0185   -0.9957    0.0000    0.0000   -0.0734   -0.0000   -0.0000   -0.0822
     3 C1     2px       -0.0000    0.0000    0.0000    0.0000    0.0106    0.0189    0.0000   -0.6235   -0.7819    0.0000
     4 C1     2py       -0.0000    0.0000    0.0000    0.0000    0.0133   -0.0150    0.0000   -0.7820    0.6234    0.0000
     5 C1     2pz       -0.0000    0.0003    0.0170    0.0313   -0.0000    0.0000    0.4837   -0.0000   -0.0000   -0.8797
     6 F2     1s         1.0000   -0.0000    0.0026    0.0013    0.0000   -0.0000   -0.0019   -0.0000   -0.0000    0.0034
     7 F2     2s        -0.0027   -0.0001    0.9983    0.0406    0.0000   -0.0000   -0.0390    0.0000   -0.0000    0.0593
     8 F2     2px        0.0000   -0.0000    0.0000    0.0000    0.6231    0.7812    0.0000    0.0248    0.0367   -0.0000
     9 F2     2py       -0.0000   -0.0000   -0.0000   -0.0000    0.7815   -0.6229    0.0000    0.0311   -0.0293    0.0000
    10 F2     2pz       -0.0001    0.0000   -0.0076    0.0482    0.0000   -0.0000   -0.8390   -0.0000   -0.0000   -0.5508
--
 
      Von Neumann Entropy (Root   1) =  0.50000
 

      Mulliken population analysis for root number:  1
      -----------------------------------------------
 
 
++    Molecular charges:
      ------------------
 
      Mulliken charges per centre and basis function type
      ---------------------------------------------------
 
                C1      F2    
      1s       2.0000  2.0000
      2s       1.9920  1.9986
      2px      0.3903  1.9984
      2pz      0.5343  1.4751
      2py      0.6127  1.9987
      Total    5.5292  9.4708
 
      N-E      0.4708 -0.4708
 
      Total electronic charge=   15.000000
 
      Total            charge=   -0.000000
--
 
 

      Expectation values of various properties for root number:  1
      -----------------------------------------------------------
 
 
++    Molecular properties:
      ---------------------
 
      Charge (e):
                      =   -0.0000
      Dipole Moment (Debye):
      Origin of the operator (Ang)=    0.0000    0.0000    0.0000
                   X=  5.8466E-14               Y=  1.9063E-14               Z= -5.7231E+00           Total=  5.7231E+00
      Quadrupole Moment (Debye*Ang):
      Origin of the operator (Ang)=    0.0000    0.0000    1.6548
                  XX= -1.0199E+01              XY= -8.6904E-01              XZ= -1.0990E-13              YY= -1.0596E+01
                  YZ= -5.4796E-14              ZZ= -7.1306E+00
      In traceless form (Debye*Ang)
                  XX= -1.3355E+00              XY= -1.3036E+00              XZ= -1.6484E-13              YY= -1.9312E+00
                  YZ= -8.2193E-14              ZZ=  3.2666E+00
--
 

      Mulliken spin population analysis for root number:  1
      ---------------------------------------------------
 
 
++    Molecular charges:
      ------------------
 
      Mulliken spin population per centre and basis function type
      ---------------------------------------------------
 
                C1      F2    
      1s       0.0000  0.0000
      2s       0.0000  0.0000
      2px      0.3884  0.0003
      2pz      0.0000  0.0000
      2py      0.6110  0.0004
      Total    0.9993  0.0007
 
      Total electronic spin=    1.000000
--
 
 

      LoProp population analysis for root number:  1
      -----------------------------------------------
 
 
++    LoProp analysis:
      ----------------
 
 
 
      Input file to MOLDEN was generated!
 
 
++    Static properties:
      ------------------
 
 
      LoProp Charges per center
 

                   C1       F2    
      Nuclear      6.0000   9.0000
      Electronic  -5.5319  -9.4681
 
      Total        0.4681  -0.4681
--
 
 
      Natural Bond Order analysis for root number:  1
 
++    Natural Bond Order analysis
      ---------------------------
      Based on LoProp computed density
      -------------------------------------------------------------------------------------
      Atom A       Atom B       Bond Order
      -------------------------------------------------------------------------------------
      NBO located      1.000 non-bonded electrons on atom C1        
      NBO located      1.011 non-bonded electrons on atom C1        
      The remaining    5.551 electrons are to be considered as diffuse
--
 
--
 
 
      Input file to MOLDEN was generated!
 
 
      Input file to MOLDEN was generated!
 
      Average orbitals are written to the RASORB file
      Natural orbitals for root   1 are written to the RASORB.1 file
      Spin density orbitals for root   1 are written to the SPDORB.1 file
 
--- Stop Module: rasscf at Thu Apr 25 13:48:30 2024 /rc=_RC_ALL_IS_WELL_ ---
*** files: 2.70.LprOrb 2.70.rasscf.molden.1 2.70.rasscf.molden 2.70.LoProp.molden 2.70.RasOrb.1 2.70.RasOrb 2.70.rasscf.h5 2.70.SpdOrb.1 xmldump
    saved to directory /home/grierjones/DDCASPT2/delta_ML/CF/2.70

*** symbolic link created: INPORB -> 2.70.RasOrb
--- Start Module: caspt2 at Thu Apr 25 13:48:30 2024 ---
 
()()()()()()()()()()()()()()()()()()()()()()()()()()()()()()()()()()()()()()()()()()()()()()()()()()

                                              &CASPT2

                                   only a single process is used
                       available to each process: 2.0 GB of memory, 1 thread?
                                            pid: 104407
()()()()()()()()()()()()()()()()()()()()()()()()()()()()()()()()()()()()()()()()()()()()()()()()()()
 
 ###############################################################################
 ###############################################################################
 ###                                                                         ###
 ###                                                                         ###
 ###    WARNING: User changed nr of frozen orbitals.                         ###
 ###                                                                         ###
 ###                                                                         ###
 ###############################################################################
 ###############################################################################
 
++    Wave function specifications:
      -----------------------------
 
      Number of closed shell electrons          14
      Number of electrons in active shells       1
      Max number of holes in RAS1 space          0
      Max number of electrons in RAS3 space      0
      Number of inactive orbitals                7
      Number of active orbitals                  2
      Number of secondary orbitals               1
      Spin quantum number                      0.5
      State symmetry                             1
      Number of CSFs                             2
      Number of CASSCF root(s) available         1
      CASPT2 state passed to geometry opt.       1
      A file JOBMIX will be created
      This is a CASSCF or RASSCF reference function
--
 
++    Orbital specifications:
      -----------------------
 
      Symmetry species                           1
                                                 a
      Frozen orbitals                            0
      Inactive orbitals                          7
      Active orbitals                            2
      Secondary orbitals                         1
      Deleted orbitals                           0
      Number of basis functions                 10
--
 
++    CASPT2 specifications:
      ----------------------
 
      Type of calculation                        SS-CASPT2
      Fock operator                              state-specific
      IPEA shift                                 0.25
      Real shift                                 0.00
      Imaginary shift                            0.00
      The input orbitals will be transformed to quasi-canonical
--
 
--------------------------------------------------------------------------------
 Estimated memory requirements:
  POLY3 :                   250056
  RHS:                      250374
  SIGMA :                   250336
  PRPCTL:                        0
 Available workspace:    230392719
 
++ CASPT2 computation for group   1
 
********************************************************************************
 Multi-State initialization phase begins for group   1
--------------------------------------------------------------------------------
********************************************************************************
 Compute H0 matrices for state    1
--------------------------------------------------------------------------------
--------------------------------------------------------------------------------
 H0 matrices have been computed.
 
********************************************************************************
  CASPT2 EQUATION SOLUTION
--------------------------------------------------------------------------------
 
  Total nr of CASPT2 parameters:
   Before reduction:         368
   After  reduction:         267
 
 Variance of |WF0>:       0.0768600813
 
 The contributions to the second order correlation energy in atomic units.
-----------------------------------------------------------------------------------------------------------------------------
  IT.      VJTU        VJTI        ATVX        AIVX        VJAI        BVAT        BJAT        BJAI        TOTAL       RNORM  
-----------------------------------------------------------------------------------------------------------------------------
   1    -0.000002   -0.009080   -0.000000   -0.000447   -0.001847    0.000000    0.000000   -0.085432   -0.096808    0.000002
-----------------------------------------------------------------------------------------------------------------------------
 
  FINAL CASPT2 RESULT:
 
      Reference energy:        -137.0337952605
      E2 (Non-variational):      -0.0968076676
      E2 (Variational):          -0.0968076676
      Total energy:            -137.1306029281
      Residual norm:              0.0000000030
      Reference weight:           0.87235
 
      Contributions to the CASPT2 correlation energy
      Active & Virtual Only:         -0.0000000000
      One Inactive Excited:          -0.0004490470
      Two Inactive Excited:          -0.0963586206
 
 
++ Denominators, etc.
--------------------------------------------------------------------------------------------------------------
 Report on small energy denominators, large coefficients, and large energy contributions.
CASE  SYMM ACTIVE-MIX  NON-ACTIVE INDICES          DENOMINATOR     RHS VALUE       COEFFICIENT     CONTRIBUTION
VJTIP    1  Mu1.0002  In1.004 In1.004               1.60971634     -0.11866421      0.07371747     -0.00874762
VJAIM    1  Mu1.0002  Se1.010 In1.007 In1.006       0.73085427     -0.02600942      0.03558770     -0.00092562
BJAIP    1  Se1.010 In1.004 Se1.010 In1.004         1.54861046      0.08758657     -0.05655816     -0.00495374
BJAIP    1  Se1.010 In1.007 Se1.010 In1.007         0.59228859      0.21614815     -0.36493722     -0.07888051
--
 
   (Skipping property calculation,
    use PROP keyword to activate)
--
 
  Total CASPT2 energies:
::    CASPT2 Root  1     Total energy:   -137.13060293
 
  A NEW JOBIPH FILE NAMED 'JOBMIX' IS PREPARED.
********************************************************************************
--- Stop Module: caspt2 at Thu Apr 25 13:48:30 2024 /rc=_RC_ALL_IS_WELL_ ---
*** files: xmldump
    saved to directory /home/grierjones/DDCASPT2/delta_ML/CF/2.70

.##################.
.# Happy landing! #.
.##################.

    Timing: Wall=2.33 User=1.66 System=0.25
************************************
*** WorkDir at /tmp/2.70 removed ***
************************************
