[Molden Format]
[N_Atoms]
                     2
[Atoms] (AU)
C1          1      6           0.00000000      0.00000000      0.00000000
F2          2      9           0.00000000      0.00000000      5.10226054
[Charge] (Mulliken)
  1.876230947843194E-002
 -1.876230947848434E-002
[GTO] (AU)
   1
   s  14
  5.055750100E+04  1.128874000E-04
  7.524785600E+03  5.295373000E-04
  1.694327600E+03  2.450038300E-03
  4.728227900E+02  1.005398470E-02
  1.517107500E+02  3.545398060E-02
  5.391874600E+01  1.044071086E-01
  2.065931100E+01  2.412894918E-01
  8.383976000E+00  3.834225483E-01
  3.577015000E+00  3.078514393E-01
  1.547118000E+00  6.872442990E-02
  6.130130000E-01  2.224445000E-04
  2.460680000E-01  1.976748900E-03
  9.908700000E-02  2.057859400E-03
  3.468000000E-02  4.182020000E-04
   s  14
  5.055750100E+04 -2.507420000E-05
  7.524785600E+03 -1.175945000E-04
  1.694327600E+03 -5.456275000E-04
  4.728227900E+02 -2.245077100E-03
  1.517107500E+02 -8.043471800E-03
  5.391874600E+01 -2.442588710E-02
  2.065931100E+01 -6.136791180E-02
  8.383976000E+00 -1.177767835E-01
  3.577015000E+00 -1.550487783E-01
  1.547118000E+00 -1.933316860E-02
  6.130130000E-01  3.996930678E-01
  2.460680000E-01  5.589420949E-01
  9.908700000E-02  1.711195023E-01
  3.468000000E-02  7.456244600E-03
   p   9
  8.333315500E+01  1.344656000E-03
  1.955761100E+01  1.023555500E-02
  6.080365000E+00  4.520067100E-02
  2.179317000E+00  1.410756198E-01
  8.651500000E-01  3.047388085E-01
  3.619440000E-01  3.995281011E-01
  1.547400000E-01  2.719163432E-01
  6.542900000E-02  5.857669330E-02
  2.290000000E-02 -1.263813000E-04
 
   2
   s  14
  1.031094600E+05  1.713099991E-04
  1.528100700E+04  7.123999962E-04
  3.441539200E+03  2.990479984E-03
  9.670948300E+02  1.164036994E-02
  3.140353400E+02  3.968642979E-02
  1.134423000E+02  1.128546094E-01
  4.464472700E+01  2.473650687E-01
  1.894287400E+01  3.672702681E-01
  8.532743000E+00  2.896286985E-01
  3.919401000E+00  7.786681959E-02
  1.568157000E+00  4.562139976E-03
  6.232900000E-01  2.468879987E-03
  2.408610000E-01  1.106309994E-03
  8.430100000E-02  1.739699991E-04
   s  14
  1.031094600E+05 -4.044999995E-05
  1.528100700E+04 -1.682299998E-04
  3.441539200E+03 -7.084299991E-04
  9.670948300E+02 -2.767999996E-03
  3.140353400E+02 -9.611379987E-03
  1.134423000E+02 -2.833957996E-02
  4.464472700E+01 -6.839343991E-02
  1.894287400E+01 -1.237379298E-01
  8.532743000E+00 -1.512859698E-01
  3.919401000E+00 -9.099909988E-03
  1.568157000E+00  3.716257695E-01
  6.232900000E-01  5.500214393E-01
  2.408610000E-01  2.092318697E-01
  8.430100000E-02  8.074639989E-03
   p   9
  2.453302900E+02  1.024860004E-03
  5.691900500E+01  8.344290032E-03
  1.760456800E+01  4.078927016E-02
  6.274995000E+00  1.351370605E-01
  2.447030000E+00  2.798830811E-01
  9.950600000E-01  3.597966414E-01
  4.039730000E-01  3.055347412E-01
  1.548100000E-01  1.354703905E-01
  5.418400000E-02  2.804449011E-02
 
[MO]
Sym=     1a  
Ene=   -26.4030
Spin= Alpha
Occup=    1.00000
   1        -0.00000203
   2        -0.00002589
   3        -0.00000000
   4         0.00000000
   5        -0.00002585
   6         0.99999140
   7        -0.00417739
   8         0.00000000
   9        -0.00000000
  10        -0.00001486
Sym=     1a  
Ene=   -26.4440
Spin= Beta
Occup=    1.00000
   1        -0.00000310
   2        -0.00005152
   3        -0.00000000
   4         0.00000000
   5        -0.00007105
   6         0.99999726
   7        -0.00247734
   8         0.00000000
   9         0.00000000
  10        -0.00002458
Sym=     2a  
Ene=   -11.2730
Spin= Alpha
Occup=    1.00000
   1         1.00000085
   2         0.00002958
   3         0.00000000
   4        -0.00000000
   5         0.00004414
   6        -0.00001934
   7        -0.00021794
   8        -0.00000000
   9        -0.00000000
  10         0.00020682
Sym=     2a  
Ene=   -11.2260
Spin= Beta
Occup=    1.00000
   1         0.99998826
   2        -0.00492949
   3         0.00000000
   4        -0.00000000
   5         0.00004452
   6        -0.00001238
   7        -0.00013099
   8        -0.00000000
   9        -0.00000000
  10         0.00010508
Sym=     3a  
Ene=    -1.5001
Spin= Alpha
Occup=    1.00000
   1        -0.00027685
   2         0.00661190
   3        -0.00000000
   4        -0.00000000
   5         0.00600253
   6         0.00414738
   7         0.99948276
   8         0.00000000
   9         0.00000000
  10         0.00241915
Sym=     3a  
Ene=    -1.6735
Spin= Beta
Occup=    1.00000
   1        -0.00025934
   2         0.00062660
   3        -0.00000000
   4        -0.00000000
   5        -0.00027574
   6         0.00248245
   7         0.99999465
   8         0.00000000
   9         0.00000000
  10        -0.00186877
Sym=     4a  
Ene=    -0.8017
Spin= Alpha
Occup=    1.00000
   1        -0.00007845
   2         0.99884653
   3         0.00000000
   4         0.00000000
   5        -0.00029987
   6        -0.00135638
   7        -0.02986736
   8        -0.00000000
   9         0.00000000
  10        -0.02062141
Sym=     4a  
Ene=    -0.8256
Spin= Beta
Occup=    1.00000
   1         0.00328118
   2        -0.02870811
   3         0.00000000
   4         0.00000000
   5         0.00114294
   6         0.00005377
   7         0.00251386
   8         0.00000000
   9         0.00000000
  10         0.99801757
Sym=     5a  
Ene=    -0.6914
Spin= Alpha
Occup=    1.00000
   1        -0.00000000
   2        -0.00000000
   3         0.00055011
   4         0.00172176
   5         0.00000000
   6        -0.00000000
   7        -0.00000000
   8         0.30433314
   9         0.95252063
  10        -0.00000000
Sym=     5a  
Ene=    -0.7354
Spin= Beta
Occup=    1.00000
   1        -0.00000000
   2         0.00000000
   3        -0.00011990
   4        -0.00037527
   5         0.00000000
   6        -0.00000000
   7        -0.00000000
   8         0.30434891
   9         0.95256998
  10        -0.00000000
Sym=     6a  
Ene=    -0.6913
Spin= Alpha
Occup=    1.00000
   1        -0.00000000
   2        -0.00000000
   3        -0.01122768
   4         0.00358728
   5        -0.00000000
   6         0.00000000
   7         0.00000000
   8        -0.95223905
   9         0.30424318
  10        -0.00000000
Sym=     6a  
Ene=    -0.7350
Spin= Beta
Occup=    1.00000
   1         0.00000000
   2        -0.00000000
   3        -0.00077610
   4         0.00024796
   5         0.00000000
   6        -0.00000000
   7        -0.00000000
   8         0.95257889
   9        -0.30435175
  10         0.00000000
Sym=     7a  
Ene=    -0.4166
Spin= Alpha
Occup=    1.00000
   1        -0.00000000
   2        -0.00000000
   3         0.95274362
   4        -0.30440438
   5         0.00000000
   6        -0.00000000
   7        -0.00000000
   8        -0.03297344
   9         0.01053511
  10        -0.00000000
Sym=     7a  
Ene=    -0.5640
Spin= Beta
Occup=    1.00000
   1         0.00525182
   2         1.00156143
   3        -0.00000000
   4        -0.00000000
   5         0.00554414
   6        -0.00133020
   7        -0.02438898
   8         0.00000000
   9        -0.00000000
  10         0.08724274
Sym=     8a  
Ene=    -0.4156
Spin= Alpha
Occup=    1.00000
   1        -0.00035245
   2        -0.00780432
   3        -0.00000000
   4         0.00000000
   5         0.98888580
   6        -0.00380747
   7        -0.05684770
   8         0.00000000
   9        -0.00000000
  10        -0.09749932
Sym=     8a  
Ene=     0.1601
Spin= Beta
Occup=    0.00000
   1         0.00000000
   2         0.00000000
   3         0.30442550
   4         0.95280970
   5         0.00000000
   6        -0.00000000
   7        -0.00000000
   8        -0.00682938
   9        -0.02137503
  10         0.00000000
Sym=     9a  
Ene=     0.0844
Spin= Alpha
Occup=    0.00000
   1         0.00361644
   2         0.07858294
   3        -0.00000000
   4        -0.00000000
   5         0.17653122
   6        -0.00078359
   7        -0.01413331
   8         0.00000000
   9         0.00000000
  10         0.99991142
Sym=     9a  
Ene=     0.2224
Spin= Beta
Occup=    0.00000
   1         0.00000000
   2         0.00000000
   3         0.95280946
   4        -0.30442542
   5         0.00000000
   6        -0.00000000
   7        -0.00000000
   8        -0.02097429
   9         0.00670135
  10         0.00000000
Sym=    10a  
Ene=     0.0989
Spin= Alpha
Occup=    0.00000
   1         0.00000000
   2         0.00000000
   3         0.30442502
   4         0.95280822
   5         0.00000000
   6        -0.00000000
   7        -0.00000000
   8        -0.00749920
   9        -0.02347147
  10         0.00000000
Sym=    10a  
Ene=     0.2244
Spin= Beta
Occup=    0.00000
   1        -0.00025378
   2        -0.00037364
   3         0.00000000
   4        -0.00000000
   5        -1.00452098
   6         0.00380777
   7         0.05205910
   8        -0.00000000
   9         0.00000000
  10        -0.07814244
