[Molden Format]
[N_Atoms]
                     2
[Atoms] (AU)
B1          1      5           0.00000000      0.00000000      0.00000000
O2          2      8           0.00000000      0.00000000      3.59047964
[Charge] (Mulliken)
  0.479269716213484     
 -0.479269716213517     
[GTO] (AU)
   1
   s  14
  3.336021700E+04  1.039699991E-04
  4.972095200E+03  5.254399956E-04
  1.125641700E+03  2.509059979E-03
  3.164913600E+02  1.031887991E-02
  1.020072600E+02  3.636632969E-02
  3.629587300E+01  1.064607991E-01
  1.397141000E+01  2.403999880E-01
  5.741156000E+00  3.748581168E-01
  2.494268000E+00  3.100066974E-01
  1.114202000E+00  7.922455933E-02
  4.215490000E-01 -4.947589958E-03
  1.696330000E-01 -7.737119935E-03
  6.853500000E-02 -1.501079987E-03
  2.398700000E-02 -1.333299989E-04
   s  14
  3.336021700E+04 -2.030000008E-05
  4.972095200E+03 -1.025700004E-04
  1.125641700E+03 -4.911300020E-04
  3.164913600E+02 -2.026570008E-03
  1.020072600E+02 -7.261010030E-03
  3.629587300E+01 -2.197722009E-02
  1.397141000E+01 -5.408428022E-02
  5.741156000E+00 -1.022402604E-01
  2.494268000E+00 -1.423595206E-01
  1.114202000E+00 -4.658690019E-02
  4.215490000E-01  3.799402916E-01
  1.696330000E-01  5.890463624E-01
  6.853500000E-02  1.749075107E-01
  2.398700000E-02 -1.142030005E-03
   p   9
  5.500000000E+01  1.229800005E-03
  1.336610100E+01  8.827380035E-03
  4.135394000E+00  3.843340015E-02
  1.481256000E+00  1.150031805E-01
  6.021360000E-01  2.733674011E-01
  2.556360000E-01  4.061972116E-01
  1.111510000E-01  3.014967912E-01
  4.764800000E-02  7.684809030E-02
  1.667700000E-02 -8.170000032E-06
 
   2
   s  14
  1.053749500E+05  1.238600013E-04
  1.567924000E+04  5.120100053E-04
  3.534544700E+03  2.152910022E-03
  9.873651600E+02  8.528440089E-03
  3.159787500E+02  3.018049031E-02
  1.116542800E+02  9.099702095E-02
  4.269945100E+01  2.177936423E-01
  1.739559600E+01  3.686245738E-01
  7.438309000E+00  3.366707335E-01
  3.222862000E+00  9.657630101E-02
  1.253877000E+00  2.144520022E-03
  4.951550000E-01  1.194350012E-03
  1.916650000E-01  5.390200056E-04
  6.708300000E-02  2.103400022E-04
   s  14
  1.053749500E+05 -2.815000008E-05
  1.567924000E+04 -1.163000003E-04
  3.534544700E+03 -4.909200013E-04
  9.873651600E+02 -1.946160005E-03
  3.159787500E+02 -7.005300019E-03
  1.116542800E+02 -2.167814006E-02
  4.269945100E+01 -5.641213015E-02
  1.739559600E+01 -1.127053003E-01
  7.438309000E+00 -1.589119704E-01
  3.222862000E+00 -3.355083009E-02
  1.253877000E+00  3.531902810E-01
  4.951550000E-01  5.534199315E-01
  1.916650000E-01  2.301839106E-01
  6.708300000E-02  1.127267003E-02
   p   9
  2.000000000E+02  9.173000030E-04
  4.653336700E+01  7.377140024E-03
  1.462180900E+01  3.483515011E-02
  5.313064000E+00  1.144397004E-01
  2.102525000E+00  2.554966408E-01
  8.502230000E-01  3.722557412E-01
  3.375970000E-01  3.323314911E-01
  1.288920000E-01  1.400847905E-01
  4.511200000E-02  2.395784008E-02
 
[MO]
Sym=     1a  
Ene=   -20.4600
Spin= Alpha
Occup=    1.00000
   1        -0.00003604
   2        -0.00038410
   3        -0.00000000
   4         0.00000000
   5        -0.00039819
   6         1.00001706
   7         0.00122612
   8         0.00000000
   9        -0.00000000
  10        -0.00044150
Sym=     1a  
Ene=   -20.4360
Spin= Beta
Occup=    1.00000
   1        -0.00003369
   2        -0.00029720
   3        -0.00000000
   4         0.00000000
   5        -0.00032376
   6         1.00001398
   7        -0.00025590
   8         0.00000000
   9         0.00000000
  10        -0.00053364
Sym=     2a  
Ene=    -7.8298
Spin= Alpha
Occup=    1.00000
   1         0.99989697
   2         0.01363337
   3         0.00000000
   4        -0.00000000
   5         0.00040875
   6        -0.00005007
   7         0.00002230
   8        -0.00000000
   9         0.00000000
  10        -0.00035419
Sym=     2a  
Ene=    -7.8290
Spin= Beta
Occup=    1.00000
   1         0.99992076
   2         0.01275456
   3         0.00000000
   4         0.00000000
   5         0.00097273
   6        -0.00004769
   7        -0.00013142
   8        -0.00000000
   9         0.00000000
  10         0.00005252
Sym=     3a  
Ene=    -1.1998
Spin= Alpha
Occup=    1.00000
   1        -0.00954398
   2         0.08082822
   3        -0.00000000
   4        -0.00000000
   5         0.06541849
   6        -0.00417794
   7         0.96116848
   8        -0.00000000
   9        -0.00000000
  10        -0.00287541
Sym=     3a  
Ene=    -1.0901
Spin= Beta
Occup=    1.00000
   1        -0.01153578
   2         0.10971988
   3        -0.00000000
   4        -0.00000000
   5         0.05939659
   6        -0.00302102
   7         0.94999063
   8        -0.00000000
   9        -0.00000000
  10        -0.07299709
Sym=     4a  
Ene=    -0.6152
Spin= Alpha
Occup=    1.00000
   1         0.02217242
   2        -0.79374924
   3        -0.00000000
   4        -0.00000000
   5         0.04937233
   6         0.00996118
   7         0.20466837
   8         0.00000000
   9        -0.00000000
  10         0.46881710
Sym=     4a  
Ene=    -0.5338
Spin= Beta
Occup=    1.00000
   1         0.01247967
   2        -0.98070613
   3        -0.00000000
   4         0.00000000
   5        -0.03497735
   6         0.01534638
   7         0.32152228
   8        -0.00000000
   9         0.00000000
  10         0.09885372
Sym=     5a  
Ene=    -0.4600
Spin= Alpha
Occup=    1.00000
   1         0.01121889
   2         0.49485187
   3         0.00000000
   4        -0.00000000
   5        -0.55384211
   6         0.00981284
   7         0.08915886
   8         0.00000000
   9        -0.00000000
  10         0.66334170
Sym=     5a  
Ene=    -0.4019
Spin= Beta
Occup=    1.00000
   1         0.00000000
   2         0.00000000
   3         0.05236378
   4         0.22324050
   5        -0.00000000
   6        -0.00000000
   7        -0.00000000
   8         0.21523304
   9         0.91759476
  10         0.00000000
Sym=     6a  
Ene=    -0.4460
Spin= Alpha
Occup=    1.00000
   1         0.00000000
   2         0.00000000
   3         0.02123018
   4         0.16224875
   5        -0.00000000
   6         0.00000000
   7         0.00000000
   8         0.12512412
   9         0.95624379
  10         0.00000000
Sym=     6a  
Ene=    -0.4019
Spin= Beta
Occup=    1.00000
   1        -0.00000000
   2        -0.00000000
   3         0.22324050
   4        -0.05236378
   5         0.00000000
   6         0.00000000
   7         0.00000000
   8         0.91759476
   9        -0.21523304
  10        -0.00000000
Sym=     7a  
Ene=    -0.4460
Spin= Alpha
Occup=    1.00000
   1        -0.00000000
   2        -0.00000000
   3         0.16224875
   4        -0.02123018
   5         0.00000000
   6        -0.00000000
   7        -0.00000000
   8         0.95624379
   9        -0.12512412
  10        -0.00000000
Sym=     7a  
Ene=     0.0396
Spin= Beta
Occup=    0.00000
   1         0.00783727
   2         0.15681677
   3         0.00000000
   4         0.00000000
   5        -0.84178264
   6         0.02348282
   7         0.30132172
   8        -0.00000000
   9        -0.00000000
  10         0.42384576
Sym=     8a  
Ene=     0.0435
Spin= Alpha
Occup=    0.00000
   1         0.00000000
   2         0.00000000
   3         0.97494994
   4        -0.20435275
   5         0.00000000
   6        -0.00000000
   7        -0.00000000
   8        -0.29199120
   9         0.06120233
  10         0.00000000
Sym=     8a  
Ene=     0.0426
Spin= Beta
Occup=    0.00000
   1        -0.00000000
   2        -0.00000000
   3         0.95086811
   4        -0.24966850
   5         0.00000000
   6        -0.00000000
   7        -0.00000000
   8        -0.34974858
   9         0.09183314
  10        -0.00000000
Sym=     9a  
Ene=     0.0435
Spin= Alpha
Occup=    0.00000
   1        -0.00000000
   2        -0.00000000
   3         0.20435275
   4         0.97494994
   5        -0.00000000
   6         0.00000000
   7         0.00000000
   8        -0.06120233
   9        -0.29199120
  10        -0.00000000
Sym=     9a  
Ene=     0.0426
Spin= Beta
Occup=    0.00000
   1        -0.00000000
   2        -0.00000000
   3         0.24966850
   4         0.95086811
   5         0.00000000
   6        -0.00000000
   7        -0.00000000
   8        -0.09183314
   9        -0.34974858
  10        -0.00000000
Sym=    10a  
Ene=     0.1921
Spin= Alpha
Occup=    0.00000
   1         0.01578553
   2         0.47675435
   3        -0.00000000
   4         0.00000000
   5         0.92735003
   6        -0.03466951
   7        -0.42210518
   8         0.00000000
   9         0.00000000
  10         0.68555934
Sym=    10a  
Ene=     0.3714
Spin= Beta
Occup=    0.00000
   1         0.02366308
   2         0.33219412
   3        -0.00000000
   4         0.00000000
   5         0.67829657
   6        -0.02500057
   7        -0.23495516
   8         0.00000000
   9        -0.00000000
  10         0.96698797
