[Molden Format]
[N_Atoms]
                     2
[Atoms] (AU)
B1          1      5           0.00000000      0.00000000      0.00000000
O2          2      8           0.00000000      0.00000000      3.59047964
[Charge] (Mulliken)
  0.487478691917871     
 -0.487478691917893     
[GTO] (AU)
   1
   s  14
  3.336021700E+04  1.039699991E-04
  4.972095200E+03  5.254399956E-04
  1.125641700E+03  2.509059979E-03
  3.164913600E+02  1.031887991E-02
  1.020072600E+02  3.636632969E-02
  3.629587300E+01  1.064607991E-01
  1.397141000E+01  2.403999880E-01
  5.741156000E+00  3.748581168E-01
  2.494268000E+00  3.100066974E-01
  1.114202000E+00  7.922455933E-02
  4.215490000E-01 -4.947589958E-03
  1.696330000E-01 -7.737119935E-03
  6.853500000E-02 -1.501079987E-03
  2.398700000E-02 -1.333299989E-04
   s  14
  3.336021700E+04 -2.030000008E-05
  4.972095200E+03 -1.025700004E-04
  1.125641700E+03 -4.911300020E-04
  3.164913600E+02 -2.026570008E-03
  1.020072600E+02 -7.261010030E-03
  3.629587300E+01 -2.197722009E-02
  1.397141000E+01 -5.408428022E-02
  5.741156000E+00 -1.022402604E-01
  2.494268000E+00 -1.423595206E-01
  1.114202000E+00 -4.658690019E-02
  4.215490000E-01  3.799402916E-01
  1.696330000E-01  5.890463624E-01
  6.853500000E-02  1.749075107E-01
  2.398700000E-02 -1.142030005E-03
   p   9
  5.500000000E+01  1.229800005E-03
  1.336610100E+01  8.827380035E-03
  4.135394000E+00  3.843340015E-02
  1.481256000E+00  1.150031805E-01
  6.021360000E-01  2.733674011E-01
  2.556360000E-01  4.061972116E-01
  1.111510000E-01  3.014967912E-01
  4.764800000E-02  7.684809030E-02
  1.667700000E-02 -8.170000032E-06
 
   2
   s  14
  1.053749500E+05  1.238600013E-04
  1.567924000E+04  5.120100053E-04
  3.534544700E+03  2.152910022E-03
  9.873651600E+02  8.528440089E-03
  3.159787500E+02  3.018049031E-02
  1.116542800E+02  9.099702095E-02
  4.269945100E+01  2.177936423E-01
  1.739559600E+01  3.686245738E-01
  7.438309000E+00  3.366707335E-01
  3.222862000E+00  9.657630101E-02
  1.253877000E+00  2.144520022E-03
  4.951550000E-01  1.194350012E-03
  1.916650000E-01  5.390200056E-04
  6.708300000E-02  2.103400022E-04
   s  14
  1.053749500E+05 -2.815000008E-05
  1.567924000E+04 -1.163000003E-04
  3.534544700E+03 -4.909200013E-04
  9.873651600E+02 -1.946160005E-03
  3.159787500E+02 -7.005300019E-03
  1.116542800E+02 -2.167814006E-02
  4.269945100E+01 -5.641213015E-02
  1.739559600E+01 -1.127053003E-01
  7.438309000E+00 -1.589119704E-01
  3.222862000E+00 -3.355083009E-02
  1.253877000E+00  3.531902810E-01
  4.951550000E-01  5.534199315E-01
  1.916650000E-01  2.301839106E-01
  6.708300000E-02  1.127267003E-02
   p   9
  2.000000000E+02  9.173000030E-04
  4.653336700E+01  7.377140024E-03
  1.462180900E+01  3.483515011E-02
  5.313064000E+00  1.144397004E-01
  2.102525000E+00  2.554966408E-01
  8.502230000E-01  3.722557412E-01
  3.375970000E-01  3.323314911E-01
  1.288920000E-01  1.400847905E-01
  4.511200000E-02  2.395784008E-02
 
[MO]
Sym=     1a  
Ene=   -20.4440
Spin= Alpha
Occup=    2.00000
   1        -0.00001538
   2        -0.00192412
   3        -0.00000026
   4        -0.00000007
   5        -0.00014320
   6         1.00003081
   7         0.00044923
   8        -0.00000128
   9        -0.00000034
  10        -0.00033972
Sym=     2a  
Ene=    -7.8331
Spin= Alpha
Occup=    2.00000
   1         0.99994621
   2         0.01115973
   3        -0.00000035
   4        -0.00000009
   5         0.00115434
   6        -0.00003124
   7        -0.00019982
   8        -0.00000160
   9        -0.00000042
  10         0.00027730
Sym=     3a  
Ene=    -1.1035
Spin= Alpha
Occup=    2.00000
   1        -0.00705995
   2        -0.17121557
   3        -0.00003612
   4        -0.00000945
   5         0.10259450
   6        -0.00098828
   7         0.98120963
   8        -0.00017220
   9        -0.00004506
  10        -0.02972425
Sym=     4a  
Ene=    -0.4267
Spin= Alpha
Occup=    2.00000
   1        -0.00001365
   2         0.00082777
   3        -0.18706826
   4        -0.04894471
   5        -0.00007404
   6        -0.00000974
   7        -0.00017537
   8        -0.92393515
   9        -0.24173925
  10        -0.00015902
Sym=     5a  
Ene=    -0.4267
Spin= Alpha
Occup=    2.00000
   1        -0.00000000
   2         0.00000000
   3        -0.04894473
   4         0.18706833
   5        -0.00000000
   6        -0.00000000
   7        -0.00000000
   8        -0.24173934
   9         0.92393550
  10        -0.00000000
Sym=     6a  
Ene=    -0.6033
Spin= Alpha
Occup=    2.00000
   1         0.01396176
   2        -0.95819547
   3        -0.00016097
   4        -0.00004212
   5         0.10750367
   6         0.00901655
   7        -0.02733985
   8        -0.00078046
   9        -0.00020420
  10         0.12098606
Sym=     7a  
Ene=    -0.0006
Spin= Alpha
Occup=    1.00000
   1        -0.01866521
   2        -0.19298882
   3         0.00000878
   4         0.00000230
   5         0.45447357
   6        -0.01130164
   7        -0.19192326
   8         0.00007318
   9         0.00001915
  10        -0.81520085
Sym=     8a  
Ene=     0.0408
Spin= Alpha
Occup=    0.00000
   1        -0.00000000
   2        -0.00000000
   3         0.25091575
   4        -0.95849567
   5        -0.00000000
   6         0.00000000
   7         0.00000000
   8        -0.08282695
   9         0.31639814
  10        -0.00000000
Sym=     9a  
Ene=     0.0408
Spin= Alpha
Occup=    0.00000
   1         0.00000017
   2         0.00000661
   3        -0.95849567
   4        -0.25091575
   5         0.00000378
   6        -0.00000020
   7        -0.00000275
   8         0.31639814
   9         0.08282695
  10         0.00000926
Sym=    10a  
Ene=     0.2394
Spin= Alpha
Occup=    0.00000
   1        -0.01631279
   2        -0.35228288
   3        -0.00000699
   4        -0.00000183
   5        -0.97201154
   6         0.03431404
   7         0.38923382
   8         0.00000133
   9         0.00000035
  10        -0.67062515
