[Molden Format]
[N_Atoms]
                     2
[Atoms] (AU)
BE1         1      4           0.00000000      0.00000000      0.00000000
F2          2      9           0.00000000      0.00000000      1.70075351
[Charge] (Mulliken)
  0.672037155810545     
 -0.672037155810569     
[GTO] (AU)
   1
   s  14
  2.262859900E+04  8.443999941E-05
  3.372318100E+03  4.601499968E-04
  7.603504000E+02  2.285389984E-03
  2.117404800E+02  9.648129932E-03
  6.722346800E+01  3.494469975E-02
  2.337217700E+01  1.061099893E-01
  8.721373000E+00  2.458240383E-01
  3.468091000E+00  3.862428773E-01
  1.452144000E+00  3.105526078E-01
  6.086150000E-01  6.415933955E-02
  2.576860000E-01 -2.265049984E-03
  1.041760000E-01 -5.217499963E-04
  4.242700000E-02 -8.757499938E-04
  1.484900000E-02  1.242199991E-04
   s  14
  2.262859900E+04 -1.586999994E-05
  3.372318100E+03 -8.656999968E-05
  7.603504000E+02 -4.302199984E-04
  2.117404800E+02 -1.825079993E-03
  6.722346800E+01 -6.682749976E-03
  2.337217700E+01 -2.095119992E-02
  8.721373000E+00 -5.200308981E-02
  3.468091000E+00 -9.849176964E-02
  1.452144000E+00 -1.355800695E-01
  6.086150000E-01 -6.429875976E-02
  2.576860000E-01  3.125414989E-01
  1.041760000E-01  6.270468577E-01
  4.242700000E-02  2.110231492E-01
  1.484900000E-02 -4.104669985E-03
   p   9
  3.371018400E+01  1.069960000E-03
  8.057649500E+00  6.828550001E-03
  2.836471400E+00  2.119065000E-02
  1.099965700E+00  5.843696001E-02
  4.433964000E-01  2.020920800E-01
  1.822264000E-01  4.582953101E-01
  7.572410000E-02  3.691239601E-01
  3.168540000E-02  6.611471001E-02
  1.108990000E-02  1.405160000E-03
 
   2
   s  14
  1.031094600E+05  1.713099991E-04
  1.528100700E+04  7.123999962E-04
  3.441539200E+03  2.990479984E-03
  9.670948300E+02  1.164036994E-02
  3.140353400E+02  3.968642979E-02
  1.134423000E+02  1.128546094E-01
  4.464472700E+01  2.473650687E-01
  1.894287400E+01  3.672702681E-01
  8.532743000E+00  2.896286985E-01
  3.919401000E+00  7.786681959E-02
  1.568157000E+00  4.562139976E-03
  6.232900000E-01  2.468879987E-03
  2.408610000E-01  1.106309994E-03
  8.430100000E-02  1.739699991E-04
   s  14
  1.031094600E+05 -4.044999995E-05
  1.528100700E+04 -1.682299998E-04
  3.441539200E+03 -7.084299991E-04
  9.670948300E+02 -2.767999996E-03
  3.140353400E+02 -9.611379987E-03
  1.134423000E+02 -2.833957996E-02
  4.464472700E+01 -6.839343991E-02
  1.894287400E+01 -1.237379298E-01
  8.532743000E+00 -1.512859698E-01
  3.919401000E+00 -9.099909988E-03
  1.568157000E+00  3.716257695E-01
  6.232900000E-01  5.500214393E-01
  2.408610000E-01  2.092318697E-01
  8.430100000E-02  8.074639989E-03
   p   9
  2.453302900E+02  1.024860004E-03
  5.691900500E+01  8.344290032E-03
  1.760456800E+01  4.078927016E-02
  6.274995000E+00  1.351370605E-01
  2.447030000E+00  2.798830811E-01
  9.950600000E-01  3.597966414E-01
  4.039730000E-01  3.055347412E-01
  1.548100000E-01  1.354703905E-01
  5.418400000E-02  2.804449011E-02
 
[MO]
Sym=     1a  
Ene=   -26.2890
Spin= Alpha
Occup=    1.00000
   1        -0.00074888
   2        -0.00099010
   3        -0.00000000
   4        -0.00000000
   5        -0.00048174
   6         1.00010838
   7        -0.00135513
   8        -0.00000000
   9        -0.00000000
  10        -0.00149842
Sym=     1a  
Ene=   -26.2910
Spin= Beta
Occup=    1.00000
   1        -0.00077778
   2        -0.00103612
   3        -0.00000000
   4        -0.00000000
   5        -0.00052835
   6         1.00011603
   7        -0.00119096
   8        -0.00000000
   9        -0.00000000
  10        -0.00150241
Sym=     2a  
Ene=    -4.8641
Spin= Alpha
Occup=    1.00000
   1         0.98178828
   2        -0.00892563
   3        -0.00000000
   4        -0.00000000
   5         0.00079242
   6        -0.00660222
   7         0.04248416
   8        -0.00000000
   9         0.00000000
  10        -0.03676748
Sym=     2a  
Ene=    -4.8456
Spin= Beta
Occup=    1.00000
   1         0.98163731
   2        -0.00934830
   3        -0.00000000
   4        -0.00000000
   5         0.00190710
   6        -0.00668467
   7         0.04244835
   8         0.00000000
   9         0.00000000
  10        -0.03724394
Sym=     3a  
Ene=    -1.7042
Spin= Alpha
Occup=    1.00000
   1        -0.26104825
   2        -0.02205745
   3        -0.00000000
   4        -0.00000000
   5         0.06646693
   6        -0.00110258
   7         0.97638857
   8        -0.00000000
   9         0.00000000
  10        -0.20557299
Sym=     3a  
Ene=    -1.7088
Spin= Beta
Occup=    1.00000
   1        -0.26139340
   2        -0.02653362
   3        -0.00000000
   4        -0.00000000
   5         0.06367566
   6        -0.00067153
   7         0.98051766
   8        -0.00000000
   9        -0.00000000
  10        -0.20275790
Sym=     4a  
Ene=    -0.7731
Spin= Alpha
Occup=    1.00000
   1        -0.00000000
   2        -0.00000000
   3        -0.00644725
   4         0.14941118
   5         0.00000000
   6        -0.00000000
   7        -0.00000000
   8        -0.03996398
   9         0.92614205
  10        -0.00000000
Sym=     4a  
Ene=    -0.7816
Spin= Beta
Occup=    1.00000
   1        -0.00000000
   2        -0.00000000
   3        -0.00561345
   4         0.11174092
   5         0.00000000
   6        -0.00000000
   7        -0.00000000
   8        -0.04752047
   9         0.94593915
  10        -0.00000000
Sym=     5a  
Ene=    -0.7731
Spin= Alpha
Occup=    1.00000
   1         0.00000000
   2        -0.00000000
   3         0.14941118
   4         0.00644725
   5         0.00000000
   6         0.00000000
   7         0.00000000
   8         0.92614205
   9         0.03996398
  10         0.00000000
Sym=     5a  
Ene=    -0.7816
Spin= Beta
Occup=    1.00000
   1         0.00000000
   2         0.00000000
   3         0.11174092
   4         0.00561345
   5        -0.00000000
   6         0.00000000
   7         0.00000000
   8         0.94593915
   9         0.04752047
  10         0.00000000
Sym=     6a  
Ene=    -0.7513
Spin= Alpha
Occup=    1.00000
   1         0.27752618
   2         0.11070068
   3        -0.00000000
   4         0.00000000
   5        -0.10293323
   6         0.00256069
   7         0.15695593
   8        -0.00000000
   9         0.00000000
  10         1.03419896
Sym=     6a  
Ene=    -0.7515
Spin= Beta
Occup=    1.00000
   1         0.27966778
   2         0.11380298
   3        -0.00000000
   4         0.00000000
   5        -0.09732111
   6         0.00179690
   7         0.14913633
   8        -0.00000000
   9         0.00000000
  10         1.03527846
Sym=     7a  
Ene=    -0.3476
Spin= Alpha
Occup=    1.00000
   1        -0.03230051
   2        -0.88722001
   3         0.00000000
   4        -0.00000000
   5         0.49623406
   6         0.00712529
   7         0.12246833
   8        -0.00000000
   9         0.00000000
  10        -0.03899611
Sym=     7a  
Ene=     0.0609
Spin= Beta
Occup=    0.00000
   1        -0.05269468
   2        -0.96299733
   3         0.00000000
   4        -0.00000000
   5         0.38350833
   6         0.02251365
   7         0.22023756
   8        -0.00000000
   9         0.00000000
  10        -0.04917527
Sym=     8a  
Ene=     0.2035
Spin= Alpha
Occup=    0.00000
   1         0.00000000
   2        -0.00000000
   3        -0.22551049
   4        -1.07206810
   5        -0.00000000
   6         0.00000000
   7         0.00000000
   8         0.12405777
   9         0.58976582
  10         0.00000000
Sym=     8a  
Ene=     0.2612
Spin= Beta
Occup=    0.00000
   1         0.00000000
   2        -0.00000000
   3        -0.22877259
   4        -1.07596274
   5        -0.00000000
   6         0.00000000
   7         0.00000000
   8         0.11865200
   9         0.55804382
  10         0.00000000
Sym=     9a  
Ene=     0.2035
Spin= Alpha
Occup=    0.00000
   1        -0.00000000
   2        -0.00000000
   3        -1.07206810
   4         0.22551049
   5         0.00000000
   6         0.00000000
   7         0.00000000
   8         0.58976582
   9        -0.12405777
  10        -0.00000000
Sym=     9a  
Ene=     0.2612
Spin= Beta
Occup=    0.00000
   1        -0.00000000
   2        -0.00000000
   3        -1.07596274
   4         0.22877259
   5        -0.00000000
   6         0.00000000
   7         0.00000000
   8         0.55804382
   9        -0.11865200
  10        -0.00000000
Sym=    10a  
Ene=     0.4279
Spin= Alpha
Occup=    0.00000
   1         0.21448214
   2         0.84370175
   3        -0.00000000
   4        -0.00000000
   5         1.16740165
   6        -0.16314338
   7        -1.06932620
   8         0.00000000
   9         0.00000000
  10         0.11024312
Sym=    10a  
Ene=     0.4612
Spin= Beta
Occup=    0.00000
   1         0.20782674
   2         0.75545108
   3        -0.00000000
   4        -0.00000000
   5         1.20974389
   6        -0.16170142
   7        -1.05084213
   8         0.00000000
   9         0.00000000
  10         0.10067891
