   This run of MOLCAS is using the pymolcas driver

                             OPE
                             OPE          NMOL  CASOP  ENMOLC A   SO
                 OPE        NMOLC        AS  OP EN  MO LC     AS  OP
                OPENM       OL CA        SO  PE NM  OL CA     SOP EN
                OP EN      MO   LC       AS  OP ENMOL  CASO   PENMOL
                OP  EN     MO   LC       AS  OP EN     MO     LC ASO
               OP   E  NMOL  C  AS       OP  EN MO     LC     AS  OP
               OP  E   NMO   LC AS        OPEN  MO     LCASOP EN   M
               O  PEN   MO  LCA  SO
            OPE   NMO   L   CAS    OP
        OPENMOL  CASOP     ENMOL   CASOPE
     OPENMOLCA   SOPENMOLCASOPEN   MOLCASOPE
    OPENMOLCAS   OP           EN   MOL    CAS
    OPENMOLCAS       OP  ENM        O     LCA
    OPENMOLCAS    OPEN  MOLCASO     P  E  NMO
    OPENMOLCAS     OP               E  N  MOL
    OPENMOLCA   SO           PENM   O  L  CAS    OPEN    MO    LCAS
    OPENMOLCA   SOP           ENM   O  L  CAS   OP  EN  MOLC  AS   O
    OPENMOLCA   SOPE           NM      O  LCA   S      OP  EN MO
    OPENMOLC                AS         O  PEN   M      OL  CA  SOPE
    OPENMO        LCASOPE  NMOL        C  ASO   P      ENMOLC     AS
    OPE     NMO      LCA  SO     P     E   NM   OL  CA SO  PE N   MO
          OPENMOLCA            SOPE   NMO        LCAS  O    P  ENMO
     OPENMOLCASOPENMOLCASOPENMOLCASOPENMOLCA
        OPENMOLCASOPENMOLCASOPENMOLCASOPE
            OPENMOLCASOPENMOLCASOPENM
               OPENMOLCASOPENMOLCA        version: ea724fe96-dirty
                   OPENMOLCASO
                       OPE                tag:

 OpenMolcas is free software; you can redistribute it and/or modify it
 under the terms of the GNU Lesser General Public License version 2.1.
 OpenMolcas is distributed in the hope that it will be useful, but it
 is provided "as is" and without any express or implied warranties.
 For more details see the full text of the license in the file
 LICENSE or in <http://www.gnu.org/licenses/>.

                 Copyright (C) The OpenMolcas Authors
           For the author list and the recommended citation,
                   consult the file CONTRIBUTORS.md

           *************************************************
           * pymolcas version py2.28                       *
           *   build c4a6d18ded8cb6cad61d2372a9abd97c      *
           *   (after the EMIL interpreter by V. Veryazov) *
           *************************************************

configuration info
------------------
C Compiler ID: Intel
C flags: -std=gnu99
Fortran Compiler ID: Intel
Fortran flags: -fpp -i8 -r8 -heap-arrays
Definitions: _MOLCAS_;_I8_;_LINUX_
Parallel: OFF (GA=OFF)


   -------------------------------------------------------------------------------
  |
  |              Project: 2.52
  |       Submitted from: /home/grierjones/DDCASPT2/iron_oxo_DDCASPT2/cluster/2.52
  |         Scratch area: /tmp/2.52
  |      Save outputs to: /home/grierjones/DDCASPT2/iron_oxo_DDCASPT2/cluster/2.52
  |               Molcas: /home/grierjones/Test/build
  |
  | Scratch area is empty
  |
  |       MOLCAS_DRIVER = /usr/local/pymolcas
  | MOLCAS_KEEP_WORKDIR = NO
  |  MOLCAS_NEW_WORKDIR = YES
  |       MOLCAS_NPROCS = 1
  |        MOLCAS_PRINT = NORMAL
  |       MOLCAS_SOURCE = /home/grierjones/Test/build
  |    MOLCAS_STRUCTURE = 0
  |
   -------------------------------------------------------------------------------

++ ---------   Input file   ---------

&GATEWAY
coord=2.52.xyz
Basis = ANO-RCC-VDZP
Group = nosymm
Expert
End of Input

&SEWARD
End of Input

&SCF
UHF
charge
2
spin
5

>>> COPY $WorkDir/2.52.scf.h5 $CurrDir/

&RASSCF
Title= RASSCF
FileOrb
/home/grierjones/DDCASPT2/iron_oxo_DDCASPT2/cluster/2.49/2.49.RasOrb
NACTEL
10 0 0
RAS2
14
Symmetry
1
Spin
5
charge
2
orblisting
all
ITERation
300 200

>>> COPY $WorkDir/2.52.rasscf.h5 $CurrDir/

>>> COPY $WorkDir/GMJ_Fock_MO.csv $CurrDir/2.52.GMJ_Fock_MO.csv

>>> COPY $WorkDir/GMJ_PT2_Fock_MO.csv $CurrDir/2.52.GMJ_PT2_Fock_MO.csv

&MOTRA
Frozen=0
LUMORB

>>> COPY $WorkDir/GMJ_one_int_indx.csv $CurrDir/2.52.GMJ_one_int_indx.csv

>>> COPY $WorkDir/GMJ_one_int.csv $CurrDir/2.52.GMJ_one_int.csv

>>> COPY $WorkDir/GMJ_two_int_indx.csv $CurrDir/2.52.GMJ_two_int_indx.csv

>>> COPY $WorkDir/GMJ_two_int.csv $CurrDir/2.52.GMJ_two_int.csv

&CASPT2
Frozen
0
MAXITER
50

>>> FOREACH i IN (B,E,F,G,H)

  >>> FOREACH j IN (P,M)

    >>> IF (-FILE GMJ_e2_${i}_${j}.csv)

      >>> COPY $WorkDir/GMJ_RHS_${i}_${j}.csv $CurrDir/GMJ_RHS_${i}_${j}.csv

      >>> COPY $WorkDir/GMJ_IVECW_${i}_${j}.csv $CurrDir/GMJ_IVECW_${i}_${j}.csv

      >>> COPY $WorkDir/GMJ_IVECX_${i}_${j}.csv $CurrDir/GMJ_IVECX_${i}_${j}.csv

      >>> COPY $WorkDir/GMJ_IVECC2_${i}_${j}.csv $CurrDir/GMJ_IVECC2_${i}_${j}.csv

      >>> COPY $WorkDir/GMJ_e2_${i}_${j}.csv $CurrDir/GMJ_e2_${i}_${j}.csv

    >>> END IF

  >>> END FOREACH

>>> END FOREACH

>>> FOREACH i IN (A,C,D)

  >>> IF (-FILE GMJ_e2_$i.csv)

    >>> COPY $WorkDir/GMJ_RHS_$i.csv $CurrDir/GMJ_RHS_$i.csv

    >>> COPY $WorkDir/GMJ_IVECW_$i.csv $CurrDir/GMJ_IVECW_$i.csv

    >>> COPY $WorkDir/GMJ_IVECX_$i.csv $CurrDir/GMJ_IVECX_$i.csv

    >>> COPY $WorkDir/GMJ_IVECC2_$i.csv $CurrDir/GMJ_IVECC2_$i.csv

    >>> COPY $WorkDir/GMJ_e2_$i.csv $CurrDir/GMJ_e2_$i.csv

  >>> END IF

>>> END FOREACH

-- ----------------------------------

--- Start Module: gateway at Thu Dec  5 08:23:26 2024 ---
 
()()()()()()()()()()()()()()()()()()()()()()()()()()()()()()()()()()()()()()()()()()()()()()()()()()

                                              &GATEWAY

                                   only a single process is used
                       available to each process: 2.0 GB of memory, 1 thread?
()()()()()()()()()()()()()()()()()()()()()()()()()()()()()()()()()()()()()()()()()()()()()()()()()()
 
 ###############################################################################
 ###############################################################################
 ###                                                                         ###
 ###                                                                         ###
 ###                                                                         ###
 ###    WARNING: EXPERT option is ON!                                        ###
 ###                                                                         ###
 ###                                                                         ###
 ###############################################################################
 ###############################################################################
 
++    Symmetry information:
      ---------------------
 
                    Character Table for C1 
 
                             E  
                    a        1  x, y, xy, Rz, z, xz, Ry, yz, Rx, I
--
 
 
++    Basis set information:
      ----------------------
 
 
      Basis set label: O.ANO-RCC...3S2P1D.
 
      Electronic valence basis set:
      ------------------
      Associated Effective Charge   8.000000 au
      Associated Actual Charge      8.000000 au
      Nuclear Model: Point charge
 
      Shell  nPrim  nBasis  Cartesian Spherical Contaminant
         s      14       3        X                  
         p       9       2        X                  
         d       4       1                 X         
 
 
      Basis set label: FE.ANO-RCC...5S4P2D1F.
 
      Electronic valence basis set:
      ------------------
      Associated Effective Charge  26.000000 au
      Associated Actual Charge     26.000000 au
      Nuclear Model: Point charge
 
      Shell  nPrim  nBasis  Cartesian Spherical Contaminant
         s      21       5        X                  
         p      15       4        X                  
         d      10       2                 X         
         f       6       1                 X         
--
 
 
++    Molecular structure info:
      -------------------------
 
                    ************************************************ 
                    **** Cartesian Coordinates / Bohr, Angstrom **** 
                    ************************************************ 
 
     Center  Label                x              y              z                     x              y              z
        1      O1               0.000000       0.000000       3.888263              0.000000       0.000000       2.057580
        2      FE2              0.000000       0.000000      -0.864701              0.000000       0.000000      -0.457580
--
 
 
            Nuclear Potential Energy             43.76217013 au
 
 ###############################################################################
 ###############################################################################
 ###                                                                         ###
 ###                                                                         ###
 ###    There were warnings during the execution                             ###
 ###    Please, check the output with care!                                  ###
 ###                                                                         ###
 ###                                                                         ###
 ###############################################################################
 ###############################################################################
--- Stop Module: gateway at Thu Dec  5 08:23:26 2024 /rc=_RC_ALL_IS_WELL_ ---
*** files: xmldump
    saved to directory /home/grierjones/DDCASPT2/iron_oxo_DDCASPT2/cluster/2.52

--- Start Module: seward at Thu Dec  5 08:23:26 2024 ---
 
()()()()()()()()()()()()()()()()()()()()()()()()()()()()()()()()()()()()()()()()()()()()()()()()()()

                                              &SEWARD

                                   only a single process is used
                       available to each process: 2.0 GB of memory, 1 thread?
()()()()()()()()()()()()()()()()()()()()()()()()()()()()()()()()()()()()()()()()()()()()()()()()()()
 
 ###############################################################################
 ###############################################################################
 ###                                                                         ###
 ###                                                                         ###
 ###                                                                         ###
 ###    WARNING: EXPERT option is ON!                                        ###
 ###                                                                         ###
 ###                                                                         ###
 ###############################################################################
 ###############################################################################
               SEWARD will generate:
                  Multipole Moment integrals up to order  2
                  Kinetic Energy integrals
                  Nuclear Attraction integrals (point charge)
                  One-Electron Hamiltonian integrals
                  Velocity integrals
                  Relativistic Douglas-Kroll-Hess integrals:
                    - Parametrization         : EXP
                    - DKH order of Hamiltonian: 2
                    - DKH order of Properties : 0
                         - multipole moment operators
                         - electric potential operators
                         - contact operators
                  Atomic mean-field integrals
                  Two-Electron Repulsion integrals
 
                   Integrals are discarded if absolute value <: 0.10E-13
                   Integral cutoff threshold is set to       <: 0.10E-15
 
            Nuclear Potential Energy             43.76217013 au
 
 
      Basis set specifications :
      Symmetry species         a  
      Basis functions           48
 
 
  Input file to MOLDEN was generated!
 
 ###############################################################################
 ###############################################################################
 ###                                                                         ###
 ###                                                                         ###
 ###    There were warnings during the execution                             ###
 ###    Please, check the output with care!                                  ###
 ###                                                                         ###
 ###                                                                         ###
 ###############################################################################
 ###############################################################################
--- Stop Module: seward at Thu Dec  5 08:23:27 2024 /rc=_RC_ALL_IS_WELL_ ---
*** files: 2.52.GssOrb 2.52.guessorb.h5 2.52.guessorb.molden xmldump
    saved to directory /home/grierjones/DDCASPT2/iron_oxo_DDCASPT2/cluster/2.52
--- Module seward spent 1 second ---

*** symbolic link created: INPORB -> 2.52.GssOrb
--- Start Module: scf at Thu Dec  5 08:23:27 2024 ---
 
()()()()()()()()()()()()()()()()()()()()()()()()()()()()()()()()()()()()()()()()()()()()()()()()()()

                                                &SCF

                                   only a single process is used
                       available to each process: 2.0 GB of memory, 1 thread?
()()()()()()()()()()()()()()()()()()()()()()()()()()()()()()()()()()()()()()()()()()()()()()()()()()
 
 *** Possible bug in opening file
 *** isFreeUnit resets the unit number
++    Input section:
      --------------
 
      Header of the integral files:
      
       Integrals generated by seward 4.2.0  , Thu Dec  5 08:23:26 2024
 
 
      Cartesian coordinates in Angstrom:
      -----------------------------------------------------
      No.  Label        X            Y            Z        
      -----------------------------------------------------
       1   O1         0.00000000   0.00000000   2.05758000
       2   FE2        0.00000000   0.00000000  -0.45758000
      -----------------------------------------------------
      Nuclear repulsion energy =   43.76217013
--
 
++    Orbital specifications:
      -----------------------
 
      Symmetry species               1
                                     a
      Frozen orbitals                0
      Start temperature = 0.500
      End temperature   = 0.010
      Temperature Factor= 0.460
      Deleted orbitals               0
      Total number of orbitals      48
      Number of basis functions     48
--
 
      Molecular charge                           2.000
 
++    Optimization specifications:
      ----------------------------
 
      SCF Algorithm: Conventional USCF
      D(i)-D(i-1) density differences are used
      Number of density matrices in core                5
      Maximum number of NDDO SCF iterations           400
      Maximum number of HF SCF iterations             400
      Threshold for SCF energy change            0.10E-08
      Threshold for density matrix               0.10E-03
      Threshold for Fock matrix                  0.15E-03
      Threshold for linear dependence            0.10E-08
      Threshold at which DIIS is turned on       0.15E+00
      Threshold at which QNR/C2DIIS is turned on 0.75E-01
      Threshold for Norm(delta) (QNR/C2DIIS)     0.20E-04
      DIIS extrapolation of the SCF procedure
      All orbitals punched on: UHFORB
--
 
      Input vectors read from INPORB
      Orbital file label: *Guess orbitals
 
 
++ Convergence information
                               UHF SCF        iterations: Energy and convergence statistics
 
Iter     Tot. SCF        One-elec.       Two-elec.     Energy      Max Dij or  Max Fij      DNorm      TNorm      AccCon     Time
         Energy          Energy          Energy        Change      Delta Norm                                                in Sec.
 
 The total and one-electron energies are shifted by a value of      1000. a.u.
 
   1  -343.180880949  -917.936689389   530.993638312   0.00E+00    0.15E+00*   0.59E+00*    0.75E+01   0.18E+03   None         0.
   2  -343.440697105  -913.951292728   526.748425494  -0.26E+00*   0.21E+00*   0.21E+00*    0.11E+01   0.18E+03   EDIIS        0.
   3  -341.785961675  -960.472310470   574.924178667   0.17E+01*   0.70E-01*   0.22E+00*    0.19E+01   0.19E+03   EDIIS        0.
   4  -343.448967936  -905.633690615   518.422552551  -0.17E+01*   0.19E+00*   0.96E-01*    0.15E+01   0.18E+03   EDIIS        0.
   5  -344.402365110  -931.308722023   543.144186785  -0.95E+00*   0.30E+00*   0.12E+00*    0.11E+01   0.19E+03   EDIIS        0.
   6  -344.691008432  -913.342417245   524.889238685  -0.29E+00*   0.63E+00*   0.26E+00*    0.15E+01   0.18E+03   EDIIS        0.
   7  -344.095813858  -934.344651327   546.486667341   0.60E+00*   0.13E+00*   0.12E+00*    0.28E+01   0.19E+03   EDIIS        0.
   8  -345.216165372  -920.368762187   531.390426687  -0.11E+01*   0.36E+00*   0.11E+00*    0.14E+01   0.18E+03   EDIIS        0.
   9  -345.306176273  -919.706661381   530.638314980  -0.90E-01*   0.93E-01*   0.11E+00*    0.94E+00   0.18E+03   EDIIS        0.
  10  -345.322366787  -920.483421449   531.398884534  -0.16E-01*   0.63E-01*   0.28E-01*    0.35E+00   0.18E+03   EDIIS        0.
  11  -345.325167283  -920.036031606   530.948694195  -0.28E-02*   0.27E-01*   0.20E-01*    0.14E+00   0.18E+03   EDIIS        0.
 
       Fermi aufbau procedure completed!
      nOcc(alpha)=   18
      nOcc(beta) =   14
 
  12  -345.325966021  -920.244074441   531.155938292  -0.80E-03*   0.20E-01*   0.53E-02*    0.68E-01   0.18E+03   EDIIS        0.
  13  -345.326279485  -920.133499067   531.045049455  -0.31E-03*   0.11E-01*   0.34E-02*    0.42E-01   0.18E+03   EDIIS        0.
  14  -345.326429049  -920.169990132   531.081390954  -0.15E-03*   0.91E-02*   0.25E-02*    0.28E-01   0.18E+03   EDIIS        0.
  15  -345.326505041  -920.144786372   531.056111203  -0.76E-04*   0.62E-02*   0.17E-02*    0.20E-01   0.18E+03   EDIIS        0.
  16  -345.326544615  -920.148450972   531.059736229  -0.40E-04*   0.62E-03*   0.46E-02*    0.15E-01   0.18E+03   c2DIIS       0.
  17  -345.326588129  -920.124510957   531.035752700  -0.44E-04*   0.78E-03*   0.29E-03*    0.30E-02   0.18E+03   QNRc2DIIS    0.
  18  -345.326588332  -920.138388170   531.049629710  -0.20E-06*   0.22E-03*   0.11E-03     0.11E-02   0.18E+03   QNRc2DIIS    0.
  19  -345.326588372  -920.134475024   531.045716523  -0.40E-07*   0.15E-03*   0.19E-04     0.33E-03   0.18E+03   QNRc2DIIS    0.
  20  -345.326588375  -920.134214424   531.045455921  -0.31E-08*   0.16E-04    0.19E-05     0.22E-03   0.18E+03   QNRc2DIIS    0.
  21  -345.326588375  -920.134197112   531.045438608  -0.33E-10    0.48E-05    0.74E-06     0.23E-04   0.18E+03   QNRc2DIIS    0.
 
       Convergence after 21 Macro Iterations
--
 
 *****************************************************************************************************************************
 *                                                                                                                           *
 *                                             SCF/KS-DFT Program, Final results                                             *
 *                                                                                                                           *
 *                                                                                                                           *
 *                                                                                                                           *
 *                                                       Final Results                                                       *
 *                                                                                                                           *
 *****************************************************************************************************************************
 
::    Total SCF energy                              -1345.3265883755
      One-electron energy                           -1920.1341971120
      Two-electron energy                             531.0454386085
      Nuclear repulsion energy                         43.7621701281
      Kinetic energy (interpolated)                  1399.8508829352
      Virial theorem                                    0.9610499267
      Total spin, S(S+1)                                8.0084110061
      Total spin, S                                     2.3737451185
      Max non-diagonal density matrix element           0.0000036924
      Max non-diagonal Fock matrix element              0.0000003740
 
 
      All orbitals with orbital energies smaller than  E(LUMO)+0.5 are printed
 
++    Molecular orbitals:
      -------------------
 
      Title: UHF orbitals (alpha)

      Molecular orbitals for symmetry species 1: a  
 
          Orbital            1         2         3         4         5         6         7         8         9        10    
          Energy         -264.5791  -33.4571  -28.5211  -28.5208  -28.5208  -21.1095   -5.4051   -3.9454   -3.9454   -3.9443
          Occ. No.          1.0000    1.0000    1.0000    1.0000    1.0000    1.0000    1.0000    1.0000    1.0000    1.0000
 
        1 O1     1s         0.0000    0.0000   -0.0000   -0.0000    0.0000    1.0000    0.0001   -0.0000    0.0000    0.0001
        2 O1     2s         0.0000    0.0000   -0.0002   -0.0000    0.0000   -0.0019    0.0013   -0.0000    0.0000    0.0018
        3 O1     3s        -0.0000    0.0001   -0.0002   -0.0000    0.0000    0.0008    0.0013   -0.0000    0.0000    0.0013
        4 O1     2px        0.0000    0.0000   -0.0000   -0.0000   -0.0001    0.0000   -0.0000    0.0000    0.0002    0.0000
        5 O1     3px        0.0000   -0.0000   -0.0000   -0.0000   -0.0001   -0.0000    0.0000    0.0000    0.0002   -0.0000
        6 O1     2py        0.0000   -0.0000    0.0000   -0.0001    0.0000   -0.0000   -0.0000    0.0002   -0.0000    0.0000
        7 O1     3py       -0.0000   -0.0000    0.0000   -0.0001    0.0000    0.0000   -0.0000    0.0002   -0.0000    0.0000
        8 O1     2pz        0.0000   -0.0001    0.0000    0.0000    0.0000   -0.0005   -0.0018    0.0000   -0.0000   -0.0018
        9 O1     3pz        0.0000   -0.0001   -0.0001   -0.0000    0.0000   -0.0001   -0.0023    0.0000   -0.0000   -0.0015
       10 O1     3d2-       0.0000    0.0000   -0.0000   -0.0000    0.0000   -0.0000    0.0000    0.0000   -0.0000    0.0000
       11 O1     3d1-       0.0000   -0.0000   -0.0000    0.0000   -0.0000    0.0000    0.0000   -0.0002    0.0000   -0.0000
       12 O1     3d0       -0.0000    0.0000    0.0000    0.0000   -0.0000    0.0010    0.0005   -0.0000    0.0000    0.0003
       13 O1     3d1+       0.0000    0.0000   -0.0000    0.0000    0.0000    0.0000   -0.0000   -0.0000   -0.0002   -0.0000
       14 O1     3d2+      -0.0000    0.0000   -0.0000   -0.0000    0.0000    0.0000    0.0000    0.0000    0.0000    0.0000
       15 FE2    1s         1.0000   -0.0000   -0.0000   -0.0000    0.0000   -0.0000   -0.0000   -0.0000   -0.0000   -0.0000
       16 FE2    2s         0.0000    1.0000   -0.0001   -0.0000    0.0000   -0.0000   -0.0035    0.0000   -0.0000   -0.0001
       17 FE2    3s        -0.0000    0.0034    0.0000    0.0000   -0.0000   -0.0001    0.9995    0.0000   -0.0000   -0.0013
       18 FE2    4s         0.0000   -0.0004    0.0000    0.0000   -0.0000   -0.0004   -0.0093    0.0000   -0.0000   -0.0014
       19 FE2    5s        -0.0000    0.0004    0.0001    0.0000   -0.0000   -0.0000    0.0083    0.0000   -0.0000   -0.0003
       20 FE2    2px       -0.0000    0.0000    0.0000    0.0541    0.9985    0.0000    0.0000   -0.0004   -0.0035    0.0000
       21 FE2    3px        0.0000   -0.0000    0.0000    0.0002    0.0034    0.0000   -0.0000    0.1046    0.9942   -0.0000
       22 FE2    4px        0.0000    0.0000   -0.0000   -0.0000   -0.0006   -0.0000   -0.0000   -0.0020   -0.0188    0.0000
       23 FE2    5px        0.0000    0.0000    0.0000    0.0001    0.0015    0.0000   -0.0000    0.0019    0.0178   -0.0000
       24 FE2    2py       -0.0000   -0.0000   -0.0000    0.9985   -0.0541   -0.0000   -0.0000   -0.0035    0.0004   -0.0000
       25 FE2    3py        0.0000    0.0000   -0.0000    0.0034   -0.0002   -0.0000   -0.0000    0.9942   -0.1046    0.0000
       26 FE2    4py        0.0000    0.0000    0.0000   -0.0006    0.0000    0.0000    0.0000   -0.0188    0.0020   -0.0000
       27 FE2    5py        0.0000    0.0000   -0.0000    0.0015   -0.0001   -0.0000   -0.0000    0.0178   -0.0019    0.0000
       28 FE2    2pz        0.0000    0.0001    1.0000    0.0000   -0.0000   -0.0000   -0.0001    0.0000   -0.0000   -0.0035
       29 FE2    3pz       -0.0000    0.0000    0.0034    0.0000   -0.0000   -0.0001    0.0008   -0.0000    0.0000    0.9994
       30 FE2    4pz        0.0000   -0.0001   -0.0005   -0.0000    0.0000   -0.0005   -0.0016    0.0000   -0.0000   -0.0208
       31 FE2    5pz       -0.0000    0.0000    0.0015    0.0000   -0.0000   -0.0001   -0.0007   -0.0000    0.0000    0.0181
       32 FE2    3d2-      -0.0000    0.0000   -0.0000   -0.0000   -0.0000   -0.0000   -0.0000   -0.0000   -0.0000    0.0000
       33 FE2    4d2-       0.0000   -0.0000   -0.0000    0.0000    0.0000    0.0000   -0.0000    0.0000    0.0000    0.0000
       34 FE2    3d1-       0.0000    0.0000   -0.0000    0.0000   -0.0000   -0.0000    0.0000    0.0008   -0.0001    0.0000
       35 FE2    4d1-       0.0000   -0.0000   -0.0000    0.0000   -0.0000    0.0000   -0.0000   -0.0002    0.0000   -0.0000
       36 FE2    3d0        0.0000   -0.0000    0.0000    0.0000   -0.0000   -0.0001   -0.0009   -0.0000    0.0000    0.0012
       37 FE2    4d0        0.0000   -0.0000    0.0001    0.0000   -0.0000   -0.0003   -0.0008    0.0000   -0.0000   -0.0017
       38 FE2    3d1+       0.0000    0.0000    0.0000    0.0000    0.0000   -0.0000    0.0000    0.0001    0.0008   -0.0000
       39 FE2    4d1+       0.0000    0.0000    0.0000    0.0000    0.0000    0.0000   -0.0000   -0.0000   -0.0002    0.0000
       40 FE2    3d2+      -0.0000    0.0000   -0.0000   -0.0000   -0.0000    0.0000    0.0000    0.0000   -0.0000   -0.0000
       41 FE2    4d2+      -0.0000    0.0000    0.0000    0.0000    0.0000    0.0000    0.0000   -0.0000    0.0000    0.0000
       42 FE2    4f3-      -0.0000    0.0000    0.0000   -0.0000   -0.0000   -0.0000    0.0000   -0.0000    0.0000   -0.0000
       43 FE2    4f2-       0.0000   -0.0000   -0.0000   -0.0000    0.0000   -0.0000   -0.0000    0.0000    0.0000    0.0000
       44 FE2    4f1-      -0.0000   -0.0000   -0.0000    0.0000   -0.0000    0.0000   -0.0000   -0.0002    0.0000   -0.0000
       45 FE2    4f0       -0.0000   -0.0000    0.0000    0.0000   -0.0000   -0.0000   -0.0001    0.0000   -0.0000   -0.0004
       46 FE2    4f1+       0.0000   -0.0000    0.0000    0.0000    0.0000    0.0000   -0.0000   -0.0000   -0.0002    0.0000
       47 FE2    4f2+      -0.0000    0.0000    0.0000    0.0000    0.0000    0.0000   -0.0000   -0.0000    0.0000    0.0000
       48 FE2    4f3+       0.0000   -0.0000   -0.0000   -0.0000    0.0000   -0.0000    0.0000    0.0000    0.0000   -0.0000
 
          Orbital           11        12        13        14        15        16        17        18        19        20    
          Energy           -1.6289   -1.6268   -1.6268   -1.6251   -1.6251   -1.5502   -1.0226   -0.8932   -0.4711   -0.4711
          Occ. No.          1.0000    1.0000    1.0000    1.0000    1.0000    1.0000    1.0000    1.0000    0.0000    0.0000
 
        1 O1     1s        -0.0013    0.0000   -0.0000   -0.0000   -0.0000   -0.0017    0.0070   -0.0040   -0.0000   -0.0000
        2 O1     2s         0.1646   -0.0000    0.0000    0.0000   -0.0000   -0.9735    0.1659   -0.0595   -0.0000   -0.0000
        3 O1     3s        -0.0047    0.0000   -0.0000   -0.0000   -0.0000   -0.0155   -0.0009   -0.0249   -0.0000   -0.0000
        4 O1     2px       -0.0000   -0.0000   -0.0000   -0.0001    0.0000    0.0000    0.0000    0.0000    0.1495   -0.0780
        5 O1     3px        0.0000   -0.0000   -0.0000   -0.0025    0.0001   -0.0000   -0.0000   -0.0000    0.0213   -0.0111
        6 O1     2py       -0.0000   -0.0000   -0.0000   -0.0000   -0.0001   -0.0000    0.0000    0.0000    0.0780    0.1495
        7 O1     3py        0.0000    0.0000   -0.0000   -0.0001   -0.0025   -0.0000    0.0000    0.0000    0.0111    0.0213
        8 O1     2pz       -0.0245    0.0000   -0.0000   -0.0000    0.0000    0.0660    0.8087    0.5245   -0.0000   -0.0000
        9 O1     3pz        0.0087   -0.0000    0.0000    0.0000    0.0000    0.0187   -0.0059    0.0516   -0.0000   -0.0000
       10 O1     3d2-       0.0000   -0.0000   -0.0001    0.0000   -0.0000    0.0000    0.0000    0.0000   -0.0000    0.0000
       11 O1     3d1-       0.0000   -0.0000    0.0000    0.0000    0.0008   -0.0000    0.0000   -0.0000   -0.0036   -0.0069
       12 O1     3d0        0.0062   -0.0000    0.0000    0.0000   -0.0000   -0.0362   -0.0169   -0.0121    0.0000    0.0000
       13 O1     3d1+      -0.0000    0.0000    0.0000    0.0008   -0.0000   -0.0000    0.0000   -0.0000   -0.0069    0.0036
       14 O1     3d2+      -0.0000   -0.0001    0.0000    0.0000    0.0000   -0.0000    0.0000    0.0000    0.0000   -0.0000
       15 FE2    1s         0.0000    0.0000    0.0000    0.0000    0.0000    0.0002    0.0005    0.0005   -0.0000   -0.0000
       16 FE2    2s         0.0000   -0.0000    0.0000    0.0000    0.0000    0.0016    0.0032    0.0042   -0.0000   -0.0000
       17 FE2    3s         0.0003   -0.0000    0.0000   -0.0000    0.0000    0.0099    0.0140    0.0295   -0.0000   -0.0000
       18 FE2    4s         0.0126   -0.0000    0.0000    0.0000   -0.0000   -0.0181   -0.4035    0.8746   -0.0000   -0.0000
       19 FE2    5s        -0.0037    0.0000   -0.0000   -0.0000   -0.0000    0.0151    0.1632   -0.3327    0.0000   -0.0000
       20 FE2    2px       -0.0000   -0.0000   -0.0000   -0.0000    0.0000   -0.0000   -0.0000   -0.0000    0.0004   -0.0002
       21 FE2    3px       -0.0000    0.0000   -0.0000   -0.0007    0.0000    0.0000   -0.0000    0.0000    0.0142   -0.0074
       22 FE2    4px       -0.0000    0.0000    0.0000    0.0009   -0.0000    0.0000   -0.0000    0.0000    0.8508   -0.4441
       23 FE2    5px        0.0000    0.0000   -0.0000   -0.0003    0.0000    0.0000    0.0000   -0.0000    0.0311   -0.0162
       24 FE2    2py        0.0000    0.0000    0.0000   -0.0000   -0.0000   -0.0000   -0.0000   -0.0000    0.0002    0.0004
       25 FE2    3py        0.0000    0.0000    0.0000   -0.0000   -0.0007    0.0000   -0.0000   -0.0000    0.0074    0.0142
       26 FE2    4py        0.0000   -0.0000    0.0000    0.0000    0.0009    0.0000    0.0000    0.0000    0.4441    0.8508
       27 FE2    5py       -0.0000   -0.0000    0.0000   -0.0000   -0.0003    0.0000   -0.0000   -0.0000    0.0162    0.0311
       28 FE2    2pz       -0.0000    0.0000    0.0000    0.0000   -0.0000    0.0004    0.0006    0.0006    0.0000    0.0000
       29 FE2    3pz       -0.0027    0.0000   -0.0000   -0.0000    0.0000    0.0103    0.0143    0.0126    0.0000    0.0000
       30 FE2    4pz        0.0085   -0.0000   -0.0000    0.0000    0.0000   -0.0177   -0.0895   -0.1509    0.0000    0.0000
       31 FE2    5pz        0.0014   -0.0000    0.0000    0.0000   -0.0000    0.0041    0.0016    0.0062    0.0000    0.0000
       32 FE2    3d2-      -0.0000    0.0544    0.9895   -0.0000   -0.0000    0.0000    0.0000   -0.0000   -0.0000   -0.0000
       33 FE2    4d2-       0.0000   -0.0074   -0.1336    0.0000    0.0000    0.0000    0.0000    0.0000    0.0000   -0.0000
       34 FE2    3d1-       0.0000   -0.0000    0.0000    0.0353    0.9905   -0.0000   -0.0000   -0.0000   -0.0011   -0.0021
       35 FE2    4d1-      -0.0000    0.0000   -0.0000   -0.0047   -0.1332    0.0000    0.0000    0.0000    0.0044    0.0084
       36 FE2    3d0        0.9726   -0.0000    0.0000    0.0000   -0.0000    0.1952    0.0366    0.0249   -0.0000   -0.0000
       37 FE2    4d0       -0.1266    0.0000   -0.0000   -0.0000    0.0000   -0.0363   -0.0356   -0.0257   -0.0000    0.0000
       38 FE2    3d1+      -0.0000    0.0000    0.0000    0.9905   -0.0353    0.0000   -0.0000   -0.0000   -0.0021    0.0011
       39 FE2    4d1+       0.0000   -0.0000   -0.0000   -0.1332    0.0047    0.0000    0.0000    0.0000    0.0084   -0.0044
       40 FE2    3d2+       0.0000    0.9895   -0.0544   -0.0000    0.0000   -0.0000    0.0000    0.0000    0.0000    0.0000
       41 FE2    4d2+      -0.0000   -0.1336    0.0074    0.0000   -0.0000    0.0000    0.0000    0.0000    0.0000   -0.0000
       42 FE2    4f3-       0.0000   -0.0000   -0.0000    0.0000    0.0000   -0.0000    0.0000    0.0000    0.0000    0.0000
       43 FE2    4f2-       0.0000    0.0000    0.0006   -0.0000   -0.0000    0.0000    0.0000    0.0000    0.0000    0.0000
       44 FE2    4f1-      -0.0000   -0.0000    0.0000    0.0000    0.0008    0.0000    0.0000    0.0000    0.0002    0.0004
       45 FE2    4f0        0.0012    0.0000    0.0000    0.0000    0.0000   -0.0016   -0.0030   -0.0024    0.0000   -0.0000
       46 FE2    4f1+      -0.0000    0.0000    0.0000    0.0008   -0.0000    0.0000    0.0000    0.0000    0.0004   -0.0002
       47 FE2    4f2+       0.0000    0.0006   -0.0000   -0.0000    0.0000    0.0000    0.0000    0.0000   -0.0000   -0.0000
       48 FE2    4f3+      -0.0000   -0.0000    0.0000    0.0000    0.0000   -0.0000   -0.0000    0.0000   -0.0000    0.0000
 
          Orbital           21        22        23        24    
          Energy           -0.4104   -0.3405   -0.3405   -0.2384
          Occ. No.          0.0000    0.0000    0.0000    0.0000
 
        1 O1     1s        -0.0289   -0.0000   -0.0000   -0.0204
        2 O1     2s        -0.3245   -0.0000   -0.0000   -0.1833
        3 O1     3s        -0.0840   -0.0000   -0.0000   -0.0554
        4 O1     2px        0.0000   -0.9474    0.0082   -0.0000
        5 O1     3px        0.0000   -0.2763    0.0024   -0.0000
        6 O1     2py        0.0000   -0.0082   -0.9474    0.0000
        7 O1     3py        0.0000   -0.0024   -0.2763    0.0000
        8 O1     2pz        0.3703    0.0000    0.0000   -0.0199
        9 O1     3pz        0.0615    0.0000    0.0000    0.0021
       10 O1     3d2-      -0.0000    0.0000   -0.0000   -0.0000
       11 O1     3d1-      -0.0000    0.0001    0.0171   -0.0000
       12 O1     3d0       -0.0025   -0.0000   -0.0000   -0.0067
       13 O1     3d1+      -0.0000    0.0171   -0.0001   -0.0000
       14 O1     3d2+       0.0000    0.0000   -0.0000    0.0000
       15 FE2    1s         0.0005    0.0000    0.0000    0.0001
       16 FE2    2s         0.0040    0.0000    0.0000    0.0002
       17 FE2    3s         0.0227    0.0000    0.0000   -0.0020
       18 FE2    4s         0.2190    0.0000    0.0000    0.4041
       19 FE2    5s        -0.0612   -0.0000   -0.0000    0.9453
       20 FE2    2px        0.0000    0.0007   -0.0000   -0.0000
       21 FE2    3px       -0.0000    0.0171   -0.0001    0.0000
       22 FE2    4px       -0.0000    0.3476   -0.0030   -0.0000
       23 FE2    5px       -0.0000    0.0143   -0.0001   -0.0000
       24 FE2    2py       -0.0000    0.0000    0.0007   -0.0000
       25 FE2    3py       -0.0000    0.0001    0.0171   -0.0000
       26 FE2    4py       -0.0000    0.0030    0.3476   -0.0000
       27 FE2    5py       -0.0000    0.0001    0.0143   -0.0000
       28 FE2    2pz        0.0013    0.0000    0.0000    0.0001
       29 FE2    3pz        0.0365    0.0000    0.0000    0.0042
       30 FE2    4pz        1.0832    0.0000    0.0000    0.0634
       31 FE2    5pz        0.0465    0.0000    0.0000    0.0035
       32 FE2    3d2-       0.0000    0.0000   -0.0000    0.0000
       33 FE2    4d2-      -0.0000    0.0000    0.0000    0.0000
       34 FE2    3d1-      -0.0000    0.0001    0.0147   -0.0000
       35 FE2    4d1-       0.0000   -0.0006   -0.0677    0.0000
       36 FE2    3d0        0.0231    0.0000    0.0000    0.0024
       37 FE2    4d0       -0.0526   -0.0000   -0.0000   -0.0224
       38 FE2    3d1+      -0.0000    0.0147   -0.0001    0.0000
       39 FE2    4d1+       0.0000   -0.0677    0.0006    0.0000
       40 FE2    3d2+      -0.0000    0.0000    0.0000   -0.0000
       41 FE2    4d2+       0.0000    0.0000   -0.0000   -0.0000
       42 FE2    4f3-       0.0000    0.0000    0.0000   -0.0000
       43 FE2    4f2-       0.0000    0.0000   -0.0000   -0.0000
       44 FE2    4f1-       0.0000   -0.0000   -0.0039    0.0000
       45 FE2    4f0       -0.0034   -0.0000   -0.0000   -0.0007
       46 FE2    4f1+       0.0000   -0.0039    0.0000   -0.0000
       47 FE2    4f2+       0.0000    0.0000   -0.0000   -0.0000
       48 FE2    4f3+      -0.0000    0.0000   -0.0000   -0.0000
--
 
 
  Input file to MOLDEN was generated!
 
 
++    Static properties:
      ------------------
 
 
      LoProp Charges per center
 

                   O1       FE2   
      Nuclear      8.0000  26.0000
      Electronic  -7.9280 -24.0720
 
      Total        0.0720   1.9280
--
 
 
      All orbitals with orbital energies smaller than  E(LUMO)+0.5 are printed
 
++    Molecular orbitals:
      -------------------
 
      Title: UHF orbitals (beta)

      Molecular orbitals for symmetry species 1: a  
 
          Orbital            1         2         3         4         5         6         7         8         9        10    
          Energy         -264.5712  -33.2812  -28.3490  -28.3490  -28.3489  -21.1935   -4.9322   -3.3844   -3.3844   -3.3827
          Occ. No.          1.0000    1.0000    1.0000    1.0000    1.0000    1.0000    1.0000    1.0000    1.0000    1.0000
 
        1 O1     1s         0.0000   -0.0000   -0.0000    0.0000    0.0000    1.0000    0.0000   -0.0000    0.0000    0.0001
        2 O1     2s         0.0000   -0.0000   -0.0000    0.0000    0.0001    0.0015    0.0007   -0.0000    0.0000    0.0030
        3 O1     3s        -0.0000   -0.0000   -0.0000    0.0000    0.0001   -0.0021    0.0005    0.0000    0.0000    0.0011
        4 O1     2px        0.0000    0.0000    0.0000    0.0000   -0.0000    0.0000   -0.0000    0.0001    0.0006    0.0000
        5 O1     3px        0.0000   -0.0000    0.0000    0.0001   -0.0000   -0.0000    0.0000    0.0001    0.0006   -0.0000
        6 O1     2py        0.0000   -0.0000    0.0000   -0.0000    0.0000   -0.0000   -0.0000    0.0006   -0.0001    0.0000
        7 O1     3py       -0.0000   -0.0000    0.0001   -0.0000    0.0000    0.0000   -0.0000    0.0006   -0.0001    0.0000
        8 O1     2pz        0.0000    0.0001   -0.0000    0.0000    0.0000   -0.0001   -0.0008   -0.0000   -0.0000   -0.0028
        9 O1     3pz        0.0000    0.0001   -0.0000    0.0000    0.0000    0.0006   -0.0008   -0.0000    0.0000   -0.0002
       10 O1     3d2-       0.0000    0.0000   -0.0000    0.0000   -0.0000   -0.0000    0.0000    0.0000   -0.0000    0.0000
       11 O1     3d1-       0.0000   -0.0000   -0.0000    0.0000   -0.0000   -0.0000    0.0000   -0.0002    0.0000   -0.0000
       12 O1     3d0       -0.0000   -0.0000    0.0000   -0.0000   -0.0000   -0.0005    0.0002    0.0000    0.0000    0.0002
       13 O1     3d1+       0.0000    0.0000   -0.0000   -0.0000   -0.0000   -0.0000   -0.0000   -0.0000   -0.0002   -0.0000
       14 O1     3d2+      -0.0000    0.0000   -0.0000    0.0000   -0.0000   -0.0000    0.0000    0.0000    0.0000    0.0000
       15 FE2    1s         1.0000   -0.0000    0.0000   -0.0000   -0.0000    0.0000    0.0000   -0.0000    0.0000   -0.0000
       16 FE2    2s         0.0000    1.0000    0.0000   -0.0000   -0.0003    0.0000    0.0011   -0.0000    0.0000   -0.0000
       17 FE2    3s        -0.0000   -0.0011   -0.0000   -0.0000    0.0000    0.0001    0.9998    0.0000   -0.0000   -0.0029
       18 FE2    4s         0.0000    0.0003    0.0000   -0.0000   -0.0000    0.0006   -0.0033   -0.0000   -0.0000    0.0000
       19 FE2    5s        -0.0000   -0.0002    0.0000   -0.0000   -0.0000    0.0000    0.0033    0.0000   -0.0000   -0.0007
       20 FE2    2px       -0.0000    0.0000    0.0581    0.9983   -0.0000    0.0000    0.0000    0.0005    0.0032   -0.0000
       21 FE2    3px        0.0000   -0.0000   -0.0002   -0.0032    0.0000    0.0000   -0.0000    0.1640    0.9864   -0.0000
       22 FE2    4px        0.0000    0.0000    0.0000    0.0004   -0.0000   -0.0000   -0.0000   -0.0019   -0.0113    0.0000
       23 FE2    5px        0.0000    0.0000   -0.0001   -0.0011    0.0000    0.0000   -0.0000    0.0009    0.0052   -0.0000
       24 FE2    2py       -0.0000   -0.0000    0.9983   -0.0581    0.0000   -0.0000   -0.0000    0.0032   -0.0005    0.0000
       25 FE2    3py        0.0000    0.0000   -0.0032    0.0002   -0.0000   -0.0000   -0.0000    0.9864   -0.1640    0.0000
       26 FE2    4py        0.0000    0.0000    0.0004   -0.0000    0.0000   -0.0000    0.0000   -0.0113    0.0019   -0.0000
       27 FE2    5py        0.0000    0.0000   -0.0011    0.0001   -0.0000   -0.0000   -0.0000    0.0052   -0.0009    0.0000
       28 FE2    2pz        0.0000    0.0003   -0.0000    0.0000    1.0000    0.0000   -0.0000   -0.0000    0.0000    0.0032
       29 FE2    3pz       -0.0000    0.0000    0.0000   -0.0000   -0.0032    0.0001    0.0027   -0.0000    0.0000    0.9998
       30 FE2    4pz        0.0000    0.0001   -0.0000    0.0000    0.0004    0.0006   -0.0005    0.0000   -0.0000   -0.0117
       31 FE2    5pz       -0.0000    0.0000    0.0000   -0.0000   -0.0012    0.0001   -0.0002   -0.0000    0.0000    0.0052
       32 FE2    3d2-      -0.0000    0.0000   -0.0000    0.0000   -0.0000   -0.0000    0.0000   -0.0000   -0.0000    0.0000
       33 FE2    4d2-       0.0000   -0.0000    0.0000    0.0000   -0.0000    0.0000   -0.0000    0.0000    0.0000    0.0000
       34 FE2    3d1-       0.0000    0.0000    0.0000   -0.0000    0.0000   -0.0000    0.0000    0.0017   -0.0003    0.0000
       35 FE2    4d1-       0.0000   -0.0000   -0.0001    0.0000   -0.0000   -0.0000   -0.0000   -0.0002    0.0000   -0.0000
       36 FE2    3d0        0.0000    0.0000   -0.0000    0.0000    0.0000    0.0001   -0.0008   -0.0000    0.0000    0.0009
       37 FE2    4d0        0.0000    0.0000    0.0000   -0.0000   -0.0001    0.0003   -0.0001    0.0000    0.0000    0.0001
       38 FE2    3d1+       0.0000    0.0000    0.0000    0.0000   -0.0000   -0.0000    0.0000    0.0003    0.0017   -0.0000
       39 FE2    4d1+       0.0000    0.0000   -0.0000   -0.0001    0.0000   -0.0000   -0.0000   -0.0000   -0.0002    0.0000
       40 FE2    3d2+      -0.0000    0.0000   -0.0000    0.0000   -0.0000   -0.0000   -0.0000    0.0000   -0.0000   -0.0000
       41 FE2    4d2+      -0.0000    0.0000   -0.0000    0.0000    0.0000    0.0000    0.0000    0.0000    0.0000    0.0000
       42 FE2    4f3-      -0.0000    0.0000   -0.0000   -0.0000    0.0000   -0.0000    0.0000   -0.0000    0.0000   -0.0000
       43 FE2    4f2-       0.0000   -0.0000   -0.0000    0.0000   -0.0000   -0.0000    0.0000    0.0000    0.0000    0.0000
       44 FE2    4f1-      -0.0000   -0.0000   -0.0000    0.0000   -0.0000   -0.0000    0.0000   -0.0003    0.0001   -0.0000
       45 FE2    4f0        0.0000   -0.0000    0.0000   -0.0000   -0.0000    0.0000   -0.0002    0.0000   -0.0000   -0.0002
       46 FE2    4f1+       0.0000   -0.0000   -0.0000   -0.0000    0.0000   -0.0000   -0.0000   -0.0001   -0.0003    0.0000
       47 FE2    4f2+      -0.0000    0.0000    0.0000    0.0000    0.0000    0.0000   -0.0000   -0.0000    0.0000   -0.0000
       48 FE2    4f3+       0.0000   -0.0000   -0.0000   -0.0000   -0.0000   -0.0000    0.0000    0.0000    0.0000   -0.0000
 
          Orbital           11        12        13        14        15        16        17        18        19        20    
          Energy           -1.8883   -1.1776   -1.1776   -1.0761   -0.5450   -0.5391   -0.5391   -0.5372   -0.5372   -0.5261
          Occ. No.          1.0000    1.0000    1.0000    1.0000    0.0000    0.0000    0.0000    0.0000    0.0000    0.0000
 
        1 O1     1s        -0.0020   -0.0000   -0.0000   -0.0045    0.0040   -0.0000   -0.0000   -0.0000   -0.0000   -0.0120
        2 O1     2s         0.9972    0.0000   -0.0000   -0.0988    0.0511   -0.0000   -0.0000   -0.0000   -0.0000   -0.1389
        3 O1     3s        -0.0305   -0.0000    0.0000    0.0198    0.0088   -0.0000   -0.0000    0.0000   -0.0000   -0.0265
        4 O1     2px       -0.0000    0.9948   -0.0295   -0.0000    0.0000   -0.0000   -0.0000   -0.0641    0.0015    0.0000
        5 O1     3px        0.0000   -0.0699    0.0021    0.0000    0.0000   -0.0000   -0.0000   -0.0042    0.0001   -0.0000
        6 O1     2py       -0.0000    0.0295    0.9948   -0.0000   -0.0000    0.0000   -0.0000   -0.0015   -0.0641    0.0000
        7 O1     3py        0.0000   -0.0021   -0.0699    0.0000   -0.0000    0.0000   -0.0000   -0.0001   -0.0042    0.0000
        8 O1     2pz       -0.0529   -0.0000   -0.0000   -0.9432   -0.0860    0.0000    0.0000    0.0000    0.0000    0.2821
        9 O1     3pz       -0.0139    0.0000    0.0000    0.0211   -0.0143    0.0000    0.0000    0.0000   -0.0000    0.0241
       10 O1     3d2-      -0.0000   -0.0000    0.0000   -0.0000    0.0000    0.0000    0.0010    0.0000   -0.0000    0.0000
       11 O1     3d1-      -0.0000   -0.0006   -0.0187    0.0000    0.0000    0.0000    0.0000   -0.0001   -0.0042    0.0000
       12 O1     3d0       -0.0163    0.0000    0.0000    0.0288    0.0019   -0.0000    0.0000    0.0000    0.0000    0.0052
       13 O1     3d1+      -0.0000   -0.0187    0.0006   -0.0000   -0.0000   -0.0000   -0.0000   -0.0042    0.0001   -0.0000
       14 O1     3d2+      -0.0000    0.0000    0.0000   -0.0000   -0.0000    0.0010   -0.0000    0.0000    0.0000   -0.0000
       15 FE2    1s        -0.0001   -0.0000   -0.0000   -0.0005   -0.0001    0.0000    0.0000    0.0000    0.0000    0.0003
       16 FE2    2s        -0.0011   -0.0000   -0.0000   -0.0038   -0.0006    0.0000    0.0000    0.0000    0.0000    0.0019
       17 FE2    3s        -0.0073    0.0000   -0.0000   -0.0211   -0.0067    0.0000    0.0000    0.0000    0.0000    0.0141
       18 FE2    4s        -0.0005    0.0000    0.0000    0.0975   -0.7623    0.0000   -0.0000    0.0000    0.0000    0.6575
       19 FE2    5s        -0.0061    0.0000   -0.0000   -0.0354    0.1774   -0.0000    0.0000   -0.0000   -0.0000   -0.1509
       20 FE2    2px        0.0000   -0.0001    0.0000    0.0000    0.0000   -0.0000   -0.0000   -0.0000    0.0000   -0.0000
       21 FE2    3px       -0.0000   -0.0035    0.0001   -0.0000   -0.0000    0.0000   -0.0000   -0.0011    0.0000    0.0000
       22 FE2    4px       -0.0000    0.0087   -0.0003   -0.0000   -0.0000   -0.0000    0.0000    0.0302   -0.0007    0.0000
       23 FE2    5px       -0.0000   -0.0007    0.0000    0.0000    0.0000    0.0000    0.0000    0.0015   -0.0000   -0.0000
       24 FE2    2py        0.0000   -0.0000   -0.0001    0.0000    0.0000    0.0000    0.0000   -0.0000   -0.0000    0.0000
       25 FE2    3py       -0.0000   -0.0001   -0.0035    0.0000   -0.0000    0.0000    0.0000   -0.0000   -0.0011    0.0000
       26 FE2    4py       -0.0000    0.0003    0.0087   -0.0000    0.0000   -0.0000    0.0000    0.0007    0.0302   -0.0000
       27 FE2    5py       -0.0000   -0.0000   -0.0007    0.0000    0.0000   -0.0000    0.0000    0.0000    0.0015   -0.0000
       28 FE2    2pz       -0.0003    0.0000   -0.0000   -0.0009   -0.0002    0.0000    0.0000   -0.0000    0.0000    0.0004
       29 FE2    3pz       -0.0103   -0.0000   -0.0000   -0.0212   -0.0037    0.0000   -0.0000    0.0000    0.0000    0.0081
       30 FE2    4pz        0.0026   -0.0000    0.0000    0.0873   -0.0068    0.0000   -0.0000   -0.0000   -0.0000   -0.0356
       31 FE2    5pz       -0.0027    0.0000    0.0000   -0.0002   -0.0021    0.0000   -0.0000   -0.0000    0.0000   -0.0027
       32 FE2    3d2-      -0.0000   -0.0000    0.0000   -0.0000   -0.0000    0.0435    0.9903   -0.0000   -0.0000   -0.0000
       33 FE2    4d2-      -0.0000   -0.0000    0.0000   -0.0000   -0.0000    0.0058    0.1316   -0.0000   -0.0000   -0.0000
       34 FE2    3d1-      -0.0000    0.0005    0.0181   -0.0000   -0.0000   -0.0000    0.0000    0.0232    0.9920   -0.0000
       35 FE2    4d1-      -0.0000    0.0002    0.0068   -0.0000   -0.0000   -0.0000    0.0000    0.0031    0.1326   -0.0000
       36 FE2    3d0        0.0097   -0.0000    0.0000    0.0971    0.6322   -0.0000    0.0000    0.0000    0.0000    0.7660
       37 FE2    4d0        0.0033   -0.0000    0.0000    0.0327    0.0863   -0.0000    0.0000    0.0000    0.0000    0.0899
       38 FE2    3d1+      -0.0000    0.0181   -0.0005   -0.0000   -0.0000    0.0000    0.0000    0.9920   -0.0232   -0.0000
       39 FE2    4d1+      -0.0000    0.0068   -0.0002   -0.0000   -0.0000    0.0000    0.0000    0.1326   -0.0031   -0.0000
       40 FE2    3d2+      -0.0000   -0.0000   -0.0000    0.0000    0.0000    0.9903   -0.0435   -0.0000    0.0000   -0.0000
       41 FE2    4d2+       0.0000   -0.0000   -0.0000   -0.0000    0.0000    0.1316   -0.0058   -0.0000    0.0000   -0.0000
       42 FE2    4f3-       0.0000   -0.0000    0.0000   -0.0000    0.0000   -0.0000   -0.0000    0.0000    0.0000    0.0000
       43 FE2    4f2-      -0.0000   -0.0000    0.0000   -0.0000   -0.0000    0.0001    0.0012   -0.0000   -0.0000    0.0000
       44 FE2    4f1-      -0.0000    0.0000    0.0013   -0.0000   -0.0000   -0.0000    0.0000    0.0000    0.0013   -0.0000
       45 FE2    4f0        0.0012    0.0000    0.0000    0.0038    0.0012    0.0000    0.0000    0.0000    0.0000   -0.0000
       46 FE2    4f1+       0.0000    0.0013   -0.0000   -0.0000   -0.0000    0.0000    0.0000    0.0013   -0.0000   -0.0000
       47 FE2    4f2+      -0.0000   -0.0000   -0.0000   -0.0000    0.0000    0.0012   -0.0001   -0.0000    0.0000    0.0000
       48 FE2    4f3+       0.0000   -0.0000    0.0000   -0.0000   -0.0000   -0.0000    0.0000    0.0000   -0.0000   -0.0000
 
          Orbital           21        22        23        24    
          Energy           -0.3738   -0.3738   -0.3316   -0.2173
          Occ. No.          0.0000    0.0000    0.0000    0.0000
 
        1 O1     1s         0.0000   -0.0000   -0.0294   -0.0199
        2 O1     2s         0.0000   -0.0000   -0.2975   -0.1705
        3 O1     3s         0.0000   -0.0000   -0.0517   -0.0438
        4 O1     2px       -0.0138   -0.0914    0.0000    0.0000
        5 O1     3px        0.0010    0.0066   -0.0000    0.0000
        6 O1     2py        0.0914   -0.0138    0.0000   -0.0000
        7 O1     3py       -0.0066    0.0010    0.0000   -0.0000
        8 O1     2pz        0.0000    0.0000    0.3118   -0.0345
        9 O1     3pz       -0.0000   -0.0000    0.0456    0.0132
       10 O1     3d2-       0.0000    0.0000   -0.0000   -0.0000
       11 O1     3d1-       0.0069   -0.0010    0.0000    0.0000
       12 O1     3d0       -0.0000    0.0000    0.0055   -0.0076
       13 O1     3d1+      -0.0010   -0.0069   -0.0000   -0.0000
       14 O1     3d2+       0.0000    0.0000    0.0000    0.0000
       15 FE2    1s        -0.0000   -0.0000    0.0004    0.0001
       16 FE2    2s        -0.0000    0.0000    0.0030    0.0007
       17 FE2    3s        -0.0000   -0.0000    0.0167    0.0008
       18 FE2    4s        -0.0000    0.0000    0.1249    0.2706
       19 FE2    5s         0.0000    0.0000   -0.0406    0.9854
       20 FE2    2px       -0.0000   -0.0003    0.0000   -0.0000
       21 FE2    3px        0.0017    0.0109   -0.0000    0.0000
       22 FE2    4px        0.1493    0.9883   -0.0000   -0.0000
       23 FE2    5px        0.0114    0.0751    0.0000   -0.0000
       24 FE2    2py        0.0003   -0.0000    0.0000   -0.0000
       25 FE2    3py       -0.0109    0.0017   -0.0000    0.0000
       26 FE2    4py       -0.9883    0.1493   -0.0000    0.0000
       27 FE2    5py       -0.0751    0.0114   -0.0000   -0.0000
       28 FE2    2pz        0.0000    0.0000    0.0003    0.0001
       29 FE2    3pz       -0.0000    0.0000    0.0249    0.0040
       30 FE2    4pz       -0.0000    0.0000    1.0839    0.0806
       31 FE2    5pz       -0.0000    0.0000    0.0832    0.0097
       32 FE2    3d2-      -0.0000    0.0000    0.0000    0.0000
       33 FE2    4d2-       0.0000   -0.0000    0.0000    0.0000
       34 FE2    3d1-       0.0256   -0.0039   -0.0000    0.0000
       35 FE2    4d1-      -0.0058    0.0009    0.0000   -0.0000
       36 FE2    3d0        0.0000   -0.0000    0.0769    0.0213
       37 FE2    4d0       -0.0000   -0.0000   -0.0096   -0.0061
       38 FE2    3d1+      -0.0039   -0.0256   -0.0000   -0.0000
       39 FE2    4d1+       0.0009    0.0058   -0.0000    0.0000
       40 FE2    3d2+      -0.0000    0.0000   -0.0000   -0.0000
       41 FE2    4d2+      -0.0000    0.0000   -0.0000   -0.0000
       42 FE2    4f3-      -0.0000   -0.0000    0.0000   -0.0000
       43 FE2    4f2-      -0.0000    0.0000   -0.0000   -0.0000
       44 FE2    4f1-       0.0001   -0.0000    0.0000   -0.0000
       45 FE2    4f0        0.0000    0.0000   -0.0021   -0.0006
       46 FE2    4f1+      -0.0000   -0.0001    0.0000    0.0000
       47 FE2    4f2+       0.0000    0.0000    0.0000   -0.0000
       48 FE2    4f3+       0.0000   -0.0000   -0.0000   -0.0000
--
 
 
++    Molecular charges:
      ------------------
 
      Mulliken charges per centre and basis function type
      ---------------------------------------------------
 
                            O1                      FE2   
                     alpha        beta       alpha        beta
      1s           1.0000      1.0000      1.0000      1.0000
      2s           0.9964      1.0001      1.0000      1.0000
      2px          0.0000      0.9927      1.0000      1.0000
      2pz          0.9421      0.9314      1.0000      1.0000
      2py          0.0000      0.9927      1.0000      1.0000
      3s          -0.0026      0.0026      0.9997      0.9998
      3px         -0.0001      0.0045      0.9993      0.9998
      3pz         -0.0164     -0.0007      0.9989      0.9997
      3py         -0.0001      0.0045      0.9993      0.9998
      4s           0.0000      0.0000      0.8686      0.0209
      3d2+        -0.0000      0.0000      0.9821      0.0000
      3d1+        -0.0000      0.0004      0.9822      0.0008
      3d0          0.0019      0.0017      0.9817      0.0146
      3d1-        -0.0000      0.0004      0.9822      0.0008
      3d2-        -0.0000      0.0000      0.9821      0.0000
      4px          0.0000      0.0000      0.0004      0.0009
      4pz          0.0000      0.0000      0.0662      0.0214
      4py          0.0000      0.0000      0.0004      0.0009
      5s           0.0000      0.0000      0.1362      0.0036
      4d2+         0.0000      0.0000      0.0179      0.0000
      4d1+         0.0000      0.0000      0.0179      0.0008
      4d0          0.0000      0.0000      0.0273      0.0052
      4d1-         0.0000      0.0000      0.0179      0.0008
      4d2-         0.0000      0.0000      0.0179      0.0000
      5px          0.0000      0.0000      0.0003     -0.0000
      5pz          0.0000      0.0000     -0.0003     -0.0004
      5py          0.0000      0.0000      0.0003     -0.0000
      4f3+         0.0000      0.0000      0.0000      0.0000
      4f2+         0.0000      0.0000      0.0000      0.0000
      4f1+         0.0000      0.0000      0.0000      0.0000
      4f0          0.0000      0.0000      0.0002      0.0002
      4f1-         0.0000      0.0000      0.0000      0.0000
      4f2-         0.0000      0.0000      0.0000      0.0000
      4f3-         0.0000      0.0000      0.0000      0.0000
      Total        2.9213      4.9302     15.0787      9.0698
      Total              7.8515                 24.1485
 
      Charge            0.1485                  1.8515
 
      Total electronic charge=   32.000000
 
      Total            charge=    2.000000
--
 
 
  Input file to MOLDEN was generated!
 
 
++    Static properties:
      ------------------
 
 
      LoProp Charges per center
 

                   O1       FE2   
      Nuclear      8.0000  26.0000
      Electronic  -7.9280 -24.0720
 
      Total        0.0720   1.9280
--
 
 
++    Natural Bond Order analysis
      ---------------------------
      Based on LoProp computed density
      -------------------------------------------------------------------------------------
      Atom A       Atom B       Bond Order
        O1           FE2            0.999
      -------------------------------------------------------------------------------------
      NBO located     19.999 core electrons.
      NBO located      1.999 lone pair electrons.
      NBO located      1.998 electrons involved in    1 bonds.
      NBO located      0.998 non-bonded electrons on atom O1        
      NBO located      0.998 non-bonded electrons on atom O1        
      NBO located      0.997 non-bonded electrons on atom FE2       
      NBO located      0.994 non-bonded electrons on atom FE2       
      NBO located      1.001 non-bonded electrons on atom FE2       
      NBO located      1.001 non-bonded electrons on atom FE2       
      NBO located      1.000 non-bonded electrons on atom FE2       
      NBO located      1.000 non-bonded electrons on atom FE2       
      The remaining    0.017 electrons are to be considered as diffuse
--
 
 
++    Molecular orbitals:
      -------------------
 
      Title: Natural orbitals

      Molecular orbitals for symmetry species 1: a  
 
          Orbital            1         2         3         4         5         6         7         8         9        10    
          Energy         -264.5751  -33.0090  -27.0500  -27.6541  -27.6532  -21.4462   -5.7473   -4.4700   -4.4454   -4.4462
          Occ. No.          2.0000    2.0000    2.0000    2.0000    2.0000    2.0000    2.0000    1.9999    1.9999    1.9999
 
        1 O1     1s         0.0000   -0.0003    0.2777    0.0000    0.0000    0.9534    0.1113   -0.0168   -0.0000   -0.0000
        2 O1     2s        -0.0000   -0.0005   -0.0126   -0.0000   -0.0000   -0.0307   -0.0047   -0.0275    0.0000    0.0000
        3 O1     3s        -0.0000   -0.0001   -0.0004    0.0000   -0.0000   -0.0003    0.0011   -0.0025    0.0000    0.0000
        4 O1     2px        0.0000    0.0000    0.0000   -0.0000   -0.0001    0.0000   -0.0000    0.0000    0.0000   -0.0002
        5 O1     3px        0.0000   -0.0000    0.0000   -0.0000   -0.0001    0.0000    0.0000   -0.0000    0.0000   -0.0004
        6 O1     2py        0.0000    0.0000   -0.0000   -0.0001    0.0000    0.0000   -0.0000    0.0000    0.0002    0.0000
        7 O1     3py       -0.0000    0.0000   -0.0000   -0.0001    0.0000    0.0000    0.0000   -0.0000    0.0004    0.0000
        8 O1     2pz        0.0000    0.0004    0.0049   -0.0000    0.0000   -0.0043   -0.0173    0.1108   -0.0000   -0.0000
        9 O1     3pz        0.0000    0.0002    0.0004    0.0000    0.0000    0.0009   -0.0012    0.0008   -0.0000   -0.0000
       10 O1     3d2-       0.0000   -0.0000   -0.0000   -0.0000    0.0000   -0.0000    0.0000   -0.0000    0.0000    0.0000
       11 O1     3d1-       0.0000   -0.0000    0.0000    0.0000   -0.0000   -0.0000    0.0000   -0.0000   -0.0002   -0.0000
       12 O1     3d0       -0.0000   -0.0000   -0.0002    0.0000   -0.0000    0.0001    0.0008   -0.0035    0.0000    0.0000
       13 O1     3d1+       0.0000    0.0000   -0.0000    0.0000    0.0000   -0.0000   -0.0000    0.0000   -0.0000    0.0002
       14 O1     3d2+      -0.0000   -0.0000   -0.0000   -0.0000    0.0000   -0.0000    0.0000   -0.0000    0.0000   -0.0000
       15 FE2    1s         1.0000   -0.0000    0.0000   -0.0000    0.0000   -0.0000    0.0000    0.0001   -0.0000    0.0000
       16 FE2    2s         0.0000    0.9937    0.0032    0.0000   -0.0000   -0.0136    0.1109   -0.0010    0.0000    0.0000
       17 FE2    3s        -0.0000   -0.1118    0.0048   -0.0000   -0.0000   -0.1163    0.9861    0.0171   -0.0000   -0.0000
       18 FE2    4s         0.0000    0.0006   -0.0002    0.0000    0.0000    0.0011   -0.0016   -0.0096    0.0000    0.0000
       19 FE2    5s        -0.0000   -0.0006    0.0003   -0.0000   -0.0000   -0.0006    0.0038    0.0051   -0.0000   -0.0000
       20 FE2    2px       -0.0000    0.0000   -0.0000    0.0534    0.9827   -0.0000    0.0000    0.0000    0.0154   -0.1768
       21 FE2    3px        0.0000   -0.0000    0.0000   -0.0096   -0.1772    0.0000   -0.0000   -0.0000    0.0855   -0.9802
       22 FE2    4px       -0.0000    0.0000   -0.0000    0.0001    0.0026   -0.0000    0.0000    0.0000   -0.0013    0.0149
       23 FE2    5px        0.0000   -0.0000   -0.0000   -0.0001   -0.0019    0.0000   -0.0000   -0.0000    0.0010   -0.0114
       24 FE2    2py        0.0000   -0.0000    0.0000    0.9827   -0.0534   -0.0000   -0.0000   -0.0000    0.1767    0.0154
       25 FE2    3py       -0.0000    0.0000   -0.0000   -0.1771    0.0096    0.0000    0.0000    0.0000    0.9802    0.0855
       26 FE2    4py        0.0000   -0.0000    0.0000    0.0026   -0.0001   -0.0000   -0.0000   -0.0000   -0.0149   -0.0013
       27 FE2    5py       -0.0000    0.0000   -0.0000   -0.0019    0.0001    0.0000    0.0000    0.0000    0.0114    0.0010
       28 FE2    2pz       -0.0000   -0.0032    0.9432   -0.0000    0.0000   -0.2740   -0.0347   -0.1837    0.0000   -0.0000
       29 FE2    3pz       -0.0000   -0.0025   -0.1813    0.0000   -0.0000    0.0338    0.0162   -0.9724    0.0000    0.0000
       30 FE2    4pz        0.0000    0.0001    0.0023   -0.0000    0.0000    0.0000    0.0004    0.0027   -0.0000   -0.0000
       31 FE2    5pz       -0.0000    0.0000   -0.0019    0.0000   -0.0000    0.0005   -0.0003   -0.0111    0.0000    0.0000
       32 FE2    3d2-      -0.0000    0.0000   -0.0000    0.0000   -0.0000   -0.0000   -0.0000    0.0000   -0.0000    0.0000
       33 FE2    4d2-       0.0000   -0.0000   -0.0000   -0.0000    0.0000    0.0000   -0.0000    0.0000    0.0000   -0.0000
       34 FE2    3d1-      -0.0000    0.0000   -0.0000   -0.0003    0.0000    0.0000    0.0000    0.0000    0.0017    0.0001
       35 FE2    4d1-       0.0000   -0.0000    0.0000    0.0000   -0.0000   -0.0000   -0.0000    0.0000   -0.0003   -0.0000
       36 FE2    3d0        0.0000    0.0001   -0.0006    0.0000   -0.0000    0.0004    0.0008   -0.0117    0.0000    0.0000
       37 FE2    4d0        0.0000    0.0000   -0.0001    0.0000   -0.0000    0.0000    0.0000   -0.0027    0.0000   -0.0000
       38 FE2    3d1+       0.0000   -0.0000    0.0000   -0.0000   -0.0003    0.0000   -0.0000    0.0000    0.0001   -0.0017
       39 FE2    4d1+       0.0000    0.0000   -0.0000    0.0000    0.0000   -0.0000   -0.0000    0.0000   -0.0000    0.0003
       40 FE2    3d2+      -0.0000    0.0000    0.0000   -0.0000    0.0000    0.0000   -0.0000   -0.0000    0.0000    0.0000
       41 FE2    4d2+      -0.0000   -0.0000   -0.0000    0.0000   -0.0000   -0.0000    0.0000   -0.0000   -0.0000   -0.0000
       42 FE2    4f3-      -0.0000   -0.0000    0.0000    0.0000   -0.0000   -0.0000    0.0000    0.0000   -0.0000   -0.0000
       43 FE2    4f2-       0.0000   -0.0000   -0.0000   -0.0000   -0.0000    0.0000   -0.0000    0.0000    0.0000   -0.0000
       44 FE2    4f1-       0.0000   -0.0000    0.0000    0.0000   -0.0000   -0.0000   -0.0000   -0.0000   -0.0003   -0.0000
       45 FE2    4f0        0.0000    0.0000    0.0000   -0.0000    0.0000   -0.0000   -0.0001   -0.0002    0.0000    0.0000
       46 FE2    4f1+       0.0000    0.0000   -0.0000    0.0000    0.0000   -0.0000    0.0000    0.0000   -0.0000    0.0003
       47 FE2    4f2+      -0.0000    0.0000    0.0000    0.0000   -0.0000    0.0000   -0.0000    0.0000   -0.0000   -0.0000
       48 FE2    4f3+       0.0000   -0.0000   -0.0000   -0.0000   -0.0000   -0.0000    0.0000    0.0000    0.0000   -0.0000
 
          Orbital           11        12        13        14        15        16        17        18        19        20    
          Energy           -1.1358   -1.6935   -0.9014   -0.9014   -1.0408   -1.0489   -1.0489   -0.7181   -0.8709   -0.8709
          Occ. No.          1.9981    1.9971    1.0296    1.0296    1.0000    1.0000    1.0000    1.0000    0.9704    0.9704
 
        1 O1     1s         0.0219   -0.0266   -0.0000   -0.0000    0.0008   -0.0000    0.0000    0.0059   -0.0000   -0.0000
        2 O1     2s         0.3888   -0.9217   -0.0000   -0.0000    0.0222   -0.0000    0.0000    0.0832   -0.0000   -0.0000
        3 O1     3s        -0.0156    0.0037   -0.0000   -0.0000    0.0091   -0.0000    0.0000    0.0228   -0.0000   -0.0000
        4 O1     2px        0.0000    0.0000    0.6930   -0.0255   -0.0000   -0.0000    0.0000   -0.0000   -0.7140    0.0256
        5 O1     3px       -0.0000   -0.0000   -0.0504    0.0019    0.0000    0.0000   -0.0000   -0.0000    0.0484   -0.0017
        6 O1     2py        0.0000    0.0000    0.0255    0.6930   -0.0000   -0.0000    0.0000   -0.0000   -0.0256   -0.7140
        7 O1     3py       -0.0000   -0.0000   -0.0019   -0.0504   -0.0000    0.0000    0.0000   -0.0000    0.0017    0.0484
        8 O1     2pz        0.8772    0.3146    0.0000    0.0000   -0.1218    0.0000   -0.0000   -0.2260    0.0000    0.0000
        9 O1     3pz       -0.0099    0.0134    0.0000    0.0000   -0.0141    0.0000   -0.0000   -0.0501    0.0000    0.0000
       10 O1     3d2-       0.0000    0.0000   -0.0000    0.0000   -0.0000   -0.0000    0.0001    0.0000    0.0000   -0.0000
       11 O1     3d1-      -0.0000   -0.0000   -0.0005   -0.0125    0.0000   -0.0000   -0.0000    0.0000    0.0005    0.0140
       12 O1     3d0       -0.0207   -0.0166   -0.0000   -0.0000    0.0043   -0.0000    0.0000    0.0048   -0.0000   -0.0000
       13 O1     3d1+       0.0000   -0.0000   -0.0125    0.0005    0.0000    0.0000   -0.0000    0.0000    0.0140   -0.0005
       14 O1     3d2+       0.0000    0.0000    0.0000    0.0000   -0.0000   -0.0001   -0.0000    0.0000   -0.0000   -0.0000
       15 FE2    1s         0.0005    0.0003    0.0000    0.0000   -0.0001    0.0000   -0.0000   -0.0003    0.0000    0.0000
       16 FE2    2s         0.0054    0.0026    0.0000    0.0000   -0.0010    0.0000   -0.0000   -0.0022    0.0000    0.0000
       17 FE2    3s         0.0334    0.0183    0.0000    0.0000   -0.0059    0.0000   -0.0000   -0.0167    0.0000    0.0000
       18 FE2    4s        -0.0921   -0.0225    0.0000    0.0000   -0.0008   -0.0000    0.0000   -0.9590    0.0000    0.0000
       19 FE2    5s         0.0365    0.0161   -0.0000   -0.0000   -0.0037    0.0000   -0.0000    0.3682   -0.0000   -0.0000
       20 FE2    2px       -0.0000   -0.0000   -0.0001    0.0000    0.0000    0.0000   -0.0000    0.0000    0.0001   -0.0000
       21 FE2    3px       -0.0000   -0.0000   -0.0033    0.0001    0.0000    0.0000   -0.0000   -0.0000    0.0010   -0.0000
       22 FE2    4px        0.0000    0.0000    0.0068   -0.0002   -0.0000    0.0000   -0.0000   -0.0000   -0.0056    0.0002
       23 FE2    5px       -0.0000    0.0000   -0.0007    0.0000   -0.0000    0.0000   -0.0000    0.0000    0.0003   -0.0000
       24 FE2    2py        0.0000    0.0000   -0.0000   -0.0001   -0.0000    0.0000    0.0000   -0.0000    0.0000    0.0001
       25 FE2    3py       -0.0000   -0.0000   -0.0001   -0.0033   -0.0000   -0.0000   -0.0000   -0.0000    0.0000    0.0010
       26 FE2    4py        0.0000    0.0000    0.0002    0.0068   -0.0000   -0.0000   -0.0000   -0.0000   -0.0002   -0.0056
       27 FE2    5py       -0.0000   -0.0000   -0.0000   -0.0007    0.0000   -0.0000   -0.0000    0.0000    0.0000    0.0003
       28 FE2    2pz        0.0139    0.0081    0.0000    0.0000   -0.0002    0.0000   -0.0000   -0.0005    0.0000    0.0000
       29 FE2    3pz        0.1129    0.0842    0.0000    0.0000   -0.0032    0.0000   -0.0000   -0.0078    0.0000    0.0000
       30 FE2    4pz       -0.1041   -0.0425   -0.0000   -0.0000    0.0148   -0.0000    0.0000    0.1123   -0.0000   -0.0000
       31 FE2    5pz        0.0019    0.0044    0.0000    0.0000   -0.0028    0.0000   -0.0000   -0.0052    0.0000    0.0000
       32 FE2    3d2-       0.0000    0.0000    0.0000    0.0000    0.0000    0.0545   -0.9895   -0.0000   -0.0000   -0.0000
       33 FE2    4d2-       0.0000    0.0000   -0.0000   -0.0000   -0.0000   -0.0074    0.1336    0.0000    0.0000    0.0000
       34 FE2    3d1-       0.0000    0.0000    0.0258    0.7029    0.0000    0.0000    0.0000    0.0000    0.0251    0.6980
       35 FE2    4d1-       0.0000    0.0000   -0.0032   -0.0881   -0.0000   -0.0000   -0.0000   -0.0000   -0.0036   -0.1005
       36 FE2    3d0       -0.0895   -0.0359    0.0000    0.0000   -0.9882    0.0000   -0.0000   -0.0064    0.0000    0.0000
       37 FE2    4d0       -0.0251   -0.0139   -0.0000   -0.0000    0.1360   -0.0000    0.0000    0.0115   -0.0000   -0.0000
       38 FE2    3d1+       0.0000    0.0000    0.7029   -0.0258    0.0000    0.0000   -0.0000    0.0000    0.6980   -0.0251
       39 FE2    4d1+       0.0000    0.0000   -0.0881    0.0032   -0.0000   -0.0000    0.0000   -0.0000   -0.1005    0.0036
       40 FE2    3d2+      -0.0000   -0.0000   -0.0000   -0.0000    0.0000    0.9895    0.0545   -0.0000   -0.0000   -0.0000
       41 FE2    4d2+       0.0000    0.0000    0.0000    0.0000   -0.0000   -0.1336   -0.0074    0.0000    0.0000    0.0000
       42 FE2    4f3-       0.0000   -0.0000   -0.0000    0.0000   -0.0000   -0.0000    0.0000   -0.0000    0.0000    0.0000
       43 FE2    4f2-       0.0000    0.0000   -0.0000   -0.0000    0.0000    0.0000   -0.0006   -0.0000    0.0000   -0.0000
       44 FE2    4f1-       0.0000    0.0000    0.0001    0.0015    0.0000   -0.0000   -0.0000    0.0000   -0.0000   -0.0004
       45 FE2    4f0       -0.0032   -0.0025   -0.0000   -0.0000   -0.0003    0.0000   -0.0000    0.0013   -0.0000   -0.0000
       46 FE2    4f1+       0.0000    0.0000    0.0015   -0.0001    0.0000    0.0000    0.0000    0.0000   -0.0004    0.0000
       47 FE2    4f2+       0.0000    0.0000   -0.0000   -0.0000    0.0000    0.0006    0.0000   -0.0000   -0.0000    0.0000
       48 FE2    4f3+       0.0000   -0.0000    0.0000    0.0000    0.0000   -0.0000   -0.0000   -0.0000    0.0000    0.0000
 
          Orbital           21        22        23        24        25        26        27        28        29        30    
          Energy            0.6705    0.2219    0.9934    0.9934    1.3685   -0.0129    1.0249    0.0837    0.0837    0.9157
          Occ. No.          0.0029    0.0019    0.0001    0.0001    0.0001    0.0000    0.0000    0.0000    0.0000    0.0000
 
        1 O1     1s        -0.0070    0.0088   -0.0000    0.0000    0.0064   -0.0084   -0.0658   -0.0000   -0.0000    0.0287
        2 O1     2s        -0.0789    0.1149    0.0000    0.0000    0.0305   -0.0987   -0.6427   -0.0000   -0.0000    0.2675
        3 O1     3s         0.5232    0.3924    0.0000   -0.0000   -0.0471   -0.2256   -1.1563   -0.0000   -0.0000   -0.2466
        4 O1     2px        0.0000   -0.0000    0.0006    0.0007    0.0000    0.0000   -0.0000   -0.1409    0.0728    0.0000
        5 O1     3px        0.0000    0.0000   -0.0207   -0.0253    0.0000    0.0000    0.0000   -0.3066    0.1584    0.0000
        6 O1     2py        0.0000   -0.0000    0.0007   -0.0006    0.0000    0.0000    0.0000   -0.0728   -0.1409   -0.0000
        7 O1     3py       -0.0000    0.0000   -0.0253    0.0207    0.0000    0.0000    0.0000   -0.1584   -0.3066   -0.0000
        8 O1     2pz        0.1614   -0.1574   -0.0000    0.0000    0.0905    0.2122    0.3824    0.0000    0.0000   -0.1928
        9 O1     3pz       -0.1625    0.4650   -0.0000    0.0000    0.3780    0.6287    0.6438   -0.0000   -0.0000   -0.0878
       10 O1     3d2-       0.0000    0.0000   -0.0000    0.0000    0.0000    0.0000   -0.0000   -0.0000    0.0000    0.0000
       11 O1     3d1-       0.0000    0.0000   -0.0023    0.0019   -0.0000    0.0000    0.0000    0.0214    0.0414    0.0000
       12 O1     3d0        0.6294    0.3743    0.0000   -0.0000   -0.0976   -0.0632    0.1219   -0.0000    0.0000    0.6442
       13 O1     3d1+       0.0000    0.0000   -0.0019   -0.0023   -0.0000   -0.0000    0.0000    0.0414   -0.0214   -0.0000
       14 O1     3d2+       0.0000    0.0000    0.0000    0.0000   -0.0000   -0.0000    0.0000    0.0000   -0.0000   -0.0000
       15 FE2    1s        -0.0011    0.0011   -0.0000    0.0000    0.0014    0.0025    0.0033    0.0000   -0.0000   -0.0005
       16 FE2    2s        -0.0079    0.0077   -0.0000    0.0000    0.0104    0.0182    0.0243    0.0000   -0.0000   -0.0037
       17 FE2    3s        -0.0428    0.0322   -0.0000    0.0000    0.0512    0.0944    0.1262    0.0000   -0.0000   -0.0200
       18 FE2    4s        -0.1310    0.0283   -0.0000    0.0000    0.2083    0.0403    0.8379    0.0000   -0.0000   -0.1651
       19 FE2    5s        -0.0042    0.1495    0.0000    0.0000    0.0240   -0.8593    0.4103    0.0000    0.0000   -0.0870
       20 FE2    2px        0.0000   -0.0000   -0.0001   -0.0001    0.0000    0.0000   -0.0000    0.0004   -0.0002   -0.0000
       21 FE2    3px       -0.0000   -0.0000   -0.0107   -0.0131   -0.0000   -0.0000   -0.0000    0.0146   -0.0076   -0.0000
       22 FE2    4px       -0.0000    0.0000   -0.3197   -0.3899    0.0000   -0.0000   -0.0000    0.8218   -0.4246   -0.0000
       23 FE2    5px        0.0000   -0.0000    0.5469    0.6669    0.0000   -0.0000   -0.0000    0.4806   -0.2484    0.0000
       24 FE2    2py        0.0000   -0.0000   -0.0001    0.0001   -0.0000   -0.0000   -0.0000    0.0002    0.0004    0.0000
       25 FE2    3py        0.0000   -0.0000   -0.0131    0.0107   -0.0000   -0.0000   -0.0000    0.0076    0.0146    0.0000
       26 FE2    4py       -0.0000    0.0000   -0.3899    0.3197   -0.0000   -0.0000   -0.0000    0.4246    0.8218    0.0000
       27 FE2    5py        0.0000   -0.0000    0.6669   -0.5469    0.0000    0.0000   -0.0000    0.2484    0.4806   -0.0000
       28 FE2    2pz       -0.0016    0.0007   -0.0000    0.0000    0.0018    0.0029    0.0044    0.0000   -0.0000   -0.0007
       29 FE2    3pz       -0.0284   -0.0043   -0.0000    0.0000    0.0436    0.0577    0.0957    0.0000   -0.0000   -0.0188
       30 FE2    4pz        0.3740   -0.6709   -0.0000    0.0000    0.1902    0.3803    0.9157    0.0000    0.0000   -0.2406
       31 FE2    5pz       -0.0372    0.0646    0.0000   -0.0000   -0.9484    0.1201    0.3997    0.0000    0.0000   -0.1483
       32 FE2    3d2-       0.0000   -0.0000    0.0000    0.0000   -0.0000   -0.0000    0.0000   -0.0000    0.0000   -0.0000
       33 FE2    4d2-      -0.0000   -0.0000    0.0000    0.0000   -0.0000   -0.0000    0.0000   -0.0000    0.0000   -0.0000
       34 FE2    3d1-       0.0000   -0.0000    0.0006   -0.0005   -0.0000   -0.0000   -0.0000    0.0205    0.0396    0.0000
       35 FE2    4d1-      -0.0000    0.0000   -0.0051    0.0042   -0.0000   -0.0000   -0.0000    0.0990    0.1917    0.0000
       36 FE2    3d0       -0.0292   -0.0022   -0.0000    0.0000    0.0462    0.0872    0.1790    0.0000   -0.0000   -0.1210
       37 FE2    4d0        0.0347    0.1633   -0.0000    0.0000    0.1726    0.3153    0.6465    0.0000   -0.0000   -0.6685
       38 FE2    3d1+       0.0000   -0.0000    0.0005    0.0006   -0.0000   -0.0000   -0.0000    0.0396   -0.0205   -0.0000
       39 FE2    4d1+      -0.0000    0.0000   -0.0042   -0.0051   -0.0000   -0.0000   -0.0000    0.1917   -0.0990   -0.0000
       40 FE2    3d2+      -0.0000    0.0000   -0.0000   -0.0000   -0.0000   -0.0000    0.0000    0.0000   -0.0000   -0.0000
       41 FE2    4d2+      -0.0000    0.0000   -0.0000   -0.0000   -0.0000   -0.0000    0.0000    0.0000   -0.0000   -0.0000
       42 FE2    4f3-       0.0000   -0.0000   -0.0000    0.0000    0.0000    0.0000   -0.0000   -0.0000   -0.0000    0.0000
       43 FE2    4f2-      -0.0000   -0.0000   -0.0000    0.0000   -0.0000    0.0000    0.0000   -0.0000   -0.0000   -0.0000
       44 FE2    4f1-      -0.0000    0.0000    0.0035   -0.0029    0.0000    0.0000   -0.0000    0.0027    0.0052    0.0000
       45 FE2    4f0        0.0077    0.0030   -0.0000    0.0000    0.0139   -0.0147    0.1062   -0.0000    0.0000   -0.0313
       46 FE2    4f1+      -0.0000    0.0000    0.0029    0.0035   -0.0000   -0.0000    0.0000    0.0052   -0.0027   -0.0000
       47 FE2    4f2+      -0.0000    0.0000   -0.0000   -0.0000   -0.0000    0.0000   -0.0000   -0.0000   -0.0000    0.0000
       48 FE2    4f3+       0.0000    0.0000    0.0000    0.0000   -0.0000   -0.0000   -0.0000    0.0000    0.0000   -0.0000
 
          Orbital           31        32        33        34        35        36        37        38        39        40    
          Energy            3.0617    0.3392    0.3266    0.3620    0.2595    0.2442    0.2925    0.2934    1.7324    1.9856
          Occ. No.          0.0000    0.0000    0.0000    0.0000    0.0000    0.0000    0.0000    0.0000    0.0000    0.0000
 
        1 O1     1s         0.0022   -0.0000    0.0000    0.0081   -0.0000    0.0000   -0.0000   -0.0000    0.0000   -0.0000
        2 O1     2s         0.0292   -0.0000    0.0000    0.0832   -0.0000    0.0000   -0.0000   -0.0000    0.0000   -0.0000
        3 O1     3s        -0.0281    0.0000   -0.0000   -0.1160    0.0000   -0.0000    0.0000    0.0000   -0.0000    0.0000
        4 O1     2px       -0.0000   -0.1142   -0.0500    0.0000   -0.0879    0.0028    0.0001   -0.0003   -0.0152   -0.0071
        5 O1     3px       -0.0000   -0.9166   -0.4687    0.0000    0.2097   -0.0340    0.0002   -0.0006   -0.0621   -0.0075
        6 O1     2py        0.0000   -0.0582    0.1140   -0.0000    0.0135    0.0819    0.0001    0.0000    0.0006    0.0083
        7 O1     3py        0.0000   -0.4459    0.9141   -0.0000    0.0511   -0.2602   -0.0000    0.0002    0.0042    0.0465
        8 O1     2pz       -0.0452    0.0000   -0.0000   -0.0751    0.0000   -0.0000    0.0000    0.0000   -0.0000    0.0000
        9 O1     3pz       -0.1382    0.0000   -0.0000   -0.7089    0.0000   -0.0000    0.0000    0.0000   -0.0000    0.0000
       10 O1     3d2-      -0.0000    0.0001   -0.0000   -0.0000   -0.0001    0.0000   -0.0018    0.0092    0.0803    0.2824
       11 O1     3d1-      -0.0000    0.0588   -0.1147    0.0000   -0.0082   -0.0405   -0.0001    0.0009    0.0680    0.8092
       12 O1     3d0        0.0967   -0.0000    0.0000    0.2516   -0.0000    0.0000   -0.0000   -0.0000    0.0000   -0.0000
       13 O1     3d1+       0.0000    0.1146    0.0509    0.0000    0.0463   -0.0061    0.0050   -0.0109   -0.9724    0.0826
       14 O1     3d2+       0.0000   -0.0001    0.0000    0.0000    0.0001   -0.0000    0.0158    0.0056   -0.0705   -0.2722
       15 FE2    1s        -0.0005    0.0000   -0.0000   -0.0025    0.0000   -0.0000    0.0000    0.0000   -0.0000    0.0000
       16 FE2    2s        -0.0038    0.0000   -0.0000   -0.0183    0.0000   -0.0000    0.0000    0.0000   -0.0000    0.0000
       17 FE2    3s        -0.0192    0.0000   -0.0000   -0.0895    0.0000   -0.0000    0.0000    0.0000   -0.0000    0.0000
       18 FE2    4s        -0.0583    0.0000   -0.0000   -0.3733    0.0000   -0.0000    0.0000    0.0000   -0.0000    0.0000
       19 FE2    5s         0.0440    0.0000   -0.0000   -0.0782    0.0000   -0.0000    0.0000    0.0000   -0.0000    0.0000
       20 FE2    2px        0.0000    0.0012    0.0006   -0.0000   -0.0002    0.0000    0.0000   -0.0000   -0.0001    0.0000
[...]

>>> COPY /tmp/2.52/2.52.rasscf.h5 /home/grierjones/DDCASPT2/iron_oxo_DDCASPT2/cluster/2.52/

>>> COPY /tmp/2.52/GMJ_Fock_MO.csv /home/grierjones/DDCASPT2/iron_oxo_DDCASPT2/cluster/2.52/2.52.GMJ_Fock_MO.csv

>>> COPY /tmp/2.52/GMJ_PT2_Fock_MO.csv /home/grierjones/DDCASPT2/iron_oxo_DDCASPT2/cluster/2.52/2.52.GMJ_PT2_Fock_MO.csv

*** symbolic link created: INPORB -> 2.52.RasOrb
--- Start Module: motra at Thu Dec  5 08:25:07 2024 ---
 
()()()()()()()()()()()()()()()()()()()()()()()()()()()()()()()()()()()()()()()()()()()()()()()()()()

                                               &MOTRA

                                   only a single process is used
                       available to each process: 2.0 GB of memory, 1 thread?
()()()()()()()()()()()()()()()()()()()()()()()()()()()()()()()()()()()()()()()()()()()()()()()()()()
 
 
      *** WARNING: Default frozen orbitals is overwritten by user input.
      *** Default values:   7
 
      Header of the integral files:
      
       Integrals generated by seward 4.2.0  , Thu Dec  5 08:23:26 2024
 
 
      Header of MO coefficients source file:
      * RASSCF average (pseudo-natural) orbitals                                      
 
 
      Cartesian coordinates in Angstrom:
      -----------------------------------------------------
      No.  Label        X            Y            Z        
      -----------------------------------------------------
       1   O1         0.00000000   0.00000000   2.05758000
       2   FE2        0.00000000   0.00000000  -0.45758000
      -----------------------------------------------------
      Nuclear repulsion energy =   43.76217013
 
      Orbital specifications:
      -----------------------
 
      Symmetry species:              1
      Number of basis functions:    48
      Frozen orbitals:               0
      Deleted orbitals:              0
      Number of orbitals used:      48

       SYMMETRY  BASIS FUNCTIONS       ORBITALS      INTEGRALS   CPU(SEC)  I/O(SEC)
 
        1 1 1 1   48  48  48  48    48  48  48  48      692076       0.00      0.00

       TOTAL CPU TIME(SEC)    0.29TOTAL I/O TIME(SEC)    0.85
 
--- Stop Module: motra at Thu Dec  5 08:25:08 2024 /rc=_RC_ALL_IS_WELL_ ---
*** files: xmldump
    saved to directory /home/grierjones/DDCASPT2/iron_oxo_DDCASPT2/cluster/2.52

>>> COPY /tmp/2.52/GMJ_one_int_indx.csv /home/grierjones/DDCASPT2/iron_oxo_DDCASPT2/cluster/2.52/2.52.GMJ_one_int_indx.csv

>>> COPY /tmp/2.52/GMJ_one_int.csv /home/grierjones/DDCASPT2/iron_oxo_DDCASPT2/cluster/2.52/2.52.GMJ_one_int.csv

>>> COPY /tmp/2.52/GMJ_two_int_indx.csv /home/grierjones/DDCASPT2/iron_oxo_DDCASPT2/cluster/2.52/2.52.GMJ_two_int_indx.csv

>>> COPY /tmp/2.52/GMJ_two_int.csv /home/grierjones/DDCASPT2/iron_oxo_DDCASPT2/cluster/2.52/2.52.GMJ_two_int.csv

*** symbolic link created: INPORB -> 2.52.RasOrb
--- Start Module: caspt2 at Thu Dec  5 08:25:08 2024 ---
 
()()()()()()()()()()()()()()()()()()()()()()()()()()()()()()()()()()()()()()()()()()()()()()()()()()

                                              &CASPT2

                                   only a single process is used
                       available to each process: 2.0 GB of memory, 1 thread?
()()()()()()()()()()()()()()()()()()()()()()()()()()()()()()()()()()()()()()()()()()()()()()()()()()
 
 Cholesky algorithm in CASPT2 =    1
 
 ###############################################################################
 ###############################################################################
 ###                                                                         ###
 ###                                                                         ###
 ###    User changed nr of frozen orbitals.                                  ###
 ###                                                                         ###
 ###                                                                         ###
 ###############################################################################
 ###############################################################################
 
++    Wave function specifications:
      -----------------------------
 
      Number of closed shell electrons          22
      Number of electrons in active shells      10
      Max number of holes in RAS1 space          0
      Max number of electrons in RAS3 space      0
      Number of inactive orbitals               11
      Number of active orbitals                 14
      Number of secondary orbitals              23
      Spin quantum number                      2.0
      State symmetry                             1
      Number of CSFs                        975975
      Number of root(s) available                1
      Root passed to geometry opt.               1
      A file JOBMIX will be created.
      This is a CASSCF or RASSCF reference function
--
 
++    Orbital specifications:
      -----------------------
 
      Symmetry species                           1
                                                 a
      Frozen orbitals                            0
      Inactive orbitals                         11
      Active orbitals                           14
      Secondary orbitals                        23
      Deleted orbitals                           0
      Number of basis functions                 48
--
 
      Type of Fock operator: STANDARD
      Type of 0-order Hamiltonian: STANDARD WITH DEFAULT IPEA
        "IP-EA" denominator shift =      0.25
      The input orbitals and the CI vector will be transformed.
 
--------------------------------------------------------------------------------
 Estimated memory requirements:
  POLY3 :                227658189
  RHS:                     4146972
  SIGMA :                   646704
  PRPCTL:                        0
 Available workspace:    229020647
 
++ CASPT2 computation for group   1
 
********************************************************************************
 Multi-State initialization phase begins for group   1
--------------------------------------------------------------------------------
********************************************************************************
 Compute H0 matrices for state    1
--------------------------------------------------------------------------------
--------------------------------------------------------------------------------
 H0 matrices have been computed.
 
********************************************************************************
  CASPT2 EQUATION SOLUTION
--------------------------------------------------------------------------------
 
  Total nr of CASPT2 parameters:
   Before reduction:      408969
   After  reduction:      408969
 
 The contributions to the second order correlation energy in atomic units.
-----------------------------------------------------------------------------------------------------------------------------
  IT.      VJTU        VJTI        ATVX        AIVX        VJAI        BVAT        BJAT        BJAI        TOTAL       RNORM  
-----------------------------------------------------------------------------------------------------------------------------
   1    -0.003812   -0.029834   -0.015401   -0.179448   -0.017845   -0.077494   -0.018443   -0.043840   -0.386116    0.014595
   2    -0.003843   -0.029865   -0.015738   -0.179859   -0.017895   -0.077675   -0.018609   -0.043914   -0.387398    0.003404
   3    -0.003844   -0.029870   -0.015810   -0.179954   -0.017894   -0.077674   -0.018624   -0.043920   -0.387591    0.000853
   4    -0.003842   -0.029870   -0.015808   -0.179934   -0.017892   -0.077658   -0.018616   -0.043916   -0.387535    0.000223
   5    -0.003842   -0.029869   -0.015806   -0.179928   -0.017891   -0.077657   -0.018614   -0.043915   -0.387524    0.000053
   6    -0.003843   -0.029869   -0.015806   -0.179930   -0.017891   -0.077658   -0.018615   -0.043916   -0.387527    0.000012
   7    -0.003843   -0.029869   -0.015805   -0.179930   -0.017891   -0.077659   -0.018615   -0.043916   -0.387528    0.000003
-------------------------------------------------------------------------------------------------------------------
 
  FINAL CASPT2 RESULT:
 
  Correlation energy /Case, /Symm, and sums:
 VJTU     -0.00384263 -0.00384263
 VJTIP    -0.01028894 -0.01028894
 VJTIM    -0.01958046 -0.01958046
 ATVX     -0.01580545 -0.01580545
 AIVX     -0.17992989 -0.17992989
 VJAIP    -0.01420207 -0.01420207
 VJAIM    -0.00368932 -0.00368932
 BVATP    -0.02179697 -0.02179697
 BVATM    -0.05586162 -0.05586162
 BJATP    -0.01142936 -0.01142936
 BJATM    -0.00718537 -0.00718537
 BJAIP    -0.02962290 -0.02962290
 BJAIM    -0.01429268 -0.01429268
 Summed:  -0.38752767 -0.38752767
 
      Reference energy:       -1345.4906814342
      E2 (Non-variational):      -0.3875276652
      E2 (Variational):          -0.3875276496
      Total energy:           -1345.8782090838
      Residual norm:              0.0000007148
      Reference weight:           0.93775
 
      Contributions to the CASPT2 correlation energy
      Active & Virtual Only:         -0.0934640404
      One Inactive Excited:          -0.2023872520
      Two Inactive Excited:          -0.0916763728
 
 
++ Denominators, etc.
----------------------------------------------------------------------------------------------------
 Report on small energy denominators, large coefficients, and large energy contributions.
CASE  SYMM ACTIVE-MIX  NON-ACTIVE INDICES          DENOMINATOR     RHS VALUE       COEFFICIENT     CONTRIBUTION
ATVX     1  Mu1.0001  Se1.026                       0.22469863     -0.00000000     -0.00000000      0.00000000
ATVX     1  Mu1.0002  Se1.026                       0.22469863      0.00000000      0.00000001      0.00000000
ATVX     1  Mu1.0003  Se1.026                       0.26720121     -0.00000000      0.00000000     -0.00000000
ATVX     1  Mu1.0001  Se1.027                       0.29643939     -0.00004657      0.00004864     -0.00000000
ATVX     1  Mu1.0002  Se1.027                       0.29643939     -0.00088725      0.00087052     -0.00000077
ATVX     1  Mu1.0001  Se1.028                       0.29643939     -0.00088725      0.00087052     -0.00000077
ATVX     1  Mu1.0002  Se1.028                       0.29643939      0.00004657     -0.00004864     -0.00000000
ATVX     1  Mu1.0226  Se1.031                       1.98478275     -0.07713158      0.03772041     -0.00290943
ATVX     1  Mu1.0227  Se1.032                       1.98478275      0.07713158     -0.03772041     -0.00290943
AIVX     1  Mu1.0091  In1.011 Se1.033               3.43652808     -0.09595031      0.02836323     -0.00272146
AIVX     1  Mu1.0053  In1.011 Se1.036               3.77067244     -0.12975871      0.03383787     -0.00439076
AIVX     1  Mu1.0031  In1.011 Se1.037               3.56410209      0.15821928     -0.04364026     -0.00690473
BVATM    1  Mu1.0001  Se1.032 Se1.031               2.24543214      0.05787489     -0.02652713     -0.00153525
--
 
   (Skipping property calculation,
    use PROP keyword to activate)
--
 
  Total CASPT2 energies:
::    CASPT2 Root  1     Total energy:  -1345.87820908
 
  A NEW JOBIPH FILE NAMED 'JOBMIX' IS PREPARED.
********************************************************************************
--- Stop Module: caspt2 at Thu Dec  5 08:30:49 2024 /rc=_RC_ALL_IS_WELL_ ---
*** files: xmldump
    saved to directory /home/grierjones/DDCASPT2/iron_oxo_DDCASPT2/cluster/2.52
--- Module caspt2 spent 5 minutes 40 seconds ---

>>> EXPORT i = B

>>> EXPORT j = P

>>> IF (-FILE GMJ_e2_${i}_${j}.csv)

>>> COPY /tmp/2.52/GMJ_RHS_B_P.csv /home/grierjones/DDCASPT2/iron_oxo_DDCASPT2/cluster/2.52/GMJ_RHS_B_P.csv

>>> COPY /tmp/2.52/GMJ_IVECW_B_P.csv /home/grierjones/DDCASPT2/iron_oxo_DDCASPT2/cluster/2.52/GMJ_IVECW_B_P.csv

>>> COPY /tmp/2.52/GMJ_IVECX_B_P.csv /home/grierjones/DDCASPT2/iron_oxo_DDCASPT2/cluster/2.52/GMJ_IVECX_B_P.csv

>>> COPY /tmp/2.52/GMJ_IVECC2_B_P.csv /home/grierjones/DDCASPT2/iron_oxo_DDCASPT2/cluster/2.52/GMJ_IVECC2_B_P.csv

>>> COPY /tmp/2.52/GMJ_e2_B_P.csv /home/grierjones/DDCASPT2/iron_oxo_DDCASPT2/cluster/2.52/GMJ_e2_B_P.csv

>>> END FOREACH

>>> EXPORT j = M

>>> IF (-FILE GMJ_e2_${i}_${j}.csv)

>>> COPY /tmp/2.52/GMJ_RHS_B_M.csv /home/grierjones/DDCASPT2/iron_oxo_DDCASPT2/cluster/2.52/GMJ_RHS_B_M.csv

>>> COPY /tmp/2.52/GMJ_IVECW_B_M.csv /home/grierjones/DDCASPT2/iron_oxo_DDCASPT2/cluster/2.52/GMJ_IVECW_B_M.csv

>>> COPY /tmp/2.52/GMJ_IVECX_B_M.csv /home/grierjones/DDCASPT2/iron_oxo_DDCASPT2/cluster/2.52/GMJ_IVECX_B_M.csv

>>> COPY /tmp/2.52/GMJ_IVECC2_B_M.csv /home/grierjones/DDCASPT2/iron_oxo_DDCASPT2/cluster/2.52/GMJ_IVECC2_B_M.csv

>>> COPY /tmp/2.52/GMJ_e2_B_M.csv /home/grierjones/DDCASPT2/iron_oxo_DDCASPT2/cluster/2.52/GMJ_e2_B_M.csv

>>> END FOREACH

>>> END FOREACH

>>> EXPORT i = E

>>> EXPORT j = P

>>> IF (-FILE GMJ_e2_${i}_${j}.csv)

>>> COPY /tmp/2.52/GMJ_RHS_E_P.csv /home/grierjones/DDCASPT2/iron_oxo_DDCASPT2/cluster/2.52/GMJ_RHS_E_P.csv

>>> COPY /tmp/2.52/GMJ_IVECW_E_P.csv /home/grierjones/DDCASPT2/iron_oxo_DDCASPT2/cluster/2.52/GMJ_IVECW_E_P.csv

>>> COPY /tmp/2.52/GMJ_IVECX_E_P.csv /home/grierjones/DDCASPT2/iron_oxo_DDCASPT2/cluster/2.52/GMJ_IVECX_E_P.csv

>>> COPY /tmp/2.52/GMJ_IVECC2_E_P.csv /home/grierjones/DDCASPT2/iron_oxo_DDCASPT2/cluster/2.52/GMJ_IVECC2_E_P.csv

>>> COPY /tmp/2.52/GMJ_e2_E_P.csv /home/grierjones/DDCASPT2/iron_oxo_DDCASPT2/cluster/2.52/GMJ_e2_E_P.csv

>>> END FOREACH

>>> EXPORT j = M

>>> IF (-FILE GMJ_e2_${i}_${j}.csv)

>>> COPY /tmp/2.52/GMJ_RHS_E_M.csv /home/grierjones/DDCASPT2/iron_oxo_DDCASPT2/cluster/2.52/GMJ_RHS_E_M.csv

>>> COPY /tmp/2.52/GMJ_IVECW_E_M.csv /home/grierjones/DDCASPT2/iron_oxo_DDCASPT2/cluster/2.52/GMJ_IVECW_E_M.csv

>>> COPY /tmp/2.52/GMJ_IVECX_E_M.csv /home/grierjones/DDCASPT2/iron_oxo_DDCASPT2/cluster/2.52/GMJ_IVECX_E_M.csv

>>> COPY /tmp/2.52/GMJ_IVECC2_E_M.csv /home/grierjones/DDCASPT2/iron_oxo_DDCASPT2/cluster/2.52/GMJ_IVECC2_E_M.csv

>>> COPY /tmp/2.52/GMJ_e2_E_M.csv /home/grierjones/DDCASPT2/iron_oxo_DDCASPT2/cluster/2.52/GMJ_e2_E_M.csv

>>> END FOREACH

>>> END FOREACH

>>> EXPORT i = F

>>> EXPORT j = P

>>> IF (-FILE GMJ_e2_${i}_${j}.csv)

>>> COPY /tmp/2.52/GMJ_RHS_F_P.csv /home/grierjones/DDCASPT2/iron_oxo_DDCASPT2/cluster/2.52/GMJ_RHS_F_P.csv

>>> COPY /tmp/2.52/GMJ_IVECW_F_P.csv /home/grierjones/DDCASPT2/iron_oxo_DDCASPT2/cluster/2.52/GMJ_IVECW_F_P.csv

>>> COPY /tmp/2.52/GMJ_IVECX_F_P.csv /home/grierjones/DDCASPT2/iron_oxo_DDCASPT2/cluster/2.52/GMJ_IVECX_F_P.csv

>>> COPY /tmp/2.52/GMJ_IVECC2_F_P.csv /home/grierjones/DDCASPT2/iron_oxo_DDCASPT2/cluster/2.52/GMJ_IVECC2_F_P.csv

>>> COPY /tmp/2.52/GMJ_e2_F_P.csv /home/grierjones/DDCASPT2/iron_oxo_DDCASPT2/cluster/2.52/GMJ_e2_F_P.csv

>>> END FOREACH

>>> EXPORT j = M

>>> IF (-FILE GMJ_e2_${i}_${j}.csv)

>>> COPY /tmp/2.52/GMJ_RHS_F_M.csv /home/grierjones/DDCASPT2/iron_oxo_DDCASPT2/cluster/2.52/GMJ_RHS_F_M.csv

>>> COPY /tmp/2.52/GMJ_IVECW_F_M.csv /home/grierjones/DDCASPT2/iron_oxo_DDCASPT2/cluster/2.52/GMJ_IVECW_F_M.csv

>>> COPY /tmp/2.52/GMJ_IVECX_F_M.csv /home/grierjones/DDCASPT2/iron_oxo_DDCASPT2/cluster/2.52/GMJ_IVECX_F_M.csv

>>> COPY /tmp/2.52/GMJ_IVECC2_F_M.csv /home/grierjones/DDCASPT2/iron_oxo_DDCASPT2/cluster/2.52/GMJ_IVECC2_F_M.csv

>>> COPY /tmp/2.52/GMJ_e2_F_M.csv /home/grierjones/DDCASPT2/iron_oxo_DDCASPT2/cluster/2.52/GMJ_e2_F_M.csv

>>> END FOREACH

>>> END FOREACH

>>> EXPORT i = G

>>> EXPORT j = P

>>> IF (-FILE GMJ_e2_${i}_${j}.csv)

>>> COPY /tmp/2.52/GMJ_RHS_G_P.csv /home/grierjones/DDCASPT2/iron_oxo_DDCASPT2/cluster/2.52/GMJ_RHS_G_P.csv

>>> COPY /tmp/2.52/GMJ_IVECW_G_P.csv /home/grierjones/DDCASPT2/iron_oxo_DDCASPT2/cluster/2.52/GMJ_IVECW_G_P.csv

>>> COPY /tmp/2.52/GMJ_IVECX_G_P.csv /home/grierjones/DDCASPT2/iron_oxo_DDCASPT2/cluster/2.52/GMJ_IVECX_G_P.csv

>>> COPY /tmp/2.52/GMJ_IVECC2_G_P.csv /home/grierjones/DDCASPT2/iron_oxo_DDCASPT2/cluster/2.52/GMJ_IVECC2_G_P.csv

>>> COPY /tmp/2.52/GMJ_e2_G_P.csv /home/grierjones/DDCASPT2/iron_oxo_DDCASPT2/cluster/2.52/GMJ_e2_G_P.csv

>>> END FOREACH

>>> EXPORT j = M

>>> IF (-FILE GMJ_e2_${i}_${j}.csv)

>>> COPY /tmp/2.52/GMJ_RHS_G_M.csv /home/grierjones/DDCASPT2/iron_oxo_DDCASPT2/cluster/2.52/GMJ_RHS_G_M.csv

>>> COPY /tmp/2.52/GMJ_IVECW_G_M.csv /home/grierjones/DDCASPT2/iron_oxo_DDCASPT2/cluster/2.52/GMJ_IVECW_G_M.csv

>>> COPY /tmp/2.52/GMJ_IVECX_G_M.csv /home/grierjones/DDCASPT2/iron_oxo_DDCASPT2/cluster/2.52/GMJ_IVECX_G_M.csv

>>> COPY /tmp/2.52/GMJ_IVECC2_G_M.csv /home/grierjones/DDCASPT2/iron_oxo_DDCASPT2/cluster/2.52/GMJ_IVECC2_G_M.csv

>>> COPY /tmp/2.52/GMJ_e2_G_M.csv /home/grierjones/DDCASPT2/iron_oxo_DDCASPT2/cluster/2.52/GMJ_e2_G_M.csv

>>> END FOREACH

>>> END FOREACH

>>> EXPORT i = H

>>> EXPORT j = P

>>> IF (-FILE GMJ_e2_${i}_${j}.csv)

>>> COPY /tmp/2.52/GMJ_RHS_H_P.csv /home/grierjones/DDCASPT2/iron_oxo_DDCASPT2/cluster/2.52/GMJ_RHS_H_P.csv

>>> COPY /tmp/2.52/GMJ_IVECW_H_P.csv /home/grierjones/DDCASPT2/iron_oxo_DDCASPT2/cluster/2.52/GMJ_IVECW_H_P.csv

>>> COPY /tmp/2.52/GMJ_IVECX_H_P.csv /home/grierjones/DDCASPT2/iron_oxo_DDCASPT2/cluster/2.52/GMJ_IVECX_H_P.csv

>>> COPY /tmp/2.52/GMJ_IVECC2_H_P.csv /home/grierjones/DDCASPT2/iron_oxo_DDCASPT2/cluster/2.52/GMJ_IVECC2_H_P.csv

>>> COPY /tmp/2.52/GMJ_e2_H_P.csv /home/grierjones/DDCASPT2/iron_oxo_DDCASPT2/cluster/2.52/GMJ_e2_H_P.csv

>>> END FOREACH

>>> EXPORT j = M

>>> IF (-FILE GMJ_e2_${i}_${j}.csv)

>>> COPY /tmp/2.52/GMJ_RHS_H_M.csv /home/grierjones/DDCASPT2/iron_oxo_DDCASPT2/cluster/2.52/GMJ_RHS_H_M.csv

>>> COPY /tmp/2.52/GMJ_IVECW_H_M.csv /home/grierjones/DDCASPT2/iron_oxo_DDCASPT2/cluster/2.52/GMJ_IVECW_H_M.csv

>>> COPY /tmp/2.52/GMJ_IVECX_H_M.csv /home/grierjones/DDCASPT2/iron_oxo_DDCASPT2/cluster/2.52/GMJ_IVECX_H_M.csv

>>> COPY /tmp/2.52/GMJ_IVECC2_H_M.csv /home/grierjones/DDCASPT2/iron_oxo_DDCASPT2/cluster/2.52/GMJ_IVECC2_H_M.csv

>>> COPY /tmp/2.52/GMJ_e2_H_M.csv /home/grierjones/DDCASPT2/iron_oxo_DDCASPT2/cluster/2.52/GMJ_e2_H_M.csv

>>> END FOREACH

>>> END FOREACH

>>> EXPORT i = A

>>> IF (-FILE GMJ_e2_$i.csv)

>>> COPY /tmp/2.52/GMJ_RHS_A.csv /home/grierjones/DDCASPT2/iron_oxo_DDCASPT2/cluster/2.52/GMJ_RHS_A.csv

>>> COPY /tmp/2.52/GMJ_IVECW_A.csv /home/grierjones/DDCASPT2/iron_oxo_DDCASPT2/cluster/2.52/GMJ_IVECW_A.csv

>>> COPY /tmp/2.52/GMJ_IVECX_A.csv /home/grierjones/DDCASPT2/iron_oxo_DDCASPT2/cluster/2.52/GMJ_IVECX_A.csv

>>> COPY /tmp/2.52/GMJ_IVECC2_A.csv /home/grierjones/DDCASPT2/iron_oxo_DDCASPT2/cluster/2.52/GMJ_IVECC2_A.csv

>>> COPY /tmp/2.52/GMJ_e2_A.csv /home/grierjones/DDCASPT2/iron_oxo_DDCASPT2/cluster/2.52/GMJ_e2_A.csv

>>> END FOREACH

>>> EXPORT i = C

>>> IF (-FILE GMJ_e2_$i.csv)

>>> COPY /tmp/2.52/GMJ_RHS_C.csv /home/grierjones/DDCASPT2/iron_oxo_DDCASPT2/cluster/2.52/GMJ_RHS_C.csv

>>> COPY /tmp/2.52/GMJ_IVECW_C.csv /home/grierjones/DDCASPT2/iron_oxo_DDCASPT2/cluster/2.52/GMJ_IVECW_C.csv

>>> COPY /tmp/2.52/GMJ_IVECX_C.csv /home/grierjones/DDCASPT2/iron_oxo_DDCASPT2/cluster/2.52/GMJ_IVECX_C.csv

>>> COPY /tmp/2.52/GMJ_IVECC2_C.csv /home/grierjones/DDCASPT2/iron_oxo_DDCASPT2/cluster/2.52/GMJ_IVECC2_C.csv

>>> COPY /tmp/2.52/GMJ_e2_C.csv /home/grierjones/DDCASPT2/iron_oxo_DDCASPT2/cluster/2.52/GMJ_e2_C.csv

>>> END FOREACH

>>> EXPORT i = D

>>> IF (-FILE GMJ_e2_$i.csv)

>>> COPY /tmp/2.52/GMJ_RHS_D.csv /home/grierjones/DDCASPT2/iron_oxo_DDCASPT2/cluster/2.52/GMJ_RHS_D.csv

>>> COPY /tmp/2.52/GMJ_IVECW_D.csv /home/grierjones/DDCASPT2/iron_oxo_DDCASPT2/cluster/2.52/GMJ_IVECW_D.csv

>>> COPY /tmp/2.52/GMJ_IVECX_D.csv /home/grierjones/DDCASPT2/iron_oxo_DDCASPT2/cluster/2.52/GMJ_IVECX_D.csv

>>> COPY /tmp/2.52/GMJ_IVECC2_D.csv /home/grierjones/DDCASPT2/iron_oxo_DDCASPT2/cluster/2.52/GMJ_IVECC2_D.csv

>>> COPY /tmp/2.52/GMJ_e2_D.csv /home/grierjones/DDCASPT2/iron_oxo_DDCASPT2/cluster/2.52/GMJ_e2_D.csv

>>> END FOREACH

.########################.
.# Non-zero return code #.
.########################.

    Timing: Wall=442.71 User=439.13 System=3.46
************************************
*** WorkDir at /tmp/2.52 cleaned ***
************************************
