   This run of MOLCAS is using the pymolcas driver

                             OPE
                             OPE          NMOL  CASOP  ENMOLC A   SO
                 OPE        NMOLC        AS  OP EN  MO LC     AS  OP
                OPENM       OL CA        SO  PE NM  OL CA     SOP EN
                OP EN      MO   LC       AS  OP ENMOL  CASO   PENMOL
                OP  EN     MO   LC       AS  OP EN     MO     LC ASO
               OP   E  NMOL  C  AS       OP  EN MO     LC     AS  OP
               OP  E   NMO   LC AS        OPEN  MO     LCASOP EN   M
               O  PEN   MO  LCA  SO
            OPE   NMO   L   CAS    OP
        OPENMOL  CASOP     ENMOL   CASOPE
     OPENMOLCA   SOPENMOLCASOPEN   MOLCASOPE
    OPENMOLCAS   OP           EN   MOL    CAS
    OPENMOLCAS       OP  ENM        O     LCA
    OPENMOLCAS    OPEN  MOLCASO     P  E  NMO
    OPENMOLCAS     OP               E  N  MOL
    OPENMOLCA   SO           PENM   O  L  CAS    OPEN    MO    LCAS
    OPENMOLCA   SOP           ENM   O  L  CAS   OP  EN  MOLC  AS   O
    OPENMOLCA   SOPE           NM      O  LCA   S      OP  EN MO
    OPENMOLC                AS         O  PEN   M      OL  CA  SOPE
    OPENMO        LCASOPE  NMOL        C  ASO   P      ENMOLC     AS
    OPE     NMO      LCA  SO     P     E   NM   OL  CA SO  PE N   MO
          OPENMOLCA            SOPE   NMO        LCAS  O    P  ENMO
     OPENMOLCASOPENMOLCASOPENMOLCASOPENMOLCA
        OPENMOLCASOPENMOLCASOPENMOLCASOPE
            OPENMOLCASOPENMOLCASOPENM
               OPENMOLCASOPENMOLCA        version: 1d1d16313-dirty
                   OPENMOLCASO
                       OPE                tag:

 OpenMolcas is free software; you can redistribute it and/or modify it
 under the terms of the GNU Lesser General Public License version 2.1.
 OpenMolcas is distributed in the hope that it will be useful, but it
 is provided "as is" and without any express or implied warranties.
 For more details see the full text of the license in the file
 LICENSE or in <http://www.gnu.org/licenses/>.

                 Copyright (C) The OpenMolcas Authors
           For the author list and the recommended citation,
                   consult the file CONTRIBUTORS.md

           *************************************************
           * pymolcas version py2.28                       *
           *   build c4a6d18ded8cb6cad61d2372a9abd97c      *
           *   (after the EMIL interpreter by V. Veryazov) *
           *************************************************

configuration info
------------------
C Compiler ID: IntelLLVM
C flags: -std=gnu99
Fortran Compiler ID: IntelLLVM
Fortran flags: -standard-semantics -fltconsistency -fpp -i8 -heap-arrays
Definitions: _MOLCAS_;_I8_;_LINUX_
Parallel: OFF (GA=OFF)


   -------------------------------------------------------------------------------
  |
  |              Project: 6.18
  |       Submitted from: /home/grierjones/DDCASPT2/iron_oxo_DDCASPT2/cluster/6.18
  |         Scratch area: /tmp/6.18
  |      Save outputs to: /home/grierjones/DDCASPT2/iron_oxo_DDCASPT2/cluster/6.18
  |               Molcas: /home/grierjones/Test/build
  |
  | Scratch area is empty
  |
  |       MOLCAS_DRIVER = /usr/local/pymolcas
  | MOLCAS_KEEP_WORKDIR = NO
  |  MOLCAS_NEW_WORKDIR = YES
  |       MOLCAS_NPROCS = 1
  |        MOLCAS_PRINT = NORMAL
  |       MOLCAS_SOURCE = /home/grierjones/Test
  |    MOLCAS_STRUCTURE = 0
  |
   -------------------------------------------------------------------------------

++ ---------   Input file   ---------

&GATEWAY
coord=6.18.xyz
Basis = ANO-RCC-VDZP
Group = nosymm
Expert
End of Input

&SEWARD
End of Input

&SCF
UHF
charge
2
spin
5
FileOrb
/home/grierjones/DDCASPT2/iron_oxo_DDCASPT2/cluster/6.17/6.17.UhfOrb

>>> COPY $WorkDir/6.18.scf.h5 $CurrDir/

&RASSCF
Title= RASSCF
FileOrb
/home/grierjones/DDCASPT2/iron_oxo_DDCASPT2/cluster/6.17/6.17.RasOrb
NACTEL
10 0 0
RAS2
14
Symmetry
1
Spin
5
charge
2
orblisting
all
ITERation
300 200

>>> COPY $WorkDir/6.18.rasscf.h5 $CurrDir/

>>> COPY $WorkDir/GMJ_Fock_MO.csv $CurrDir/6.18.GMJ_Fock_MO.csv

>>> COPY $WorkDir/GMJ_PT2_Fock_MO.csv $CurrDir/6.18.GMJ_PT2_Fock_MO.csv

&MOTRA
Frozen=0
LUMORB

>>> COPY $WorkDir/GMJ_one_int_indx.csv $CurrDir/6.18.GMJ_one_int_indx.csv

>>> COPY $WorkDir/GMJ_one_int.csv $CurrDir/6.18.GMJ_one_int.csv

>>> COPY $WorkDir/GMJ_two_int_indx.csv $CurrDir/6.18.GMJ_two_int_indx.csv

>>> COPY $WorkDir/GMJ_two_int.csv $CurrDir/6.18.GMJ_two_int.csv

&CASPT2
Frozen
0
MAXITER
50

>>> FOREACH i IN (B,E,F,G,H)

  >>> FOREACH j IN (P,M)

    >>> IF (-FILE GMJ_e2_${i}_${j}.csv)

      >>> COPY $WorkDir/GMJ_RHS_${i}_${j}.csv $CurrDir/GMJ_RHS_${i}_${j}.csv

      >>> COPY $WorkDir/GMJ_IVECW_${i}_${j}.csv $CurrDir/GMJ_IVECW_${i}_${j}.csv

      >>> COPY $WorkDir/GMJ_IVECX_${i}_${j}.csv $CurrDir/GMJ_IVECX_${i}_${j}.csv

      >>> COPY $WorkDir/GMJ_IVECC2_${i}_${j}.csv $CurrDir/GMJ_IVECC2_${i}_${j}.csv

      >>> COPY $WorkDir/GMJ_e2_${i}_${j}.csv $CurrDir/GMJ_e2_${i}_${j}.csv

    >>> END IF

  >>> END FOREACH

>>> END FOREACH

>>> FOREACH i IN (A,C,D)

  >>> IF (-FILE GMJ_e2_$i.csv)

    >>> COPY $WorkDir/GMJ_RHS_$i.csv $CurrDir/GMJ_RHS_$i.csv

    >>> COPY $WorkDir/GMJ_IVECW_$i.csv $CurrDir/GMJ_IVECW_$i.csv

    >>> COPY $WorkDir/GMJ_IVECX_$i.csv $CurrDir/GMJ_IVECX_$i.csv

    >>> COPY $WorkDir/GMJ_IVECC2_$i.csv $CurrDir/GMJ_IVECC2_$i.csv

    >>> COPY $WorkDir/GMJ_e2_$i.csv $CurrDir/GMJ_e2_$i.csv

  >>> END IF

>>> END FOREACH

-- ----------------------------------

--- Start Module: gateway at Thu Jan 23 10:32:06 2025 ---
 
()()()()()()()()()()()()()()()()()()()()()()()()()()()()()()()()()()()()()()()()()()()()()()()()()()

                                              &GATEWAY

                                   only a single process is used
                       available to each process: 2.0 GB of memory, 1 thread?
()()()()()()()()()()()()()()()()()()()()()()()()()()()()()()()()()()()()()()()()()()()()()()()()()()
 
 ###############################################################################
 ###############################################################################
 ###                                                                         ###
 ###                                                                         ###
 ###                                                                         ###
 ###    WARNING: EXPERT option is ON!                                        ###
 ###                                                                         ###
 ###                                                                         ###
 ###############################################################################
 ###############################################################################
 
++    Symmetry information:
      ---------------------
 
                    Character Table for C1 
 
                             E  
                    a        1  x, y, xy, Rz, z, xz, Ry, yz, Rx, I
--
 
 
++    Basis set information:
      ----------------------
 
 
      Basis set label: O.ANO-RCC...3S2P1D.
 
      Electronic valence basis set:
      ------------------
      Associated Effective Charge   8.000000 au
      Associated Actual Charge      8.000000 au
      Nuclear Model: Point charge
 
      Shell  nPrim  nBasis  Cartesian Spherical Contaminant
         s      14       3        X                  
         p       9       2        X                  
         d       4       1                 X         
 
 
      Basis set label: FE.ANO-RCC...5S4P2D1F.
 
      Electronic valence basis set:
      ------------------
      Associated Effective Charge  26.000000 au
      Associated Actual Charge     26.000000 au
      Nuclear Model: Point charge
 
      Shell  nPrim  nBasis  Cartesian Spherical Contaminant
         s      21       5        X                  
         p      15       4        X                  
         d      10       2                 X         
         f       6       1                 X         
--
 
 
++    Molecular structure info:
      -------------------------
 
                    ************************************************ 
                    **** Cartesian Coordinates / Bohr, Angstrom **** 
                    ************************************************ 
 
     Center  Label                x              y              z                     x              y              z
        1      O1               0.000000       0.000000       7.348427              0.000000       0.000000       3.888620
        2      FE2              0.000000       0.000000      -4.324865              0.000000       0.000000      -2.288620
--
 
 
            Nuclear Potential Energy             17.81845287 au
 
 ###############################################################################
 ###############################################################################
 ###                                                                         ###
 ###                                                                         ###
 ###    There were warnings during the execution                             ###
 ###    Please, check the output with care!                                  ###
 ###                                                                         ###
 ###                                                                         ###
 ###############################################################################
 ###############################################################################
--- Stop Module: gateway at Thu Jan 23 10:32:06 2025 /rc=_RC_ALL_IS_WELL_ ---
*** files: xmldump
    saved to directory /home/grierjones/DDCASPT2/iron_oxo_DDCASPT2/cluster/6.18

--- Start Module: seward at Thu Jan 23 10:32:06 2025 ---
 
()()()()()()()()()()()()()()()()()()()()()()()()()()()()()()()()()()()()()()()()()()()()()()()()()()

                                              &SEWARD

                                   only a single process is used
                       available to each process: 2.0 GB of memory, 1 thread?
()()()()()()()()()()()()()()()()()()()()()()()()()()()()()()()()()()()()()()()()()()()()()()()()()()
 
 ###############################################################################
 ###############################################################################
 ###                                                                         ###
 ###                                                                         ###
 ###                                                                         ###
 ###    WARNING: EXPERT option is ON!                                        ###
 ###                                                                         ###
 ###                                                                         ###
 ###############################################################################
 ###############################################################################
               SEWARD will generate:
                  Multipole Moment integrals up to order  2
                  Kinetic Energy integrals
                  Nuclear Attraction integrals (point charge)
                  One-Electron Hamiltonian integrals
                  Velocity integrals
                  Relativistic Douglas-Kroll-Hess integrals:
                    - Parametrization         : EXP
                    - DKH order of Hamiltonian: 2
                    - DKH order of Properties : 0
                         - multipole moment operators
                         - electric potential operators
                         - contact operators
                  Atomic mean-field integrals
                  Two-Electron Repulsion integrals
 
                   Integrals are discarded if absolute value <: 0.10E-13
                   Integral cutoff threshold is set to       <: 0.10E-15
 
            Nuclear Potential Energy             17.81845287 au
 
 
      Basis set specifications :
      Symmetry species         a  
      Basis functions           48
 
 
  Input file to MOLDEN was generated!
 
 ###############################################################################
 ###############################################################################
 ###                                                                         ###
 ###                                                                         ###
 ###    There were warnings during the execution                             ###
 ###    Please, check the output with care!                                  ###
 ###                                                                         ###
 ###                                                                         ###
 ###############################################################################
 ###############################################################################
forrtl: warning (525): IEEE_DIVIDE_BY_ZERO is signaling
forrtl: warning (526): IEEE_INVALID is signaling
forrtl: warning (528): IEEE_UNDERFLOW is signaling
--- Stop Module: seward at Thu Jan 23 10:32:07 2025 /rc=_RC_ALL_IS_WELL_ ---
*** files: 6.18.GssOrb 6.18.guessorb.h5 6.18.guessorb.molden xmldump
    saved to directory /home/grierjones/DDCASPT2/iron_oxo_DDCASPT2/cluster/6.18

*** symbolic link created: INPORB -> 6.18.GssOrb
--- Start Module: scf at Thu Jan 23 10:32:07 2025 ---
 
()()()()()()()()()()()()()()()()()()()()()()()()()()()()()()()()()()()()()()()()()()()()()()()()()()

                                                &SCF

                                   only a single process is used
                       available to each process: 2.0 GB of memory, 1 thread?
()()()()()()()()()()()()()()()()()()()()()()()()()()()()()()()()()()()()()()()()()()()()()()()()()()
 
 *** Possible bug in opening file
 *** isFreeUnit resets the unit number
++    Input section:
      --------------
 
      Header of the integral files:
      
       Integrals generated by seward 4.2.0  , Thu Jan 23 10:32:06 2025
 
 
      Cartesian coordinates in Angstrom:
      -----------------------------------------------------
      No.  Label        X            Y            Z        
      -----------------------------------------------------
       1   O1         0.00000000   0.00000000   3.88862000
       2   FE2        0.00000000   0.00000000  -2.28862000
      -----------------------------------------------------
      Nuclear repulsion energy =   17.81845287
--
 
++    Orbital specifications:
      -----------------------
 
      Symmetry species               1
                                     a
      Frozen orbitals                0
      Occupied orbitals alpha       18
      Occupied orbitals beta        14
      Secondary orbitals alpha      30
      Secondary orbitals beta       34
      Deleted orbitals               0
      Total number of orbitals      48
      Number of basis functions     48
--
 
      Molecular charge                           2.000
 
++    Optimization specifications:
      ----------------------------
 
      SCF Algorithm: Conventional USCF
      D(i)-D(i-1) density differences are used
      Number of density matrices in core                5
      Maximum number of NDDO SCF iterations           400
      Maximum number of HF SCF iterations             400
      Threshold for SCF energy change            0.10E-08
      Threshold for density matrix               0.10E-03
      Threshold for Fock matrix                  0.15E-03
      Threshold for linear dependence            0.10E-08
      Threshold at which DIIS is turned on       0.15E+00
      Threshold at which QNR/C2DIIS is turned on 0.75E-01
      Threshold for Norm(delta) (QNR/C2DIIS)     0.20E-04
      DIIS extrapolation of the SCF procedure
      All orbitals punched on: UHFORB
--
 
      Input vectors read from INPORB
      Orbital file label: * UHF orbitals
 
 
++ Convergence information
                               UHF SCF        iterations: Energy and convergence statistics
 
Iter     Tot. SCF        One-elec.       Two-elec.     Energy      Max Dij or  Max Fij      DNorm      TNorm      AccCon     Time
         Energy          Energy          Energy        Change      Delta Norm                                                in Sec.
 
 The total and one-electron energies are shifted by a value of      1000. a.u.
 
   1  -345.272960616  -884.346181616   521.254768129   0.00E+00    0.10E-04    0.32E-05     0.80E+01   0.18E+03   None         0.
   2  -345.272960616  -884.345914153   521.254500665  -0.13E-09    0.68E-05    0.27E-05     0.33E-04   0.18E+03   EDIIS        0.
 
       Convergence after  2 Macro Iterations
--
 
 *****************************************************************************************************************************
 *                                                                                                                           *
 *                                             SCF/KS-DFT Program, Final results                                             *
 *                                                                                                                           *
 *                                                                                                                           *
 *                                                                                                                           *
 *                                                       Final Results                                                       *
 *                                                                                                                           *
 *****************************************************************************************************************************
 
::    Total SCF energy                              -1345.2729606158
      One-electron energy                           -1884.3459141525
      Two-electron energy                             521.2545006646
      Nuclear repulsion energy                         17.8184528721
      Kinetic energy (interpolated)                  1399.3970600781
      Virial theorem                                    0.9613232720
      Total spin, S(S+1)                                7.0175152636
      Total spin, S                                     2.1958329443
      Max non-diagonal density matrix element           0.0000067965
      Max non-diagonal Fock matrix element              0.0000027048
 
 
      All orbitals with orbital energies smaller than  E(LUMO)+0.5 are printed
 
++    Molecular orbitals:
      -------------------
 
      Title: UHF orbitals (alpha)

      Molecular orbitals for symmetry species 1: a  
 
          Orbital            1         2         3         4         5         6         7         8         9        10    
          Energy         -263.8615  -32.6379  -27.7214  -27.7214  -27.6906  -21.4845   -4.5520   -3.1293   -3.1293   -3.0577
          Occ. No.          1.0000    1.0000    1.0000    1.0000    1.0000    1.0000    1.0000    1.0000    1.0000    1.0000
 
        1 O1     1s         0.0000   -0.0000    0.0000   -0.0000   -0.0000    1.0000    0.0000   -0.0000    0.0000    0.0000
        2 O1     2s         0.0000   -0.0000    0.0000   -0.0000   -0.0000    0.0003    0.0001   -0.0000    0.0000    0.0001
        3 O1     3s         0.0000   -0.0000    0.0000   -0.0000   -0.0000   -0.0010    0.0001   -0.0000    0.0000    0.0001
        4 O1     2px        0.0000    0.0000   -0.0000   -0.0000    0.0000   -0.0000    0.0000    0.0000    0.0000   -0.0000
        5 O1     3px        0.0000    0.0000   -0.0000   -0.0000    0.0000    0.0000    0.0000    0.0000    0.0000   -0.0000
        6 O1     2py       -0.0000   -0.0000   -0.0000    0.0000   -0.0000    0.0000   -0.0000    0.0000   -0.0000    0.0000
        7 O1     3py       -0.0000   -0.0000   -0.0000    0.0000   -0.0000   -0.0000   -0.0000    0.0000   -0.0000    0.0000
        8 O1     2pz        0.0000    0.0000   -0.0000    0.0000    0.0000   -0.0000   -0.0000    0.0000   -0.0000   -0.0000
        9 O1     3pz        0.0000    0.0000   -0.0000    0.0000    0.0000    0.0000   -0.0001    0.0000   -0.0000   -0.0001
       10 O1     3d2-       0.0000   -0.0000   -0.0000    0.0000    0.0000    0.0000   -0.0000   -0.0000   -0.0000   -0.0000
       11 O1     3d1-       0.0000    0.0000    0.0000   -0.0000    0.0000    0.0000    0.0000   -0.0000    0.0000   -0.0000
       12 O1     3d0       -0.0000   -0.0000    0.0000   -0.0000   -0.0000   -0.0015    0.0000   -0.0000    0.0000    0.0000
       13 O1     3d1+      -0.0000   -0.0000    0.0000    0.0000   -0.0000   -0.0000   -0.0000   -0.0000   -0.0000    0.0000
       14 O1     3d2+      -0.0000    0.0000   -0.0000    0.0000   -0.0000    0.0000    0.0000    0.0000   -0.0000   -0.0000
       15 FE2    1s         1.0000    0.0000    0.0000   -0.0000   -0.0000    0.0000   -0.0000   -0.0000    0.0000    0.0000
       16 FE2    2s        -0.0000    1.0000    0.0000   -0.0000   -0.0003   -0.0000   -0.0023    0.0000   -0.0000   -0.0000
       17 FE2    3s         0.0000    0.0023    0.0000   -0.0000   -0.0000   -0.0000    0.9999    0.0000   -0.0000   -0.0012
       18 FE2    4s        -0.0000   -0.0001   -0.0000    0.0000    0.0000    0.0000    0.0063   -0.0000    0.0000    0.0006
       19 FE2    5s         0.0000    0.0001   -0.0000    0.0000   -0.0000    0.0000   -0.0044    0.0000   -0.0000   -0.0004
       20 FE2    2px       -0.0000   -0.0000    0.2504    0.9681   -0.0000   -0.0000    0.0000   -0.0007   -0.0019    0.0000
       21 FE2    3px        0.0000   -0.0000    0.0005    0.0020   -0.0000    0.0000   -0.0000    0.3466    0.9379   -0.0000
       22 FE2    4px       -0.0000    0.0000   -0.0001   -0.0002    0.0000   -0.0000    0.0000    0.0012    0.0031   -0.0000
       23 FE2    5px        0.0000   -0.0000    0.0002    0.0006   -0.0000   -0.0000   -0.0000   -0.0015   -0.0041    0.0000
       24 FE2    2py        0.0000    0.0000    0.9681   -0.2504    0.0001    0.0000   -0.0000   -0.0019    0.0007   -0.0000
       25 FE2    3py       -0.0000    0.0000    0.0020   -0.0005    0.0000   -0.0000    0.0000    0.9379   -0.3466    0.0001
       26 FE2    4py        0.0000   -0.0000   -0.0002    0.0001   -0.0000    0.0000   -0.0000    0.0031   -0.0012    0.0000
       27 FE2    5py       -0.0000    0.0000    0.0006   -0.0002    0.0000    0.0000    0.0000   -0.0041    0.0015   -0.0000
       28 FE2    2pz        0.0000    0.0003   -0.0001    0.0000    1.0000   -0.0000   -0.0000    0.0000   -0.0000   -0.0016
       29 FE2    3pz       -0.0000    0.0000   -0.0000    0.0000    0.0016   -0.0000    0.0012   -0.0001    0.0001    1.0000
       30 FE2    4pz        0.0000   -0.0000    0.0000   -0.0000   -0.0001    0.0000    0.0001   -0.0000    0.0000    0.0057
       31 FE2    5pz       -0.0000    0.0000   -0.0000    0.0000    0.0003    0.0000   -0.0001    0.0000   -0.0000   -0.0057
       32 FE2    3d2-       0.0000    0.0000   -0.0000    0.0000    0.0000    0.0000    0.0000   -0.0000    0.0000    0.0000
       33 FE2    4d2-      -0.0000   -0.0000    0.0000   -0.0000   -0.0000   -0.0000   -0.0000    0.0000   -0.0000   -0.0000
       34 FE2    3d1-      -0.0000   -0.0000    0.0000   -0.0000    0.0000    0.0000   -0.0000    0.0006   -0.0002    0.0000
       35 FE2    4d1-       0.0000    0.0000   -0.0000    0.0000   -0.0000    0.0000    0.0000    0.0001   -0.0000    0.0000
       36 FE2    3d0       -0.0000   -0.0005   -0.0000    0.0000    0.0000    0.0000   -0.0124   -0.0000    0.0000    0.0006
       37 FE2    4d0        0.0000    0.0004    0.0000   -0.0000   -0.0000    0.0000    0.0041   -0.0000    0.0000    0.0002
       38 FE2    3d1+       0.0000    0.0000    0.0000    0.0000   -0.0000   -0.0000    0.0000    0.0002    0.0006   -0.0000
       39 FE2    4d1+      -0.0000   -0.0000   -0.0000   -0.0000    0.0000   -0.0000   -0.0000    0.0000    0.0001   -0.0000
       40 FE2    3d2+       0.0000    0.0000   -0.0000    0.0000    0.0000   -0.0000    0.0000   -0.0000    0.0000    0.0000
       41 FE2    4d2+      -0.0000   -0.0000    0.0000   -0.0000   -0.0000   -0.0000   -0.0000    0.0000   -0.0000   -0.0000
       42 FE2    4f3-       0.0000    0.0000    0.0000    0.0000   -0.0000    0.0000    0.0000    0.0000    0.0000   -0.0000
       43 FE2    4f2-       0.0000    0.0000    0.0000   -0.0000   -0.0000    0.0000    0.0000   -0.0000   -0.0000   -0.0000
       44 FE2    4f1-      -0.0000   -0.0000   -0.0003    0.0001   -0.0000    0.0000   -0.0000   -0.0076    0.0028   -0.0000
       45 FE2    4f0        0.0000   -0.0000    0.0000   -0.0000   -0.0001    0.0000   -0.0000    0.0000   -0.0000   -0.0018
       46 FE2    4f1+       0.0000    0.0000   -0.0001   -0.0003    0.0000   -0.0000    0.0000   -0.0028   -0.0076    0.0000
       47 FE2    4f2+       0.0000    0.0000    0.0000   -0.0000    0.0000   -0.0000    0.0000    0.0000   -0.0000    0.0000
       48 FE2    4f3+       0.0000    0.0000   -0.0000    0.0000   -0.0000    0.0000    0.0000   -0.0000    0.0000   -0.0000
 
          Orbital           11        12        13        14        15        16        17        18        19        20    
          Energy           -1.9961   -1.3815   -1.3815   -0.8633   -0.8633   -0.8243   -0.7894   -0.7894   -0.5407   -0.3155
          Occ. No.          1.0000    1.0000    1.0000    1.0000    1.0000    1.0000    1.0000    1.0000    0.0000    0.0000
 
        1 O1     1s        -0.0004    0.0000   -0.0000    0.0000    0.0000   -0.0000    0.0000   -0.0000   -0.0000   -0.0003
        2 O1     2s         0.9962    0.0000   -0.0000    0.0000    0.0000   -0.0002    0.0000   -0.0000    0.0046   -0.0036
        3 O1     3s        -0.0712   -0.0000    0.0000    0.0000    0.0000   -0.0001    0.0000   -0.0000   -0.0043    0.0024
        4 O1     2px       -0.0000   -0.1714    0.9748   -0.0000    0.0000    0.0000   -0.0000   -0.0001    0.0000    0.0000
        5 O1     3px        0.0000    0.0247   -0.1408   -0.0000    0.0000    0.0000   -0.0000   -0.0002    0.0000    0.0000
        6 O1     2py        0.0000    0.9748    0.1714   -0.0000   -0.0000   -0.0000   -0.0001    0.0000   -0.0001   -0.0000
        7 O1     3py       -0.0000   -0.1408   -0.0247   -0.0000   -0.0000   -0.0000   -0.0002    0.0000   -0.0000   -0.0000
        8 O1     2pz       -0.0051    0.0001   -0.0000   -0.0000   -0.0000    0.0004   -0.0000    0.0000    0.9945    0.0127
        9 O1     3pz       -0.0002   -0.0000    0.0000   -0.0000   -0.0000    0.0009   -0.0000    0.0000    0.1054   -0.0043
       10 O1     3d2-       0.0000   -0.0000    0.0000   -0.0000    0.0000   -0.0000    0.0000   -0.0000    0.0000   -0.0000
       11 O1     3d1-       0.0000   -0.0015   -0.0003    0.0000    0.0000   -0.0000   -0.0000    0.0000    0.0000   -0.0000
       12 O1     3d0       -0.0509   -0.0000    0.0000    0.0000    0.0000   -0.0000   -0.0000    0.0000   -0.0024    0.0004
       13 O1     3d1+      -0.0000    0.0003   -0.0015    0.0000   -0.0000    0.0000   -0.0000   -0.0000   -0.0000    0.0000
       14 O1     3d2+       0.0000   -0.0000   -0.0000    0.0000    0.0000   -0.0000    0.0000    0.0000    0.0000   -0.0000
       15 FE2    1s        -0.0000   -0.0000    0.0000    0.0000   -0.0000    0.0000   -0.0000    0.0000    0.0000    0.0000
       16 FE2    2s        -0.0000   -0.0000    0.0000    0.0000   -0.0000    0.0004   -0.0000    0.0000    0.0000    0.0001
       17 FE2    3s        -0.0000   -0.0000    0.0000    0.0000   -0.0000    0.0124   -0.0000    0.0000    0.0002   -0.0058
       18 FE2    4s        -0.0001   -0.0000    0.0000   -0.0000   -0.0000   -0.0143   -0.0000    0.0000    0.0012    0.9936
       19 FE2    5s        -0.0002   -0.0000    0.0000    0.0000    0.0000    0.0076   -0.0000    0.0000    0.0023    0.0710
       20 FE2    2px        0.0000   -0.0000    0.0000   -0.0000    0.0000    0.0000   -0.0000   -0.0000   -0.0000    0.0000
       21 FE2    3px       -0.0000   -0.0000    0.0000   -0.0000    0.0000    0.0000   -0.0000   -0.0006   -0.0000    0.0000
       22 FE2    4px       -0.0000   -0.0000    0.0003    0.0000   -0.0000   -0.0000    0.0006    0.0081   -0.0000    0.0000
       23 FE2    5px       -0.0000   -0.0000    0.0001    0.0000   -0.0000   -0.0000    0.0000    0.0003   -0.0000    0.0000
       24 FE2    2py       -0.0000    0.0000    0.0000   -0.0000   -0.0000   -0.0000   -0.0000    0.0000    0.0000   -0.0000
       25 FE2    3py        0.0000    0.0000    0.0000   -0.0000   -0.0000   -0.0000   -0.0006    0.0000    0.0000   -0.0000
       26 FE2    4py        0.0000    0.0003    0.0000    0.0000    0.0000    0.0000    0.0081   -0.0006    0.0000   -0.0000
       27 FE2    5py        0.0000    0.0001    0.0000    0.0000    0.0000    0.0000    0.0003   -0.0000    0.0000   -0.0000
       28 FE2    2pz        0.0000   -0.0000    0.0000    0.0000    0.0000   -0.0000    0.0000   -0.0000    0.0000    0.0000
       29 FE2    3pz       -0.0000   -0.0000    0.0000    0.0000    0.0000   -0.0007    0.0000   -0.0000    0.0002   -0.0010
       30 FE2    4pz       -0.0001   -0.0000    0.0000   -0.0000   -0.0000    0.0090   -0.0000    0.0000    0.0012    0.0830
       31 FE2    5pz       -0.0001   -0.0000    0.0000   -0.0000   -0.0000    0.0004   -0.0000    0.0000    0.0004    0.0120
       32 FE2    3d2-       0.0000    0.0000   -0.0000   -0.2548    0.9670   -0.0000   -0.0000    0.0001    0.0000   -0.0000
       33 FE2    4d2-       0.0000    0.0000   -0.0000   -0.0008    0.0031   -0.0000   -0.0000    0.0000    0.0000    0.0000
       34 FE2    3d1-       0.0000    0.0001    0.0000    0.0001    0.0001    0.0002    0.9968   -0.0746   -0.0000    0.0000
       35 FE2    4d1-       0.0000    0.0001    0.0000    0.0000    0.0000    0.0000    0.0270   -0.0020    0.0000   -0.0000
       36 FE2    3d0       -0.0000   -0.0000    0.0000   -0.0000   -0.0000    0.9996   -0.0001    0.0001    0.0009    0.0131
       37 FE2    4d0       -0.0000   -0.0000    0.0000   -0.0000   -0.0000    0.0154   -0.0000    0.0000    0.0003   -0.0076
       38 FE2    3d1+      -0.0000   -0.0000    0.0001    0.0000   -0.0001   -0.0000    0.0746    0.9968    0.0000   -0.0000
       39 FE2    4d1+      -0.0000   -0.0000    0.0001    0.0000   -0.0000   -0.0000    0.0020    0.0270   -0.0000    0.0000
       40 FE2    3d2+       0.0000    0.0000    0.0000    0.9670    0.2548   -0.0000   -0.0001   -0.0000    0.0000   -0.0000
       41 FE2    4d2+       0.0000    0.0000    0.0000    0.0031    0.0008   -0.0000   -0.0000   -0.0000    0.0000    0.0000
       42 FE2    4f3-      -0.0000    0.0000   -0.0000    0.0000   -0.0000   -0.0000   -0.0000    0.0000   -0.0000   -0.0000
       43 FE2    4f2-      -0.0000   -0.0000    0.0000   -0.0001    0.0005   -0.0000   -0.0000    0.0000   -0.0000   -0.0000
       44 FE2    4f1-       0.0000    0.0000    0.0000    0.0000    0.0000    0.0000    0.0007   -0.0001   -0.0000    0.0000
       45 FE2    4f0        0.0000   -0.0000    0.0000   -0.0000   -0.0000    0.0007   -0.0000    0.0000   -0.0000    0.0000
       46 FE2    4f1+      -0.0000   -0.0000    0.0000    0.0000   -0.0000   -0.0000    0.0001    0.0007    0.0000   -0.0000
       47 FE2    4f2+      -0.0000   -0.0000   -0.0000    0.0005    0.0001   -0.0000   -0.0000   -0.0000   -0.0000   -0.0000
       48 FE2    4f3+      -0.0000    0.0000   -0.0000   -0.0000   -0.0000   -0.0000    0.0000   -0.0000   -0.0000   -0.0000
 
          Orbital           21        22        23        24    
          Energy           -0.1685   -0.1685   -0.1604   -0.0804
          Occ. No.          0.0000    0.0000    0.0000    0.0000
 
        1 O1     1s         0.0000    0.0000   -0.0005   -0.0010
        2 O1     2s         0.0000    0.0000   -0.0047   -0.0096
        3 O1     3s        -0.0000   -0.0000    0.0091    0.0243
        4 O1     2px       -0.0002    0.0007    0.0000    0.0000
        5 O1     3px       -0.0026    0.0080    0.0000    0.0000
        6 O1     2py        0.0007    0.0002   -0.0000   -0.0000
        7 O1     3py        0.0080    0.0026   -0.0000   -0.0000
        8 O1     2pz       -0.0000   -0.0000    0.0188    0.0315
        9 O1     3pz        0.0000    0.0000   -0.0306   -0.0595
       10 O1     3d2-       0.0000   -0.0000   -0.0000   -0.0000
       11 O1     3d1-      -0.0002   -0.0001   -0.0000   -0.0000
       12 O1     3d0       -0.0000   -0.0000    0.0011    0.0022
       13 O1     3d1+       0.0001   -0.0002    0.0000    0.0000
       14 O1     3d2+       0.0000    0.0000   -0.0000   -0.0000
       15 FE2    1s         0.0000    0.0000   -0.0000   -0.0000
       16 FE2    2s         0.0000    0.0000   -0.0000   -0.0002
       17 FE2    3s        -0.0000   -0.0000    0.0006    0.0045
       18 FE2    4s         0.0000    0.0000   -0.0904   -0.0668
       19 FE2    5s        -0.0000   -0.0000    0.0709    0.9864
       20 FE2    2px       -0.0000    0.0001   -0.0000   -0.0000
       21 FE2    3px        0.0009   -0.0027    0.0000   -0.0000
       22 FE2    4px       -0.3104    0.9435   -0.0000    0.0000
       23 FE2    5px       -0.0357    0.1086   -0.0000    0.0000
       24 FE2    2py        0.0001    0.0000    0.0000    0.0000
       25 FE2    3py       -0.0027   -0.0009   -0.0000    0.0000
       26 FE2    4py        0.9435    0.3104    0.0001   -0.0000
       27 FE2    5py        0.1086    0.0357    0.0000   -0.0000
       28 FE2    2pz       -0.0000   -0.0000    0.0001   -0.0000
       29 FE2    3pz        0.0000    0.0000   -0.0049    0.0008
       30 FE2    4pz       -0.0001   -0.0000    0.9836   -0.0854
       31 FE2    5pz       -0.0000   -0.0000    0.1200   -0.0054
       32 FE2    3d2-       0.0000   -0.0000   -0.0000    0.0000
       33 FE2    4d2-       0.0000   -0.0000   -0.0000   -0.0000
       34 FE2    3d1-      -0.0079   -0.0026   -0.0000   -0.0000
       35 FE2    4d1-       0.0073    0.0024    0.0000    0.0000
       36 FE2    3d0        0.0000    0.0000   -0.0110   -0.0081
       37 FE2    4d0       -0.0000   -0.0000    0.0130    0.0149
       38 FE2    3d1+       0.0026   -0.0079    0.0000    0.0000
       39 FE2    4d1+      -0.0024    0.0073   -0.0000   -0.0000
       40 FE2    3d2+       0.0000    0.0000    0.0000    0.0000
       41 FE2    4d2+       0.0000    0.0000   -0.0000   -0.0000
       42 FE2    4f3-       0.0000   -0.0000    0.0000    0.0000
       43 FE2    4f2-      -0.0000   -0.0000    0.0000    0.0000
       44 FE2    4f1-      -0.0000   -0.0000   -0.0000   -0.0000
       45 FE2    4f0        0.0000    0.0000   -0.0004    0.0000
       46 FE2    4f1+       0.0000   -0.0000    0.0000    0.0000
       47 FE2    4f2+       0.0000    0.0000    0.0000    0.0000
       48 FE2    4f3+       0.0000   -0.0000    0.0000    0.0000
--
 
 
  Input file to MOLDEN was generated!
 
 
++    Static properties:
      ------------------
 
 
      LoProp Charges per center
 

                   O1       FE2   
      Nuclear      8.0000  26.0000
      Electronic  -7.0000 -25.0000
 
      Total        1.0000   1.0000
--
 
 
      All orbitals with orbital energies smaller than  E(LUMO)+0.5 are printed
 
++    Molecular orbitals:
      -------------------
 
      Title: UHF orbitals (beta)

      Molecular orbitals for symmetry species 1: a  
 
          Orbital            1         2         3         4         5         6         7         8         9        10    
          Energy         -263.8601  -32.5531  -27.6271  -27.6271  -27.6264  -21.4375   -4.3005   -2.8338   -2.7845   -2.7845
          Occ. No.          1.0000    1.0000    1.0000    1.0000    1.0000    1.0000    1.0000    1.0000    1.0000    1.0000
 
        1 O1     1s         0.0000    0.0000   -0.0000    0.0000    0.0000    1.0000    0.0000    0.0000    0.0000   -0.0000
        2 O1     2s         0.0000    0.0000   -0.0000    0.0000    0.0000   -0.0019    0.0001    0.0001    0.0000   -0.0000
        3 O1     3s         0.0000    0.0000   -0.0000    0.0000    0.0000    0.0002    0.0001    0.0001    0.0000   -0.0000
        4 O1     2px        0.0000    0.0000   -0.0000    0.0000   -0.0000    0.0000    0.0000   -0.0000    0.0000    0.0000
        5 O1     3px        0.0000    0.0000   -0.0000    0.0000   -0.0000   -0.0000   -0.0000   -0.0000    0.0000    0.0000
        6 O1     2py        0.0000   -0.0000    0.0000    0.0000    0.0000   -0.0000   -0.0000    0.0000   -0.0000    0.0000
        7 O1     3py       -0.0000   -0.0000    0.0000    0.0000    0.0000    0.0000    0.0000    0.0000   -0.0000    0.0000
        8 O1     2pz        0.0000   -0.0000    0.0000   -0.0000   -0.0000   -0.0000   -0.0001   -0.0001   -0.0000    0.0000
        9 O1     3pz        0.0000   -0.0000    0.0000   -0.0000   -0.0000   -0.0000   -0.0002   -0.0001   -0.0000    0.0000
       10 O1     3d2-       0.0000   -0.0000    0.0000    0.0000    0.0000   -0.0000   -0.0000   -0.0000    0.0000    0.0000
       11 O1     3d1-       0.0000    0.0000   -0.0000   -0.0000   -0.0000   -0.0000    0.0000   -0.0000    0.0000   -0.0000
       12 O1     3d0       -0.0000    0.0000   -0.0000    0.0000    0.0000    0.0015    0.0000    0.0000    0.0000   -0.0000
       13 O1     3d1+      -0.0000   -0.0000    0.0000   -0.0000    0.0000    0.0000   -0.0000    0.0000   -0.0000   -0.0000
       14 O1     3d2+      -0.0000    0.0000   -0.0000   -0.0000   -0.0000   -0.0000    0.0000   -0.0000    0.0000   -0.0000
       15 FE2    1s         1.0000    0.0000    0.0000   -0.0000   -0.0000   -0.0000   -0.0000    0.0000    0.0000   -0.0000
       16 FE2    2s        -0.0000    1.0000    0.0000   -0.0000   -0.0003   -0.0000    0.0002   -0.0000   -0.0000    0.0000
       17 FE2    3s         0.0000   -0.0002   -0.0000    0.0000    0.0000    0.0000    1.0000   -0.0013   -0.0000    0.0000
       18 FE2    4s        -0.0000    0.0001   -0.0000    0.0000    0.0000   -0.0000    0.0076    0.0006    0.0000   -0.0000
       19 FE2    5s         0.0000   -0.0002    0.0000   -0.0000   -0.0000   -0.0000   -0.0057   -0.0004   -0.0000    0.0000
       20 FE2    2px       -0.0000   -0.0000   -0.1154    0.9933   -0.0000    0.0000   -0.0000   -0.0000    0.0016    0.0011
       21 FE2    3px        0.0000    0.0000    0.0002   -0.0019    0.0000   -0.0000    0.0000   -0.0000    0.8301    0.5574
       22 FE2    4px       -0.0000   -0.0000   -0.0000    0.0003   -0.0000    0.0000   -0.0000   -0.0000    0.0067    0.0045
       23 FE2    5px        0.0000   -0.0000    0.0001   -0.0008    0.0000    0.0000   -0.0000    0.0000   -0.0074   -0.0050
       24 FE2    2py        0.0000    0.0000    0.9933    0.1154    0.0001   -0.0000    0.0000    0.0000   -0.0011    0.0016
       25 FE2    3py       -0.0000   -0.0000   -0.0019   -0.0002   -0.0000    0.0000   -0.0000    0.0001   -0.5574    0.8301
       26 FE2    4py        0.0000    0.0000    0.0003    0.0000    0.0000   -0.0000    0.0000    0.0000   -0.0045    0.0067
       27 FE2    5py       -0.0000    0.0000   -0.0008   -0.0001   -0.0000   -0.0000    0.0000   -0.0000    0.0050   -0.0074
       28 FE2    2pz        0.0000    0.0003   -0.0002    0.0000    1.0000   -0.0000   -0.0000    0.0010    0.0000   -0.0000
       29 FE2    3pz       -0.0000    0.0000    0.0000   -0.0000   -0.0010    0.0000    0.0013    0.9997    0.0001   -0.0001
       30 FE2    4pz        0.0000   -0.0000   -0.0000    0.0000    0.0003   -0.0000    0.0001    0.0107    0.0000   -0.0000
       31 FE2    5pz       -0.0000    0.0000    0.0000   -0.0000   -0.0007   -0.0000   -0.0001   -0.0099   -0.0000    0.0000
       32 FE2    3d2-      -0.0000   -0.0000   -0.0000    0.0000   -0.0000    0.0000   -0.0000   -0.0000   -0.0000   -0.0000
       33 FE2    4d2-      -0.0000   -0.0000   -0.0000   -0.0000    0.0000    0.0000    0.0000    0.0000    0.0000    0.0000
       34 FE2    3d1-       0.0000    0.0000    0.0000    0.0000    0.0000   -0.0000    0.0000    0.0000   -0.0002    0.0003
       35 FE2    4d1-       0.0000    0.0000   -0.0000   -0.0000   -0.0000   -0.0000    0.0000   -0.0000   -0.0002    0.0002
       36 FE2    3d0        0.0000    0.0000   -0.0000    0.0000    0.0000   -0.0000    0.0010    0.0011    0.0000   -0.0000
       37 FE2    4d0        0.0000    0.0000    0.0000   -0.0000   -0.0000   -0.0000    0.0004   -0.0002    0.0000   -0.0000
       38 FE2    3d1+      -0.0000   -0.0000   -0.0000    0.0000   -0.0000    0.0000   -0.0000   -0.0000    0.0003    0.0002
       39 FE2    4d1+      -0.0000   -0.0000    0.0000   -0.0000    0.0000    0.0000   -0.0000    0.0000    0.0002    0.0002
       40 FE2    3d2+      -0.0000   -0.0000   -0.0000   -0.0000   -0.0000    0.0000   -0.0000   -0.0000   -0.0000    0.0000
       41 FE2    4d2+      -0.0000   -0.0000    0.0000    0.0000    0.0000    0.0000    0.0000    0.0000    0.0000   -0.0000
       42 FE2    4f3-       0.0000   -0.0000   -0.0000   -0.0000    0.0000    0.0000   -0.0000    0.0000   -0.0000   -0.0000
       43 FE2    4f2-       0.0000   -0.0000   -0.0000    0.0000    0.0000    0.0000   -0.0000    0.0000    0.0000    0.0000
       44 FE2    4f1-      -0.0000    0.0000    0.0008    0.0001   -0.0000   -0.0000    0.0000   -0.0000   -0.0072    0.0107
       45 FE2    4f0       -0.0000    0.0000   -0.0000    0.0000   -0.0011   -0.0000    0.0000   -0.0211    0.0000   -0.0000
       46 FE2    4f1+       0.0000   -0.0000   -0.0001    0.0008    0.0000    0.0000   -0.0000    0.0000    0.0107    0.0072
       47 FE2    4f2+       0.0000   -0.0000   -0.0000   -0.0000    0.0000    0.0000   -0.0000    0.0000    0.0000   -0.0000
       48 FE2    4f3+       0.0000   -0.0000    0.0000   -0.0000    0.0000    0.0000   -0.0000    0.0000   -0.0000   -0.0000
 
          Orbital           11        12        13        14        15        16        17        18        19        20    
          Energy           -1.8162   -1.3367   -0.6874   -0.6874   -0.5069   -0.5069   -0.2984   -0.1492   -0.1475   -0.1475
          Occ. No.          1.0000    1.0000    1.0000    1.0000    0.0000    0.0000    0.0000    0.0000    0.0000    0.0000
 
        1 O1     1s         0.0018    0.0000   -0.0000    0.0000    0.0000   -0.0000   -0.0004   -0.0005   -0.0000   -0.0000
        2 O1     2s         0.9974    0.0035   -0.0000    0.0000    0.0000   -0.0000   -0.0052   -0.0055   -0.0000   -0.0000
        3 O1     3s        -0.0468   -0.0027    0.0000   -0.0000   -0.0000    0.0000    0.0029    0.0086    0.0000    0.0000
        4 O1     2px        0.0000    0.0000    0.0000   -0.0000   -0.2222    0.9660   -0.0000   -0.0000   -0.0033    0.0010
        5 O1     3px       -0.0000   -0.0000   -0.0001    0.0000   -0.0296    0.1289   -0.0000   -0.0000    0.0052   -0.0016
        6 O1     2py       -0.0000   -0.0001    0.0000    0.0000    0.9660    0.2222    0.0000    0.0000   -0.0010   -0.0033
        7 O1     3py        0.0000    0.0000   -0.0000   -0.0001    0.1289    0.0296    0.0000    0.0000    0.0016    0.0052
        8 O1     2pz       -0.0037    0.9917    0.0000   -0.0000    0.0001   -0.0000    0.0029   -0.0029   -0.0000   -0.0000
        9 O1     3pz       -0.0014   -0.1281    0.0000   -0.0000    0.0000   -0.0000   -0.0113   -0.0556   -0.0000   -0.0000
       10 O1     3d2-      -0.0000   -0.0000    0.0000   -0.0000    0.0000   -0.0000    0.0000    0.0000    0.0000   -0.0000
       11 O1     3d1-      -0.0000    0.0000   -0.0000   -0.0000   -0.0013   -0.0003    0.0000    0.0000   -0.0001   -0.0002
       12 O1     3d0        0.0554   -0.0010    0.0000   -0.0000   -0.0000    0.0000    0.0003    0.0006    0.0000    0.0000
       13 O1     3d1+       0.0000   -0.0000   -0.0000    0.0000    0.0003   -0.0013   -0.0000   -0.0000   -0.0002    0.0001
       14 O1     3d2+      -0.0000   -0.0000   -0.0000   -0.0000    0.0000    0.0000    0.0000    0.0000   -0.0000   -0.0000
       15 FE2    1s        -0.0000   -0.0000    0.0000   -0.0000    0.0000   -0.0000   -0.0000   -0.0000   -0.0000   -0.0000
       16 FE2    2s        -0.0000   -0.0000   -0.0000    0.0000    0.0000   -0.0000   -0.0001    0.0000    0.0000    0.0000
       17 FE2    3s        -0.0000   -0.0000    0.0000   -0.0000    0.0000   -0.0000   -0.0067    0.0009    0.0000    0.0000
       18 FE2    4s        -0.0002   -0.0009    0.0000   -0.0000    0.0000   -0.0000    0.9843   -0.1032   -0.0000   -0.0000
       19 FE2    5s        -0.0006   -0.0012   -0.0000    0.0000    0.0000   -0.0000    0.1463    0.0487    0.0000    0.0000
       20 FE2    2px       -0.0000    0.0000   -0.0000    0.0000    0.0000   -0.0000   -0.0000   -0.0000   -0.0002    0.0001
       21 FE2    3px       -0.0000    0.0000   -0.0005    0.0001    0.0000   -0.0000    0.0000   -0.0000   -0.0066    0.0020
       22 FE2    4px        0.0000    0.0000    0.0130   -0.0025    0.0001   -0.0002    0.0000    0.0001    0.9501   -0.2830
       23 FE2    5px        0.0000    0.0000    0.0008   -0.0002    0.0000   -0.0001    0.0000    0.0000    0.1243   -0.0370
       24 FE2    2py        0.0000   -0.0000   -0.0000   -0.0000   -0.0000   -0.0000    0.0000    0.0000   -0.0001   -0.0002
       25 FE2    3py        0.0000   -0.0000   -0.0001   -0.0005   -0.0000   -0.0000   -0.0000    0.0000   -0.0020   -0.0066
       26 FE2    4py       -0.0000   -0.0000    0.0025    0.0130   -0.0002   -0.0001   -0.0000   -0.0002    0.2830    0.9501
       27 FE2    5py       -0.0000   -0.0000    0.0002    0.0008   -0.0001   -0.0000   -0.0000   -0.0000    0.0370    0.1243
       28 FE2    2pz       -0.0000   -0.0000   -0.0000    0.0000    0.0000   -0.0000   -0.0000   -0.0002   -0.0000   -0.0000
       29 FE2    3pz       -0.0000   -0.0000   -0.0000    0.0000    0.0000   -0.0000   -0.0014   -0.0092   -0.0000   -0.0000
       30 FE2    4pz       -0.0003   -0.0010    0.0000   -0.0000    0.0000   -0.0000    0.0899    0.9796    0.0000    0.0002
       31 FE2    5pz       -0.0002   -0.0004    0.0000   -0.0000    0.0000   -0.0000    0.0139    0.1290    0.0000    0.0000
       32 FE2    3d2-       0.0000   -0.0000    0.0001   -0.0001    0.0000   -0.0000   -0.0000   -0.0000   -0.0000    0.0000
       33 FE2    4d2-      -0.0000   -0.0000    0.0000   -0.0000    0.0000   -0.0000   -0.0000   -0.0000   -0.0000    0.0000
       34 FE2    3d1-      -0.0000    0.0000    0.1884    0.9793   -0.0004   -0.0001    0.0000    0.0000   -0.0039   -0.0132
       35 FE2    4d1-      -0.0000   -0.0000    0.0137    0.0714   -0.0001   -0.0000   -0.0000   -0.0000    0.0019    0.0063
       36 FE2    3d0       -0.0000   -0.0001    0.0000   -0.0002    0.0000   -0.0000    0.0030    0.0263    0.0000    0.0000
       37 FE2    4d0       -0.0001   -0.0003    0.0000   -0.0000    0.0000   -0.0000   -0.0003    0.0177    0.0000    0.0000
       38 FE2    3d1+       0.0000   -0.0000    0.9793   -0.1884    0.0001   -0.0004   -0.0000   -0.0000   -0.0132    0.0039
       39 FE2    4d1+       0.0000    0.0000    0.0714   -0.0137    0.0000   -0.0001    0.0000    0.0000    0.0063   -0.0019
       40 FE2    3d2+       0.0000   -0.0000   -0.0000   -0.0001    0.0000    0.0000   -0.0000   -0.0000    0.0000    0.0000
       41 FE2    4d2+      -0.0000   -0.0000   -0.0000   -0.0000    0.0000    0.0000   -0.0000   -0.0000    0.0000    0.0000
       42 FE2    4f3-      -0.0000   -0.0000    0.0000   -0.0000    0.0000    0.0000    0.0000    0.0000    0.0000    0.0000
       43 FE2    4f2-      -0.0000   -0.0000    0.0000   -0.0000    0.0000   -0.0000    0.0000    0.0000    0.0000   -0.0000
       44 FE2    4f1-       0.0000   -0.0000    0.0001    0.0007    0.0000    0.0000   -0.0000   -0.0000    0.0004    0.0013
       45 FE2    4f0       -0.0000   -0.0000    0.0000   -0.0000   -0.0000    0.0000   -0.0002   -0.0016   -0.0000   -0.0000
       46 FE2    4f1+      -0.0000    0.0000    0.0007   -0.0001   -0.0000    0.0000    0.0000    0.0000    0.0013   -0.0004
       47 FE2    4f2+      -0.0000   -0.0000   -0.0000   -0.0000    0.0000    0.0000    0.0000    0.0000   -0.0000   -0.0000
       48 FE2    4f3+      -0.0000   -0.0000   -0.0000    0.0000   -0.0000    0.0000    0.0000    0.0000   -0.0000    0.0000
 
          Orbital           21        22        23    
          Energy           -0.0616   -0.0073   -0.0073
          Occ. No.          0.0000    0.0000    0.0000
 
        1 O1     1s        -0.0010   -0.0000   -0.0000
        2 O1     2s        -0.0114   -0.0000   -0.0000
        3 O1     3s         0.0236   -0.0000   -0.0000
        4 O1     2px       -0.0000    0.0000   -0.0000
        5 O1     3px       -0.0000   -0.0000    0.0000
        6 O1     2py        0.0000   -0.0000   -0.0000
        7 O1     3py        0.0000    0.0000    0.0000
        8 O1     2pz       -0.0089    0.0000   -0.0000
        9 O1     3pz       -0.1395    0.0000    0.0000
       10 O1     3d2-       0.0000    0.0000   -0.0000
       11 O1     3d1-       0.0000   -0.0000   -0.0000
       12 O1     3d0        0.0010   -0.0000   -0.0000
       13 O1     3d1+      -0.0000    0.0000   -0.0000
       14 O1     3d2+       0.0000    0.0000    0.0000
       15 FE2    1s        -0.0000    0.0000    0.0000
       16 FE2    2s         0.0002    0.0000    0.0000
       17 FE2    3s         0.0064    0.0000    0.0000
       18 FE2    4s        -0.1461    0.0000   -0.0000
       19 FE2    5s         0.9636    0.0000    0.0000
       20 FE2    2px        0.0000    0.0000   -0.0000
       21 FE2    3px       -0.0000    0.0000   -0.0000
       22 FE2    4px        0.0000    0.0000   -0.0000
       23 FE2    5px        0.0000    0.0000   -0.0000
       24 FE2    2py       -0.0000   -0.0000   -0.0000
       25 FE2    3py        0.0000   -0.0000   -0.0000
       26 FE2    4py       -0.0000   -0.0000   -0.0000
       27 FE2    5py       -0.0000   -0.0000   -0.0000
       28 FE2    2pz        0.0000    0.0000    0.0000
       29 FE2    3pz        0.0011    0.0000    0.0000
       30 FE2    4pz       -0.0841    0.0000    0.0000
       31 FE2    5pz       -0.0059    0.0000    0.0000
       32 FE2    3d2-       0.0000    0.9194   -0.2532
       33 FE2    4d2-      -0.0000    0.2902   -0.0799
       34 FE2    3d1-       0.0000    0.0001    0.0001
       35 FE2    4d1-       0.0000    0.0000    0.0000
       36 FE2    3d0        0.0151   -0.0000   -0.0000
       37 FE2    4d0        0.0118   -0.0000   -0.0000
       38 FE2    3d1+      -0.0000   -0.0001    0.0000
       39 FE2    4d1+      -0.0000   -0.0000    0.0000
       40 FE2    3d2+      -0.0000    0.2532    0.9194
       41 FE2    4d2+      -0.0000    0.0799    0.2902
       42 FE2    4f3-      -0.0000   -0.0000    0.0000
       43 FE2    4f2-      -0.0000    0.0006   -0.0002
       44 FE2    4f1-       0.0000    0.0000    0.0000
       45 FE2    4f0        0.0003   -0.0000   -0.0000
       46 FE2    4f1+      -0.0000   -0.0000    0.0000
       47 FE2    4f2+      -0.0000    0.0002    0.0006
       48 FE2    4f3+      -0.0000   -0.0000   -0.0000
--
 
 
++    Molecular charges:
      ------------------
 
      Mulliken charges per centre and basis function type
      ---------------------------------------------------
 
                            O1                      FE2   
                     alpha        beta       alpha        beta
      1s           1.0000      1.0000      1.0000      1.0000
      2s           0.9923      0.9947      1.0000      1.0000
      2px          0.9796      0.0000      1.0000      1.0000
      2pz          0.0000      0.9836      1.0000      1.0000
      2py          0.9796      0.0000      1.0000      1.0000
      3s           0.0051      0.0022      0.9999      0.9999
      3px          0.0204     -0.0000      0.9999      0.9997
      3pz         -0.0000      0.0164      0.9999      0.9993
      3py          0.0204     -0.0000      0.9999      0.9997
      4s           0.0000      0.0000      0.0002      0.0001
      3d2+         0.0000      0.0000      1.0000      0.0000
      3d1+         0.0000      0.0000      0.9992      0.9945
      3d0          0.0026      0.0031      0.9994      0.0000
      3d1-         0.0000      0.0000      0.9992      0.9945
      3d2-         0.0000      0.0000      1.0000      0.0000
      4px          0.0000      0.0000      0.0001      0.0002
      4pz          0.0000      0.0000      0.0001      0.0001
      4py          0.0000      0.0000      0.0001      0.0002
      5s           0.0000      0.0000      0.0001      0.0000
      4d2+         0.0000      0.0000      0.0000      0.0000
      4d1+         0.0000      0.0000      0.0007      0.0053
      4d0          0.0000      0.0000      0.0003      0.0000
      4d1-         0.0000      0.0000      0.0007      0.0053
      4d2-         0.0000      0.0000      0.0000      0.0000
      5px          0.0000      0.0000      0.0000      0.0001
      5pz          0.0000      0.0000      0.0000      0.0001
      5py          0.0000      0.0000      0.0000      0.0001
      4f3+         0.0000      0.0000      0.0000      0.0000
      4f2+         0.0000      0.0000      0.0000      0.0000
      4f1+         0.0000      0.0000      0.0001      0.0002
      4f0          0.0000      0.0000      0.0000      0.0004
      4f1-         0.0000      0.0000      0.0001      0.0002
      4f2-         0.0000      0.0000      0.0000      0.0000
      4f3-         0.0000      0.0000      0.0000      0.0000
      Total        4.0000      3.0000     14.0000     11.0000
      Total              7.0000                 25.0000
 
      Charge            1.0000                  1.0000
 
      Total electronic charge=   32.000000
 
      Total            charge=    2.000000
--
 
 
  Input file to MOLDEN was generated!
 
 
++    Static properties:
      ------------------
 
 
      LoProp Charges per center
 

                   O1       FE2   
      Nuclear      8.0000  26.0000
      Electronic  -7.0000 -25.0000
 
      Total        1.0000   1.0000
--
 
 
++    Natural Bond Order analysis
      ---------------------------
      Based on LoProp computed density
      -------------------------------------------------------------------------------------
      Atom A       Atom B       Bond Order
      -------------------------------------------------------------------------------------
      NBO located     19.999 core electrons.
      NBO located      5.992 lone pair electrons.
      NBO located      1.000 non-bonded electrons on atom O1        
      NBO located      1.000 non-bonded electrons on atom O1        
      NBO located      1.000 non-bonded electrons on atom O1        
      NBO located      1.000 non-bonded electrons on atom FE2       
      NBO located      1.000 non-bonded electrons on atom FE2       
      NBO located      1.000 non-bonded electrons on atom FE2       
      The remaining    0.009 electrons are to be considered as diffuse
--
 
 
++    Molecular orbitals:
      -------------------
 
      Title: Natural orbitals

      Molecular orbitals for symmetry species 1: a  
 
          Orbital            1         2         3         4         5         6         7         8         9        10    
          Energy         -263.8608  -32.2637  -21.4506  -27.5501  -27.5717  -27.5716   -4.7580   -3.0467   -3.0576   -3.0577
          Occ. No.          2.0000    2.0000    2.0000    2.0000    2.0000    2.0000    2.0000    1.9998    1.9998    1.9998
 
        1 O1     1s         0.0000   -0.0035    0.9990    0.0329   -0.0000    0.0000    0.0030    0.0001   -0.0000    0.0000
        2 O1     2s        -0.0000    0.0001   -0.0301   -0.0010    0.0000   -0.0000    0.0000    0.0001   -0.0000    0.0000
        3 O1     3s         0.0000   -0.0000    0.0013    0.0000   -0.0000    0.0000    0.0001    0.0001   -0.0000    0.0000
        4 O1     2px       -0.0000   -0.0000   -0.0000   -0.0000   -0.0000   -0.0000    0.0000   -0.0000    0.0000    0.0000
        5 O1     3px        0.0000    0.0000    0.0000    0.0000   -0.0000   -0.0000    0.0000   -0.0000    0.0000    0.0000
        6 O1     2py        0.0000    0.0000    0.0000    0.0000   -0.0000    0.0000   -0.0000    0.0000    0.0000   -0.0000
        7 O1     3py       -0.0000   -0.0000   -0.0000   -0.0000   -0.0000    0.0000   -0.0000    0.0000    0.0000   -0.0000
        8 O1     2pz        0.0000    0.0000    0.0001    0.0000   -0.0000    0.0000   -0.0000   -0.0001    0.0000   -0.0000
        9 O1     3pz        0.0000    0.0000    0.0000    0.0000   -0.0000    0.0000   -0.0002   -0.0001    0.0000   -0.0000
       10 O1     3d2-      -0.0000   -0.0000    0.0000    0.0000    0.0000    0.0000    0.0000    0.0000    0.0000   -0.0000
       11 O1     3d1-       0.0000    0.0000    0.0000    0.0000    0.0000   -0.0000    0.0000   -0.0000   -0.0000    0.0000
       12 O1     3d0       -0.0000   -0.0000   -0.0000   -0.0000    0.0000   -0.0000    0.0000    0.0000   -0.0000    0.0000
       13 O1     3d1+      -0.0000   -0.0000   -0.0000   -0.0000    0.0000    0.0000   -0.0000    0.0000   -0.0000   -0.0000
       14 O1     3d2+       0.0000    0.0000    0.0000    0.0000   -0.0000   -0.0000    0.0000   -0.0000    0.0000   -0.0000
       15 FE2    1s         1.0000   -0.0001   -0.0000   -0.0000    0.0000   -0.0000    0.0002    0.0000   -0.0000    0.0000
       16 FE2    2s         0.0001    0.9942    0.0031    0.0015    0.0000   -0.0000    0.1075    0.0000    0.0000   -0.0000
       17 FE2    3s        -0.0002   -0.1074   -0.0034    0.0035    0.0000   -0.0000    0.9942   -0.0018    0.0000   -0.0000
       18 FE2    4s        -0.0000   -0.0007   -0.0000   -0.0000    0.0000   -0.0000    0.0068    0.0006   -0.0000    0.0000
       19 FE2    5s         0.0000    0.0005    0.0000    0.0000   -0.0000    0.0000   -0.0050   -0.0004    0.0000   -0.0000
       20 FE2    2px       -0.0000    0.0000    0.0000   -0.0000    0.2499    0.9661    0.0000   -0.0000    0.0215    0.0606
       21 FE2    3px        0.0000    0.0000   -0.0000    0.0000   -0.0161   -0.0623    0.0000   -0.0000    0.3342    0.9400
       22 FE2    4px        0.0000   -0.0000   -0.0000    0.0000   -0.0001   -0.0003   -0.0000   -0.0000    0.0018    0.0051
       23 FE2    5px        0.0000   -0.0000    0.0000   -0.0000    0.0001    0.0003   -0.0000    0.0000   -0.0022   -0.0062
       24 FE2    2py        0.0000   -0.0000   -0.0000    0.0001    0.9661   -0.2499   -0.0000    0.0000    0.0606   -0.0215
       25 FE2    3py       -0.0000   -0.0000    0.0000   -0.0000   -0.0623    0.0161   -0.0000    0.0001    0.9401   -0.3342
       26 FE2    4py       -0.0000    0.0000    0.0000   -0.0000   -0.0003    0.0001    0.0000    0.0000    0.0051   -0.0018
       27 FE2    5py       -0.0000    0.0000   -0.0000    0.0000    0.0003   -0.0001    0.0000   -0.0000   -0.0062    0.0022
       28 FE2    2pz        0.0000   -0.0010   -0.0328    0.9974   -0.0001    0.0000   -0.0036    0.0638   -0.0000    0.0000
       29 FE2    3pz       -0.0000   -0.0002    0.0020   -0.0638    0.0000   -0.0000    0.0021    0.9978   -0.0001    0.0001
       30 FE2    4pz       -0.0000   -0.0000    0.0000   -0.0004    0.0000   -0.0000    0.0002    0.0082   -0.0000    0.0000
       31 FE2    5pz       -0.0000    0.0000   -0.0000    0.0003   -0.0000    0.0000   -0.0001   -0.0078    0.0000   -0.0000
       32 FE2    3d2-       0.0000   -0.0000    0.0000    0.0000    0.0000   -0.0000   -0.0000   -0.0000    0.0000   -0.0000
       33 FE2    4d2-       0.0000   -0.0000    0.0000   -0.0000    0.0000   -0.0000   -0.0000   -0.0000    0.0000   -0.0000
       34 FE2    3d1-      -0.0000    0.0000   -0.0000   -0.0000   -0.0001    0.0000    0.0000    0.0000   -0.0193    0.0069
       35 FE2    4d1-      -0.0000    0.0000   -0.0000    0.0000   -0.0000    0.0000    0.0000    0.0000   -0.0008    0.0003
       36 FE2    3d0       -0.0000   -0.0001   -0.0000   -0.0000    0.0000   -0.0000    0.0010    0.0011    0.0000   -0.0000
       37 FE2    4d0        0.0000   -0.0000   -0.0000   -0.0000    0.0000   -0.0000    0.0024    0.0000    0.0000   -0.0000
       38 FE2    3d1+       0.0000   -0.0000    0.0000    0.0000   -0.0000   -0.0001   -0.0000   -0.0000   -0.0069   -0.0193
       39 FE2    4d1+       0.0000   -0.0000    0.0000   -0.0000   -0.0000   -0.0000   -0.0000   -0.0000   -0.0003   -0.0008
       40 FE2    3d2+       0.0000   -0.0000    0.0000    0.0000    0.0000   -0.0000   -0.0000   -0.0000    0.0000   -0.0000
       41 FE2    4d2+       0.0000   -0.0000    0.0000   -0.0000    0.0000   -0.0000   -0.0000   -0.0000    0.0000   -0.0000
       42 FE2    4f3-       0.0000   -0.0000   -0.0000   -0.0000   -0.0000   -0.0000   -0.0000    0.0000    0.0000    0.0000
       43 FE2    4f2-       0.0000   -0.0000    0.0000   -0.0000   -0.0000    0.0000    0.0000    0.0000   -0.0000    0.0000
       44 FE2    4f1-      -0.0000    0.0000   -0.0000    0.0000    0.0001   -0.0000    0.0000   -0.0000    0.0023   -0.0008
       45 FE2    4f0        0.0000    0.0000   -0.0000    0.0002   -0.0000    0.0000    0.0000   -0.0115   -0.0000    0.0000
       46 FE2    4f1+       0.0000   -0.0000    0.0000   -0.0000    0.0000    0.0001   -0.0000    0.0000    0.0008    0.0023
       47 FE2    4f2+       0.0000   -0.0000    0.0000   -0.0000   -0.0000   -0.0000   -0.0000    0.0000   -0.0000    0.0000
       48 FE2    4f3+       0.0000   -0.0000   -0.0000   -0.0000    0.0000   -0.0000   -0.0000    0.0000    0.0000   -0.0000
 
          Orbital           11        12        13        14        15        16        17        18        19        20    
          Energy           -0.7387   -0.7387   -1.9130   -0.6349   -0.9180   -0.9182   -0.3951   -0.3951   -0.6349    1.4406
          Occ. No.          1.9989    1.9989    1.9940    1.0000    1.0000    1.0000    1.0000    1.0000    1.0000    0.0060
 
        1 O1     1s         0.0000   -0.0000    0.0301   -0.0000   -0.0000    0.0000   -0.0000   -0.0000   -0.0000    0.0001
        2 O1     2s         0.0000   -0.0000    0.9978    0.0032   -0.0000    0.0000   -0.0000   -0.0000   -0.0036    0.0111
        3 O1     3s        -0.0000    0.0000   -0.0591   -0.0020   -0.0000    0.0000    0.0000   -0.0000    0.0018    0.2234
        4 O1     2px        0.0000    0.0000    0.0000   -0.0039    0.1713   -0.9748    0.0000   -0.0000   -0.0040   -0.0000
        5 O1     3px       -0.0001   -0.0001   -0.0000    0.0006   -0.0247    0.1408   -0.0000   -0.0000    0.0006   -0.0000
        6 O1     2py        0.0000   -0.0000   -0.0000    0.0141   -0.9746   -0.1713    0.0000   -0.0000    0.0142    0.0000
        7 O1     3py       -0.0001    0.0001    0.0000   -0.0020    0.1407    0.0247   -0.0000    0.0000   -0.0020    0.0000
        8 O1     2pz       -0.0000    0.0000   -0.0051    0.7016   -0.0001    0.0000   -0.0000    0.0000   -0.7010    0.0003
        9 O1     3pz       -0.0000    0.0000   -0.0007   -0.0900    0.0000   -0.0000   -0.0000    0.0000    0.0912   -0.0093
       10 O1     3d2-       0.0000    0.0000   -0.0000   -0.0000    0.0000   -0.0000   -0.0000   -0.0000   -0.0000   -0.0000
       11 O1     3d1-      -0.0000    0.0000   -0.0000   -0.0000    0.0015    0.0003    0.0000   -0.0000   -0.0000   -0.0002
       12 O1     3d0       -0.0000    0.0000    0.0022   -0.0007    0.0000   -0.0000    0.0000   -0.0000    0.0007    0.9747
       13 O1     3d1+      -0.0000   -0.0000    0.0000    0.0000   -0.0003    0.0015   -0.0000    0.0000    0.0000    0.0000
       14 O1     3d2+      -0.0000    0.0000   -0.0000   -0.0000    0.0000    0.0000    0.0000   -0.0000   -0.0000   -0.0000
       15 FE2    1s         0.0000   -0.0000   -0.0000   -0.0000   -0.0000    0.0000   -0.0000   -0.0000    0.0000   -0.0000
       16 FE2    2s        -0.0000    0.0000    0.0000   -0.0000   -0.0000    0.0000   -0.0000   -0.0000   -0.0000   -0.0000
       17 FE2    3s        -0.0000    0.0000   -0.0001   -0.0007   -0.0000    0.0000   -0.0000   -0.0000   -0.0006   -0.0000
       18 FE2    4s        -0.0000    0.0000   -0.0001   -0.0108   -0.0003    0.0000   -0.0000   -0.0000   -0.0095   -0.0014
       19 FE2    5s         0.0000   -0.0000   -0.0004    0.0046    0.0002   -0.0000    0.0000    0.0000    0.0062   -0.0033
       20 FE2    2px        0.0012    0.0008    0.0000   -0.0000    0.0000   -0.0000   -0.0000   -0.0000   -0.0000    0.0000
       21 FE2    3px        0.0174    0.0107    0.0000    0.0000    0.0000   -0.0000   -0.0000   -0.0000    0.0000   -0.0000
       22 FE2    4px        0.0092    0.0057    0.0000   -0.0000    0.0000   -0.0003    0.0000    0.0000   -0.0000    0.0000
       23 FE2    5px        0.0004    0.0002   -0.0000   -0.0000    0.0000   -0.0001    0.0000    0.0000   -0.0000    0.0000
       24 FE2    2py        0.0008   -0.0012   -0.0000    0.0000   -0.0000   -0.0000   -0.0000    0.0000    0.0000   -0.0000
       25 FE2    3py        0.0107   -0.0174   -0.0000   -0.0000   -0.0000   -0.0000   -0.0000    0.0000   -0.0000    0.0000
       26 FE2    4py        0.0057   -0.0092   -0.0000    0.0000   -0.0003   -0.0000    0.0000   -0.0000    0.0000   -0.0000
       27 FE2    5py        0.0002   -0.0004    0.0000    0.0000   -0.0001   -0.0000    0.0000   -0.0000    0.0000   -0.0000
       28 FE2    2pz       -0.0000    0.0000    0.0000   -0.0000   -0.0000    0.0000    0.0000   -0.0000   -0.0000   -0.0000
       29 FE2    3pz       -0.0000    0.0000   -0.0001   -0.0009   -0.0000    0.0000    0.0000   -0.0000   -0.0008    0.0000
       30 FE2    4pz       -0.0000    0.0000   -0.0002    0.0057    0.0002   -0.0000   -0.0000    0.0000    0.0071   -0.0018
       31 FE2    5pz       -0.0000    0.0000   -0.0001   -0.0000    0.0000   -0.0000    0.0000    0.0000    0.0005   -0.0010
       32 FE2    3d2-       0.0001    0.0001    0.0000    0.0000   -0.0000    0.0000   -0.2548   -0.9670    0.0000   -0.0000
       33 FE2    4d2-       0.0000    0.0000    0.0000   -0.0000   -0.0000    0.0000   -0.0008   -0.0031   -0.0000    0.0000
       34 FE2    3d1-       0.5228   -0.8507   -0.0000    0.0001    0.0000    0.0000    0.0001   -0.0001    0.0001    0.0000
       35 FE2    4d1-       0.0261   -0.0425   -0.0000    0.0000   -0.0001   -0.0000   -0.0000   -0.0000    0.0000   -0.0000
       36 FE2    3d0       -0.0000    0.0002   -0.0000    0.7066    0.0208   -0.0021   -0.0000    0.0000    0.7069   -0.0005
       37 FE2    4d0       -0.0000    0.0000   -0.0001    0.0106    0.0003   -0.0000    0.0000    0.0000    0.0111   -0.0007
       38 FE2    3d1+       0.8507    0.5228    0.0000   -0.0000   -0.0000    0.0000    0.0000    0.0001   -0.0000   -0.0000
       39 FE2    4d1+       0.0425    0.0261    0.0000   -0.0000    0.0000   -0.0001   -0.0000    0.0000   -0.0000    0.0000
       40 FE2    3d2+      -0.0000    0.0001    0.0000   -0.0000    0.0000    0.0000    0.9670   -0.2548   -0.0000   -0.0000
       41 FE2    4d2+      -0.0000    0.0000    0.0000   -0.0000   -0.0000    0.0000    0.0031   -0.0008   -0.0000    0.0000
       42 FE2    4f3-       0.0000    0.0000   -0.0000   -0.0000   -0.0000    0.0000    0.0000    0.0000   -0.0000   -0.0000
       43 FE2    4f2-       0.0000    0.0000   -0.0000    0.0000    0.0000   -0.0000   -0.0001   -0.0005    0.0000   -0.0000
       44 FE2    4f1-       0.0004   -0.0007    0.0000    0.0000   -0.0000   -0.0000    0.0000   -0.0000    0.0000    0.0000
       45 FE2    4f0       -0.0000    0.0000    0.0000    0.0005    0.0000   -0.0000   -0.0000    0.0000    0.0005    0.0000
       46 FE2    4f1+       0.0007    0.0004   -0.0000   -0.0000    0.0000   -0.0000    0.0000    0.0000   -0.0000   -0.0000
       47 FE2    4f2+      -0.0000    0.0000   -0.0000   -0.0000    0.0000    0.0000    0.0005   -0.0001   -0.0000   -0.0000
       48 FE2    4f3+      -0.0000   -0.0000   -0.0000   -0.0000   -0.0000    0.0000   -0.0000    0.0000   -0.0000   -0.0000
 
          Orbital           21        22        23        24        25        26        27        28        29        30    
          Energy            0.7045    0.7045    3.5277    3.5277    3.4822    0.5493    2.0037    2.0037    2.0410    0.4403
          Occ. No.          0.0011    0.0011    0.0002    0.0002    0.0002    0.0000    0.0000    0.0000    0.0000    0.0000
 
        1 O1     1s         0.0000   -0.0000   -0.0000    0.0000   -0.0001    0.0004    0.0000   -0.0000   -0.0007   -0.0005
        2 O1     2s         0.0000   -0.0000   -0.0000    0.0000   -0.0009    0.0052    0.0000   -0.0000   -0.0099   -0.0593
        3 O1     3s        -0.0000    0.0000   -0.0000    0.0000   -0.0013    0.0104    0.0000   -0.0000   -0.0328   -0.9695
        4 O1     2px       -0.0000    0.0001    0.0000    0.0001    0.0000   -0.0000   -0.0004   -0.0019    0.0000   -0.0000
        5 O1     3px       -0.0005    0.0021    0.0001    0.0003    0.0000   -0.0000   -0.0019   -0.0092    0.0000   -0.0000
        6 O1     2py        0.0001    0.0000    0.0001   -0.0000   -0.0000    0.0000   -0.0019    0.0004   -0.0000    0.0000
        7 O1     3py        0.0021    0.0005    0.0003   -0.0001   -0.0000    0.0000   -0.0092    0.0019   -0.0000    0.0000
        8 O1     2pz       -0.0000    0.0000    0.0000   -0.0000    0.0006   -0.0079   -0.0000    0.0000    0.0114   -0.0077
        9 O1     3pz        0.0000   -0.0000   -0.0000    0.0000    0.0016   -0.0296   -0.0000    0.0000    0.0495   -0.0502
       10 O1     3d2-      -0.0000    0.0000    0.0000    0.0000    0.0000   -0.0000   -0.0000    0.0000   -0.0000   -0.0000
       11 O1     3d1-      -0.0001   -0.0000   -0.0000    0.0000    0.0000   -0.0000    0.0008   -0.0002   -0.0000   -0.0000
       12 O1     3d0        0.0000   -0.0000   -0.0000    0.0000   -0.0005    0.0031    0.0000   -0.0000    0.0006    0.2212
       13 O1     3d1+       0.0000   -0.0001   -0.0000   -0.0000   -0.0000    0.0000    0.0002    0.0008    0.0000    0.0000
       14 O1     3d2+      -0.0000   -0.0000   -0.0000   -0.0000    0.0000   -0.0000   -0.0000    0.0000   -0.0000   -0.0000
       15 FE2    1s        -0.0000    0.0000    0.0000   -0.0000    0.0000    0.0000   -0.0000    0.0000    0.0000   -0.0000
       16 FE2    2s        -0.0000    0.0000   -0.0000    0.0000   -0.0000    0.0002    0.0000   -0.0000    0.0000   -0.0000
       17 FE2    3s         0.0000   -0.0000   -0.0000    0.0000    0.0000   -0.0019   -0.0000    0.0000    0.0002    0.0003
       18 FE2    4s        -0.0001    0.0000    0.0000   -0.0000   -0.0031    0.3372   -0.0000    0.0000   -0.0010    0.0180
       19 FE2    5s         0.0000   -0.0000   -0.0000    0.0000    0.0011   -0.3343   -0.0000    0.0000    0.0135    0.0921
       20 FE2    2px       -0.0000    0.0000   -0.0001   -0.0003   -0.0000    0.0000    0.0000    0.0000   -0.0000   -0.0000
       21 FE2    3px        0.0002   -0.0008   -0.0016   -0.0046   -0.0000    0.0000    0.0014    0.0067   -0.0000    0.0000
       22 FE2    4px       -0.0269    0.1108    0.0674    0.1999    0.0000   -0.0000   -0.0429   -0.2071    0.0000   -0.0000
       23 FE2    5px       -0.0018    0.0075   -0.0680   -0.2015   -0.0000   -0.0000    0.1911    0.9232   -0.0000    0.0000
       24 FE2    2py        0.0000    0.0000   -0.0003    0.0001    0.0000   -0.0000    0.0000   -0.0000    0.0000    0.0000
       25 FE2    3py       -0.0008   -0.0002   -0.0046    0.0016    0.0000   -0.0000    0.0067   -0.0014    0.0000   -0.0000
       26 FE2    4py        0.1108    0.0269    0.1999   -0.0674   -0.0000    0.0000   -0.2071    0.0429   -0.0000    0.0000
       27 FE2    5py        0.0075    0.0018   -0.2015    0.0680    0.0000    0.0000    0.9232   -0.1911    0.0001   -0.0000
       28 FE2    2pz        0.0000   -0.0000    0.0000   -0.0000    0.0006   -0.0000    0.0000   -0.0000    0.0000    0.0000
       29 FE2    3pz        0.0000   -0.0000    0.0000   -0.0000    0.0145   -0.0000   -0.0000    0.0000    0.0056   -0.0002
       30 FE2    4pz       -0.0000    0.0000   -0.0000    0.0000   -0.2458   -0.0265    0.0000   -0.0000   -0.0991    0.0359
       31 FE2    5pz       -0.0000    0.0000    0.0000   -0.0000    0.2107   -0.0014   -0.0001    0.0000    0.9669   -0.0076
       32 FE2    3d2-       0.0000   -0.0000    0.0000   -0.0000   -0.0000    0.0000    0.0000   -0.0000   -0.0000   -0.0000
       33 FE2    4d2-      -0.0001    0.0001    0.0000   -0.0000    0.0000    0.0000   -0.0000    0.0000    0.0000    0.0000
       34 FE2    3d1-      -0.0494   -0.0120   -0.0011    0.0004    0.0000    0.0000    0.0008   -0.0002    0.0000    0.0000
       35 FE2    4d1-       0.9641    0.2340   -0.0313    0.0106   -0.0000   -0.0001    0.0139   -0.0029   -0.0000   -0.0000
       36 FE2    3d0        0.0000   -0.0000    0.0000   -0.0000    0.0012    0.0209   -0.0000    0.0000    0.0010    0.0002
       37 FE2    4d0       -0.0002    0.0000    0.0000   -0.0000    0.0169   -0.8805   -0.0000    0.0000   -0.0038   -0.0247
       38 FE2    3d1+       0.0120   -0.0494   -0.0004   -0.0011   -0.0000   -0.0000    0.0002    0.0008   -0.0000   -0.0000
       39 FE2    4d1+      -0.2340    0.9641   -0.0106   -0.0313    0.0000    0.0000    0.0029    0.0139    0.0000    0.0000
       40 FE2    3d2+       0.0000    0.0000   -0.0000   -0.0000   -0.0000   -0.0000    0.0000   -0.0000   -0.0000   -0.0000
       41 FE2    4d2+      -0.0001   -0.0000    0.0000   -0.0000    0.0000    0.0000   -0.0000    0.0000    0.0000    0.0000
       42 FE2    4f3-      -0.0000   -0.0000   -0.0000   -0.0000   -0.0000   -0.0000   -0.0000   -0.0000    0.0000   -0.0000
       43 FE2    4f2-      -0.0000    0.0000   -0.0000    0.0002   -0.0000    0.0000   -0.0000    0.0000    0.0000   -0.0000
       44 FE2    4f1-       0.0105    0.0025    0.9035   -0.3047    0.0002   -0.0000    0.2522   -0.0522   -0.0001    0.0000
       45 FE2    4f0       -0.0000    0.0000   -0.0002    0.0001    0.9459    0.0105   -0.0000    0.0000   -0.2410    0.0120
       46 FE2    4f1+      -0.0025    0.0105    0.3047    0.9035   -0.0000    0.0000    0.0522    0.2522    0.0000   -0.0000
       47 FE2    4f2+      -0.0000   -0.0000   -0.0001    0.0000   -0.0000    0.0000   -0.0000    0.0000    0.0000   -0.0000
       48 FE2    4f3+       0.0000   -0.0000    0.0000   -0.0000   -0.0000   -0.0000    0.0000   -0.0000    0.0000   -0.0000
 
          Orbital           31        32        33        34        35        36        37        38        39        40    
          Energy            0.0717   -0.2293   -0.0095   -0.0095    0.0458    0.0978    0.1016    0.1016    0.7392    0.7399
          Occ. No.          0.0000    0.0000    0.0000    0.0000    0.0000    0.0000    0.0000    0.0000    0.0000    0.0000
 
        1 O1     1s        -0.0006    0.0009   -0.0000   -0.0000    0.0002    0.0003   -0.0000    0.0000   -0.0000   -0.0000
        2 O1     2s        -0.0039    0.0081   -0.0000   -0.0000    0.0007    0.0042   -0.0000    0.0000   -0.0000   -0.0000
        3 O1     3s         0.0461   -0.0447    0.0000    0.0000   -0.0500    0.0299   -0.0000    0.0000    0.0000   -0.0000
        4 O1     2px       -0.0000    0.0000    0.0001   -0.0005    0.0000   -0.0000    0.1377    0.0383   -0.0001   -0.0001
        5 O1     3px        0.0000    0.0000    0.0023   -0.0071    0.0000   -0.0001    0.9536    0.2651   -0.0005   -0.0004
        6 O1     2py        0.0000   -0.0000   -0.0004   -0.0002   -0.0000    0.0000    0.0383   -0.1377   -0.0002   -0.0000
        7 O1     3py       -0.0000   -0.0000   -0.0069   -0.0024   -0.0000    0.0002    0.2651   -0.9536   -0.0016   -0.0003
        8 O1     2pz        0.0118   -0.0125    0.0000   -0.0000    0.0784   -0.1023    0.0000   -0.0000   -0.0000    0.0000
        9 O1     3pz        0.0544   -0.0283    0.0000   -0.0000    0.6254   -0.7736    0.0000   -0.0002   -0.0000    0.0000
       10 O1     3d2-       0.0000   -0.0000    0.0000    0.0000   -0.0000   -0.0000    0.0011    0.0026    0.0002    0.0271
       11 O1     3d1-       0.0000   -0.0000    0.0001    0.0000    0.0000    0.0001    0.0000    0.0023   -0.0031   -0.0031
       12 O1     3d0       -0.0150    0.0200   -0.0000   -0.0000    0.0198   -0.0105    0.0000   -0.0000    0.0000    0.0000
       13 O1     3d1+      -0.0000    0.0000   -0.0000    0.0001   -0.0000   -0.0000   -0.0017   -0.0008   -0.0141   -0.0179
       14 O1     3d2+       0.0000    0.0000   -0.0000   -0.0000    0.0000    0.0000   -0.0007   -0.0012    0.0006   -0.0123
       15 FE2    1s         0.0000    0.0000    0.0000   -0.0000    0.0000   -0.0000    0.0000   -0.0000   -0.0000    0.0000
       16 FE2    2s         0.0001   -0.0000    0.0000   -0.0000    0.0001   -0.0001    0.0000   -0.0000   -0.0000    0.0000
       17 FE2    3s         0.0083    0.0023   -0.0000   -0.0000    0.0002   -0.0008    0.0000   -0.0000   -0.0000   -0.0000
       18 FE2    4s        -0.5363   -0.7677    0.0000   -0.0000    0.1014    0.0090    0.0000    0.0000    0.0000    0.0000
       19 FE2    5s         0.6987   -0.6313    0.0000   -0.0000    0.0501    0.0054    0.0000    0.0000    0.0000    0.0000
       20 FE2    2px        0.0000    0.0000    0.0000   -0.0000    0.0000    0.0000   -0.0000   -0.0000    0.0000    0.0000
       21 FE2    3px       -0.0000   -0.0000   -0.0010    0.0031   -0.0000   -0.0000   -0.0000   -0.0000    0.0000    0.0000
       22 FE2    4px        0.0000    0.0000    0.2961   -0.8999    0.0000    0.0000   -0.0172   -0.0047   -0.0000    0.0000
       23 FE2    5px        0.0000    0.0000    0.0803   -0.2441    0.0000    0.0000   -0.0047   -0.0013   -0.0000    0.0000
       24 FE2    2py       -0.0000   -0.0000   -0.0000   -0.0000   -0.0000   -0.0000   -0.0000    0.0000    0.0000    0.0000
       25 FE2    3py        0.0000    0.0000    0.0031    0.0010    0.0000    0.0000   -0.0000    0.0000    0.0000    0.0000
       26 FE2    4py       -0.0000   -0.0001   -0.8999   -0.2961   -0.0001   -0.0001   -0.0048    0.0171    0.0000    0.0000
       27 FE2    5py       -0.0000   -0.0000   -0.2441   -0.0803   -0.0000   -0.0000   -0.0013    0.0047    0.0000    0.0000
       28 FE2    2pz       -0.0000   -0.0000    0.0000   -0.0000   -0.0000   -0.0001    0.0000   -0.0000   -0.0000   -0.0000
       29 FE2    3pz        0.0008    0.0006   -0.0000   -0.0000    0.0036    0.0021   -0.0000    0.0000   -0.0000    0.0000
       30 FE2    4pz       -0.0338   -0.0903    0.0002    0.0000   -0.7107   -0.6448    0.0000   -0.0001   -0.0000   -0.0000
       31 FE2    5pz       -0.0130   -0.0135    0.0000    0.0000   -0.1154   -0.1044    0.0000   -0.0000   -0.0000   -0.0000
       32 FE2    3d2-      -0.0000   -0.0000    0.0000   -0.0000   -0.0000   -0.0000   -0.0000    0.0000   -0.0031    0.0009
       33 FE2    4d2-       0.0000    0.0000   -0.0000   -0.0000    0.0000    0.0000    0.0008   -0.0013    0.9609   -0.2767
       34 FE2    3d1-       0.0000    0.0000    0.0045    0.0015    0.0000    0.0000   -0.0002    0.0007    0.0000    0.0000
       35 FE2    4d1-      -0.0001   -0.0001    0.1040    0.0342    0.0000   -0.0000   -0.0024    0.0086    0.0001    0.0001
       36 FE2    3d0       -0.0053   -0.0047   -0.0000   -0.0000    0.0097    0.0024   -0.0000    0.0000   -0.0000   -0.0000
       37 FE2    4d0       -0.4679   -0.0559   -0.0000   -0.0000    0.0488    0.0053    0.0000    0.0000   -0.0000   -0.0000
       38 FE2    3d1+      -0.0000   -0.0000   -0.0015    0.0045   -0.0000   -0.0000   -0.0007   -0.0002    0.0000   -0.0000
       39 FE2    4d1+       0.0000    0.0000   -0.0342    0.1040   -0.0000   -0.0000   -0.0086   -0.0024   -0.0001    0.0000
       40 FE2    3d2+      -0.0000   -0.0000    0.0000    0.0000    0.0000   -0.0000   -0.0000    0.0000   -0.0009   -0.0031
       41 FE2    4d2+       0.0000    0.0000   -0.0000    0.0000   -0.0000    0.0000    0.0006   -0.0006    0.2766    0.9603
       42 FE2    4f3-       0.0000    0.0000   -0.0000   -0.0000    0.0000   -0.0001   -0.0004   -0.0014   -0.0000   -0.0000
       43 FE2    4f2-      -0.0000   -0.0000    0.0000    0.0000    0.0000   -0.0000    0.0000   -0.0000    0.0004   -0.0001
       44 FE2    4f1-       0.0000    0.0000    0.1483    0.0488   -0.0000   -0.0000    0.0008   -0.0027   -0.0000   -0.0000
[...]
ATVX     1  Mu1.0009  Se1.027                       0.20153602      0.00000001     -0.00000009     -0.00000000
ATVX     1  Mu1.0010  Se1.027                       0.20153994      0.00000001     -0.00000008     -0.00000000
ATVX     1  Mu1.0011  Se1.027                       0.20376527      0.00000050     -0.00000667     -0.00000000
ATVX     1  Mu1.0012  Se1.027                       0.20376978     -0.00000090      0.00001192     -0.00000000
ATVX     1  Mu1.0013  Se1.027                       0.24797202      0.00000000     -0.00000000     -0.00000000
ATVX     1  Mu1.0014  Se1.027                       0.24797203     -0.00000000     -0.00000000      0.00000000
ATVX     1  Mu1.0015  Se1.027                       0.27251529      0.00000000     -0.00000000     -0.00000000
ATVX     1  Mu1.0016  Se1.027                       0.27251530      0.00000000     -0.00000000     -0.00000000
ATVX     1  Mu1.0017  Se1.027                       0.27334694      0.00000010     -0.00000018     -0.00000000
ATVX     1  Mu1.0018  Se1.027                       0.27336569      0.00000001     -0.00000002     -0.00000000
ATVX     1  Mu1.0019  Se1.027                       0.27658871     -0.00000018      0.00000068     -0.00000000
ATVX     1  Mu1.0020  Se1.027                       0.27659412      0.00000008     -0.00000030     -0.00000000
ATVX     1  Mu1.0021  Se1.027                       0.28122883     -0.00000000      0.00000000     -0.00000000
ATVX     1  Mu1.0022  Se1.027                       0.28123737      0.00000000      0.00000000      0.00000000
ATVX     1  Mu1.0023  Se1.027                       0.28388617     -0.00000000     -0.00000000      0.00000000
ATVX     1  Mu1.0024  Se1.027                       0.28388631      0.00000000     -0.00000000     -0.00000000
ATVX     1  Mu1.0025  Se1.027                       0.28568713     -0.00000000      0.00000000     -0.00000000
ATVX     1  Mu1.0026  Se1.027                       0.28569105      0.00000000     -0.00000000     -0.00000000
ATVX     1  Mu1.0001  Se1.028                      -0.18776685     -0.00000000     -0.00000000      0.00000000
ATVX     1  Mu1.0002  Se1.028                      -0.17941613      0.00000000      0.00000000      0.00000000
ATVX     1  Mu1.0003  Se1.028                      -0.17941227     -0.00000007     -0.00000026      0.00000000
ATVX     1  Mu1.0004  Se1.028                      -0.13649352      0.00000000     -0.00000000     -0.00000000
ATVX     1  Mu1.0005  Se1.028                      -0.00342245     -0.00000089      0.00009625     -0.00000000
ATVX     1  Mu1.0006  Se1.028                      -0.00342243      0.00000304     -0.00032908     -0.00000000
ATVX     1  Mu1.0007  Se1.028                       0.20328419     -0.00000018      0.00000375     -0.00000000
ATVX     1  Mu1.0008  Se1.028                       0.20328420      0.00000006     -0.00000130     -0.00000000
ATVX     1  Mu1.0009  Se1.028                       0.20892612      0.00000000     -0.00000000     -0.00000000
ATVX     1  Mu1.0010  Se1.028                       0.20893004     -0.00000000      0.00000000     -0.00000000
ATVX     1  Mu1.0011  Se1.028                       0.21115537      0.00000000     -0.00000000     -0.00000000
ATVX     1  Mu1.0012  Se1.028                       0.21115988     -0.00000000      0.00000000     -0.00000000
ATVX     1  Mu1.0013  Se1.028                       0.25536212      0.00000000     -0.00000001     -0.00000000
ATVX     1  Mu1.0014  Se1.028                       0.25536213      0.00000002     -0.00000012     -0.00000000
ATVX     1  Mu1.0015  Se1.028                       0.27990540      0.00000031     -0.00000105     -0.00000000
ATVX     1  Mu1.0016  Se1.028                       0.27990540      0.00000004     -0.00000015     -0.00000000
ATVX     1  Mu1.0017  Se1.028                       0.28073704      0.00000000     -0.00000000     -0.00000000
ATVX     1  Mu1.0018  Se1.028                       0.28075579      0.00000000     -0.00000000     -0.00000000
ATVX     1  Mu1.0019  Se1.028                       0.28397881     -0.00000000      0.00000000     -0.00000000
ATVX     1  Mu1.0020  Se1.028                       0.28398422      0.00000000      0.00000000      0.00000000
ATVX     1  Mu1.0021  Se1.028                       0.28861893     -0.00000014      0.00000038     -0.00000000
ATVX     1  Mu1.0022  Se1.028                       0.28862747      0.00000001     -0.00000005     -0.00000000
ATVX     1  Mu1.0023  Se1.028                       0.29127627     -0.00000001      0.00000003     -0.00000000
ATVX     1  Mu1.0024  Se1.028                       0.29127642     -0.00000100      0.00000437     -0.00000000
ATVX     1  Mu1.0025  Se1.028                       0.29307723     -0.00000000      0.00000000     -0.00000000
ATVX     1  Mu1.0026  Se1.028                       0.29308115     -0.00000000     -0.00000000      0.00000000
ATVX     1  Mu1.0001  Se1.029                      -0.18776602     -0.00000000     -0.00000000      0.00000000
ATVX     1  Mu1.0002  Se1.029                      -0.17941529     -0.00000007     -0.00000026      0.00000000
ATVX     1  Mu1.0003  Se1.029                      -0.17941143     -0.00000000     -0.00000000      0.00000000
ATVX     1  Mu1.0004  Se1.029                      -0.13649269      0.00000000     -0.00000000     -0.00000000
ATVX     1  Mu1.0005  Se1.029                      -0.00342161      0.00000304     -0.00032910     -0.00000000
ATVX     1  Mu1.0006  Se1.029                      -0.00342159      0.00000089     -0.00009626     -0.00000000
ATVX     1  Mu1.0007  Se1.029                       0.20328503     -0.00000006      0.00000130     -0.00000000
ATVX     1  Mu1.0008  Se1.029                       0.20328503     -0.00000018      0.00000375     -0.00000000
ATVX     1  Mu1.0009  Se1.029                       0.20892696      0.00000000      0.00000000      0.00000000
ATVX     1  Mu1.0010  Se1.029                       0.20893088     -0.00000000      0.00000000     -0.00000000
ATVX     1  Mu1.0011  Se1.029                       0.21115621      0.00000000     -0.00000000     -0.00000000
ATVX     1  Mu1.0012  Se1.029                       0.21116072     -0.00000000      0.00000000     -0.00000000
ATVX     1  Mu1.0013  Se1.029                       0.25536296      0.00000002     -0.00000012     -0.00000000
ATVX     1  Mu1.0014  Se1.029                       0.25536297     -0.00000000      0.00000001     -0.00000000
ATVX     1  Mu1.0015  Se1.029                       0.27990623      0.00000004     -0.00000015     -0.00000000
ATVX     1  Mu1.0016  Se1.029                       0.27990624     -0.00000031      0.00000105     -0.00000000
ATVX     1  Mu1.0017  Se1.029                       0.28073788      0.00000000     -0.00000000     -0.00000000
ATVX     1  Mu1.0018  Se1.029                       0.28075663      0.00000000     -0.00000000     -0.00000000
ATVX     1  Mu1.0019  Se1.029                       0.28397965     -0.00000000      0.00000000     -0.00000000
ATVX     1  Mu1.0020  Se1.029                       0.28398506      0.00000000     -0.00000000     -0.00000000
ATVX     1  Mu1.0021  Se1.029                       0.28861977      0.00000001     -0.00000005     -0.00000000
ATVX     1  Mu1.0022  Se1.029                       0.28862831      0.00000014     -0.00000038     -0.00000000
ATVX     1  Mu1.0023  Se1.029                       0.29127711     -0.00000100      0.00000437     -0.00000000
ATVX     1  Mu1.0024  Se1.029                       0.29127725      0.00000001     -0.00000003     -0.00000000
ATVX     1  Mu1.0025  Se1.029                       0.29307807     -0.00000000      0.00000000     -0.00000000
ATVX     1  Mu1.0026  Se1.029                       0.29308198     -0.00000000     -0.00000000      0.00000000
ATVX     1  Mu1.0001  Se1.030                      -0.02591947     -0.00000000     -0.00000000      0.00000000
ATVX     1  Mu1.0002  Se1.030                      -0.01756875      0.00000000      0.00000000      0.00000000
ATVX     1  Mu1.0003  Se1.030                      -0.01756489      0.00000000      0.00000000      0.00000000
ATVX     1  Mu1.0004  Se1.030                       0.02535386     -0.00000000      0.00000000     -0.00000000
ATVX     1  Mu1.0005  Se1.030                       0.15842493     -0.00000000      0.00000000     -0.00000000
ATVX     1  Mu1.0006  Se1.030                       0.15842495     -0.00000000      0.00000000     -0.00000000
ATVX     1  Mu1.0263  Se1.031                       2.28504982      0.09408829     -0.04273109     -0.00402050
ATVX     1  Mu1.0264  Se1.032                       2.28504983      0.09408829     -0.04273108     -0.00402049
AIVX     1  Mu1.0135  In1.011 Se1.033               3.32624946      0.10844833     -0.03302508     -0.00358151
AIVX     1  Mu1.0138  In1.011 Se1.033               3.33044940      0.07706053     -0.02614560     -0.00201479
AIVX     1  Mu1.0130  In1.008 Se1.034               6.29037974     -0.17110538      0.02720500     -0.00465492
AIVX     1  Mu1.0130  In1.009 Se1.035               6.29818000      0.17066789     -0.02709556     -0.00462434
AIVX     1  Mu1.0168  In1.009 Se1.035               6.56046225     -0.17710498      0.02699580     -0.00478109
AIVX     1  Mu1.0130  In1.010 Se1.036               6.29818141      0.17066798     -0.02709557     -0.00462435
AIVX     1  Mu1.0168  In1.010 Se1.036               6.56046367     -0.17710828      0.02699630     -0.00478127
AIVX     1  Mu1.0035  In1.011 Se1.037               3.46912705     -0.12569469      0.03469109     -0.00436049
AIVX     1  Mu1.0051  In1.011 Se1.038               3.71911689      0.14673748     -0.03786549     -0.00555629
AIVX     1  Mu1.0041  In1.011 Se1.041               3.52031726      0.10176489     -0.02763063     -0.00281183
BVATM    1  Mu1.0001  Se1.027 Se1.026               0.20284679     -0.00000000     -0.00000000      0.00000000
BVATM    1  Mu1.0001  Se1.028 Se1.026               0.21023690     -0.00000000     -0.00000000      0.00000000
BVATM    1  Mu1.0001  Se1.029 Se1.026               0.21023773      0.00000000     -0.00000000     -0.00000000
BVATM    1  Mu1.0001  Se1.032 Se1.031               1.95601249      0.07204057     -0.03715219     -0.00267647
BVATM    1  Mu1.0001  Se1.038 Se1.037               5.00960768      0.12959978     -0.02587025     -0.00335278
BJATP    1  Mu1.0002  In1.011 Se1.033 Se1.031       2.93982334     -0.08257598      0.02796487     -0.00230923
BJATP    1  Mu1.0001  In1.011 Se1.033 Se1.032       2.93982335     -0.08257598      0.02796487     -0.00230923
BJATM    1  Mu1.0002  In1.011 Se1.033 Se1.031       2.93982334      0.07867462     -0.02868563     -0.00225683
BJATM    1  Mu1.0001  In1.011 Se1.033 Se1.032       2.93982335      0.07867462     -0.02868563     -0.00225683
BJAIP    1  Se1.033 In1.011 Se1.033 In1.011         3.92362997      0.12247310     -0.03337278     -0.00408727
--
 
   (Skipping property calculation,
    use PROP keyword to activate)
--
 
  Total CASPT2 energies:
::    CASPT2 Root  1     Total energy:  -1345.82502848
 
  A NEW JOBIPH FILE NAMED 'JOBMIX' IS PREPARED.
********************************************************************************
forrtl: warning (528): IEEE_UNDERFLOW is signaling
--- Stop Module: caspt2 at Thu Jan 23 10:49:43 2025 /rc=_RC_ALL_IS_WELL_ ---
*** files: xmldump
    saved to directory /home/grierjones/DDCASPT2/iron_oxo_DDCASPT2/cluster/6.18
--- Module caspt2 spent 15 minutes 9 seconds ---

>>> EXPORT i = B

>>> EXPORT j = P

>>> IF (-FILE GMJ_e2_${i}_${j}.csv)

>>> COPY /tmp/6.18/GMJ_RHS_B_P.csv /home/grierjones/DDCASPT2/iron_oxo_DDCASPT2/cluster/6.18/GMJ_RHS_B_P.csv

>>> COPY /tmp/6.18/GMJ_IVECW_B_P.csv /home/grierjones/DDCASPT2/iron_oxo_DDCASPT2/cluster/6.18/GMJ_IVECW_B_P.csv

>>> COPY /tmp/6.18/GMJ_IVECX_B_P.csv /home/grierjones/DDCASPT2/iron_oxo_DDCASPT2/cluster/6.18/GMJ_IVECX_B_P.csv

>>> COPY /tmp/6.18/GMJ_IVECC2_B_P.csv /home/grierjones/DDCASPT2/iron_oxo_DDCASPT2/cluster/6.18/GMJ_IVECC2_B_P.csv

>>> COPY /tmp/6.18/GMJ_e2_B_P.csv /home/grierjones/DDCASPT2/iron_oxo_DDCASPT2/cluster/6.18/GMJ_e2_B_P.csv

>>> END FOREACH

>>> EXPORT j = M

>>> IF (-FILE GMJ_e2_${i}_${j}.csv)

>>> COPY /tmp/6.18/GMJ_RHS_B_M.csv /home/grierjones/DDCASPT2/iron_oxo_DDCASPT2/cluster/6.18/GMJ_RHS_B_M.csv

>>> COPY /tmp/6.18/GMJ_IVECW_B_M.csv /home/grierjones/DDCASPT2/iron_oxo_DDCASPT2/cluster/6.18/GMJ_IVECW_B_M.csv

>>> COPY /tmp/6.18/GMJ_IVECX_B_M.csv /home/grierjones/DDCASPT2/iron_oxo_DDCASPT2/cluster/6.18/GMJ_IVECX_B_M.csv

>>> COPY /tmp/6.18/GMJ_IVECC2_B_M.csv /home/grierjones/DDCASPT2/iron_oxo_DDCASPT2/cluster/6.18/GMJ_IVECC2_B_M.csv

>>> COPY /tmp/6.18/GMJ_e2_B_M.csv /home/grierjones/DDCASPT2/iron_oxo_DDCASPT2/cluster/6.18/GMJ_e2_B_M.csv

>>> END FOREACH

>>> END FOREACH

>>> EXPORT i = E

>>> EXPORT j = P

>>> IF (-FILE GMJ_e2_${i}_${j}.csv)

>>> COPY /tmp/6.18/GMJ_RHS_E_P.csv /home/grierjones/DDCASPT2/iron_oxo_DDCASPT2/cluster/6.18/GMJ_RHS_E_P.csv

>>> COPY /tmp/6.18/GMJ_IVECW_E_P.csv /home/grierjones/DDCASPT2/iron_oxo_DDCASPT2/cluster/6.18/GMJ_IVECW_E_P.csv

>>> COPY /tmp/6.18/GMJ_IVECX_E_P.csv /home/grierjones/DDCASPT2/iron_oxo_DDCASPT2/cluster/6.18/GMJ_IVECX_E_P.csv

>>> COPY /tmp/6.18/GMJ_IVECC2_E_P.csv /home/grierjones/DDCASPT2/iron_oxo_DDCASPT2/cluster/6.18/GMJ_IVECC2_E_P.csv

>>> COPY /tmp/6.18/GMJ_e2_E_P.csv /home/grierjones/DDCASPT2/iron_oxo_DDCASPT2/cluster/6.18/GMJ_e2_E_P.csv

>>> END FOREACH

>>> EXPORT j = M

>>> IF (-FILE GMJ_e2_${i}_${j}.csv)

>>> COPY /tmp/6.18/GMJ_RHS_E_M.csv /home/grierjones/DDCASPT2/iron_oxo_DDCASPT2/cluster/6.18/GMJ_RHS_E_M.csv

>>> COPY /tmp/6.18/GMJ_IVECW_E_M.csv /home/grierjones/DDCASPT2/iron_oxo_DDCASPT2/cluster/6.18/GMJ_IVECW_E_M.csv

>>> COPY /tmp/6.18/GMJ_IVECX_E_M.csv /home/grierjones/DDCASPT2/iron_oxo_DDCASPT2/cluster/6.18/GMJ_IVECX_E_M.csv

>>> COPY /tmp/6.18/GMJ_IVECC2_E_M.csv /home/grierjones/DDCASPT2/iron_oxo_DDCASPT2/cluster/6.18/GMJ_IVECC2_E_M.csv

>>> COPY /tmp/6.18/GMJ_e2_E_M.csv /home/grierjones/DDCASPT2/iron_oxo_DDCASPT2/cluster/6.18/GMJ_e2_E_M.csv

>>> END FOREACH

>>> END FOREACH

>>> EXPORT i = F

>>> EXPORT j = P

>>> IF (-FILE GMJ_e2_${i}_${j}.csv)

>>> COPY /tmp/6.18/GMJ_RHS_F_P.csv /home/grierjones/DDCASPT2/iron_oxo_DDCASPT2/cluster/6.18/GMJ_RHS_F_P.csv

>>> COPY /tmp/6.18/GMJ_IVECW_F_P.csv /home/grierjones/DDCASPT2/iron_oxo_DDCASPT2/cluster/6.18/GMJ_IVECW_F_P.csv

>>> COPY /tmp/6.18/GMJ_IVECX_F_P.csv /home/grierjones/DDCASPT2/iron_oxo_DDCASPT2/cluster/6.18/GMJ_IVECX_F_P.csv

>>> COPY /tmp/6.18/GMJ_IVECC2_F_P.csv /home/grierjones/DDCASPT2/iron_oxo_DDCASPT2/cluster/6.18/GMJ_IVECC2_F_P.csv

>>> COPY /tmp/6.18/GMJ_e2_F_P.csv /home/grierjones/DDCASPT2/iron_oxo_DDCASPT2/cluster/6.18/GMJ_e2_F_P.csv

>>> END FOREACH

>>> EXPORT j = M

>>> IF (-FILE GMJ_e2_${i}_${j}.csv)

>>> COPY /tmp/6.18/GMJ_RHS_F_M.csv /home/grierjones/DDCASPT2/iron_oxo_DDCASPT2/cluster/6.18/GMJ_RHS_F_M.csv

>>> COPY /tmp/6.18/GMJ_IVECW_F_M.csv /home/grierjones/DDCASPT2/iron_oxo_DDCASPT2/cluster/6.18/GMJ_IVECW_F_M.csv

>>> COPY /tmp/6.18/GMJ_IVECX_F_M.csv /home/grierjones/DDCASPT2/iron_oxo_DDCASPT2/cluster/6.18/GMJ_IVECX_F_M.csv

>>> COPY /tmp/6.18/GMJ_IVECC2_F_M.csv /home/grierjones/DDCASPT2/iron_oxo_DDCASPT2/cluster/6.18/GMJ_IVECC2_F_M.csv

>>> COPY /tmp/6.18/GMJ_e2_F_M.csv /home/grierjones/DDCASPT2/iron_oxo_DDCASPT2/cluster/6.18/GMJ_e2_F_M.csv

>>> END FOREACH

>>> END FOREACH

>>> EXPORT i = G

>>> EXPORT j = P

>>> IF (-FILE GMJ_e2_${i}_${j}.csv)

>>> COPY /tmp/6.18/GMJ_RHS_G_P.csv /home/grierjones/DDCASPT2/iron_oxo_DDCASPT2/cluster/6.18/GMJ_RHS_G_P.csv

>>> COPY /tmp/6.18/GMJ_IVECW_G_P.csv /home/grierjones/DDCASPT2/iron_oxo_DDCASPT2/cluster/6.18/GMJ_IVECW_G_P.csv

>>> COPY /tmp/6.18/GMJ_IVECX_G_P.csv /home/grierjones/DDCASPT2/iron_oxo_DDCASPT2/cluster/6.18/GMJ_IVECX_G_P.csv

>>> COPY /tmp/6.18/GMJ_IVECC2_G_P.csv /home/grierjones/DDCASPT2/iron_oxo_DDCASPT2/cluster/6.18/GMJ_IVECC2_G_P.csv

>>> COPY /tmp/6.18/GMJ_e2_G_P.csv /home/grierjones/DDCASPT2/iron_oxo_DDCASPT2/cluster/6.18/GMJ_e2_G_P.csv

>>> END FOREACH

>>> EXPORT j = M

>>> IF (-FILE GMJ_e2_${i}_${j}.csv)

>>> COPY /tmp/6.18/GMJ_RHS_G_M.csv /home/grierjones/DDCASPT2/iron_oxo_DDCASPT2/cluster/6.18/GMJ_RHS_G_M.csv

>>> COPY /tmp/6.18/GMJ_IVECW_G_M.csv /home/grierjones/DDCASPT2/iron_oxo_DDCASPT2/cluster/6.18/GMJ_IVECW_G_M.csv

>>> COPY /tmp/6.18/GMJ_IVECX_G_M.csv /home/grierjones/DDCASPT2/iron_oxo_DDCASPT2/cluster/6.18/GMJ_IVECX_G_M.csv

>>> COPY /tmp/6.18/GMJ_IVECC2_G_M.csv /home/grierjones/DDCASPT2/iron_oxo_DDCASPT2/cluster/6.18/GMJ_IVECC2_G_M.csv

>>> COPY /tmp/6.18/GMJ_e2_G_M.csv /home/grierjones/DDCASPT2/iron_oxo_DDCASPT2/cluster/6.18/GMJ_e2_G_M.csv

>>> END FOREACH

>>> END FOREACH

>>> EXPORT i = H

>>> EXPORT j = P

>>> IF (-FILE GMJ_e2_${i}_${j}.csv)

>>> COPY /tmp/6.18/GMJ_RHS_H_P.csv /home/grierjones/DDCASPT2/iron_oxo_DDCASPT2/cluster/6.18/GMJ_RHS_H_P.csv

>>> COPY /tmp/6.18/GMJ_IVECW_H_P.csv /home/grierjones/DDCASPT2/iron_oxo_DDCASPT2/cluster/6.18/GMJ_IVECW_H_P.csv

>>> COPY /tmp/6.18/GMJ_IVECX_H_P.csv /home/grierjones/DDCASPT2/iron_oxo_DDCASPT2/cluster/6.18/GMJ_IVECX_H_P.csv

>>> COPY /tmp/6.18/GMJ_IVECC2_H_P.csv /home/grierjones/DDCASPT2/iron_oxo_DDCASPT2/cluster/6.18/GMJ_IVECC2_H_P.csv

>>> COPY /tmp/6.18/GMJ_e2_H_P.csv /home/grierjones/DDCASPT2/iron_oxo_DDCASPT2/cluster/6.18/GMJ_e2_H_P.csv

>>> END FOREACH

>>> EXPORT j = M

>>> IF (-FILE GMJ_e2_${i}_${j}.csv)

>>> COPY /tmp/6.18/GMJ_RHS_H_M.csv /home/grierjones/DDCASPT2/iron_oxo_DDCASPT2/cluster/6.18/GMJ_RHS_H_M.csv

>>> COPY /tmp/6.18/GMJ_IVECW_H_M.csv /home/grierjones/DDCASPT2/iron_oxo_DDCASPT2/cluster/6.18/GMJ_IVECW_H_M.csv

>>> COPY /tmp/6.18/GMJ_IVECX_H_M.csv /home/grierjones/DDCASPT2/iron_oxo_DDCASPT2/cluster/6.18/GMJ_IVECX_H_M.csv

>>> COPY /tmp/6.18/GMJ_IVECC2_H_M.csv /home/grierjones/DDCASPT2/iron_oxo_DDCASPT2/cluster/6.18/GMJ_IVECC2_H_M.csv

>>> COPY /tmp/6.18/GMJ_e2_H_M.csv /home/grierjones/DDCASPT2/iron_oxo_DDCASPT2/cluster/6.18/GMJ_e2_H_M.csv

>>> END FOREACH

>>> END FOREACH

>>> EXPORT i = A

>>> IF (-FILE GMJ_e2_$i.csv)

>>> COPY /tmp/6.18/GMJ_RHS_A.csv /home/grierjones/DDCASPT2/iron_oxo_DDCASPT2/cluster/6.18/GMJ_RHS_A.csv

>>> COPY /tmp/6.18/GMJ_IVECW_A.csv /home/grierjones/DDCASPT2/iron_oxo_DDCASPT2/cluster/6.18/GMJ_IVECW_A.csv

>>> COPY /tmp/6.18/GMJ_IVECX_A.csv /home/grierjones/DDCASPT2/iron_oxo_DDCASPT2/cluster/6.18/GMJ_IVECX_A.csv

>>> COPY /tmp/6.18/GMJ_IVECC2_A.csv /home/grierjones/DDCASPT2/iron_oxo_DDCASPT2/cluster/6.18/GMJ_IVECC2_A.csv

>>> COPY /tmp/6.18/GMJ_e2_A.csv /home/grierjones/DDCASPT2/iron_oxo_DDCASPT2/cluster/6.18/GMJ_e2_A.csv

>>> END FOREACH

>>> EXPORT i = C

>>> IF (-FILE GMJ_e2_$i.csv)

>>> COPY /tmp/6.18/GMJ_RHS_C.csv /home/grierjones/DDCASPT2/iron_oxo_DDCASPT2/cluster/6.18/GMJ_RHS_C.csv

>>> COPY /tmp/6.18/GMJ_IVECW_C.csv /home/grierjones/DDCASPT2/iron_oxo_DDCASPT2/cluster/6.18/GMJ_IVECW_C.csv

>>> COPY /tmp/6.18/GMJ_IVECX_C.csv /home/grierjones/DDCASPT2/iron_oxo_DDCASPT2/cluster/6.18/GMJ_IVECX_C.csv

>>> COPY /tmp/6.18/GMJ_IVECC2_C.csv /home/grierjones/DDCASPT2/iron_oxo_DDCASPT2/cluster/6.18/GMJ_IVECC2_C.csv

>>> COPY /tmp/6.18/GMJ_e2_C.csv /home/grierjones/DDCASPT2/iron_oxo_DDCASPT2/cluster/6.18/GMJ_e2_C.csv

>>> END FOREACH

>>> EXPORT i = D

>>> IF (-FILE GMJ_e2_$i.csv)

>>> COPY /tmp/6.18/GMJ_RHS_D.csv /home/grierjones/DDCASPT2/iron_oxo_DDCASPT2/cluster/6.18/GMJ_RHS_D.csv

>>> COPY /tmp/6.18/GMJ_IVECW_D.csv /home/grierjones/DDCASPT2/iron_oxo_DDCASPT2/cluster/6.18/GMJ_IVECW_D.csv

>>> COPY /tmp/6.18/GMJ_IVECX_D.csv /home/grierjones/DDCASPT2/iron_oxo_DDCASPT2/cluster/6.18/GMJ_IVECX_D.csv

>>> COPY /tmp/6.18/GMJ_IVECC2_D.csv /home/grierjones/DDCASPT2/iron_oxo_DDCASPT2/cluster/6.18/GMJ_IVECC2_D.csv

>>> COPY /tmp/6.18/GMJ_e2_D.csv /home/grierjones/DDCASPT2/iron_oxo_DDCASPT2/cluster/6.18/GMJ_e2_D.csv

>>> END FOREACH

.########################.
.# Non-zero return code #.
.########################.

    Timing: Wall=1056.83 User=1051.69 System=5.03
************************************
*** WorkDir at /tmp/6.18 cleaned ***
************************************
