[Molden Format]
[N_Atoms]
                     2
[Atoms] (AU)
BE1         1      4           0.00000000      0.00000000      0.00000000
F2          2      9           0.00000000      0.00000000      2.07869874
[Charge] (Mulliken)
  0.630165008057794     
 -0.630165008057814     
[GTO] (AU)
   1
   s  14
  2.262859900E+04  8.443999941E-05
  3.372318100E+03  4.601499968E-04
  7.603504000E+02  2.285389984E-03
  2.117404800E+02  9.648129932E-03
  6.722346800E+01  3.494469975E-02
  2.337217700E+01  1.061099893E-01
  8.721373000E+00  2.458240383E-01
  3.468091000E+00  3.862428773E-01
  1.452144000E+00  3.105526078E-01
  6.086150000E-01  6.415933955E-02
  2.576860000E-01 -2.265049984E-03
  1.041760000E-01 -5.217499963E-04
  4.242700000E-02 -8.757499938E-04
  1.484900000E-02  1.242199991E-04
   s  14
  2.262859900E+04 -1.586999994E-05
  3.372318100E+03 -8.656999968E-05
  7.603504000E+02 -4.302199984E-04
  2.117404800E+02 -1.825079993E-03
  6.722346800E+01 -6.682749976E-03
  2.337217700E+01 -2.095119992E-02
  8.721373000E+00 -5.200308981E-02
  3.468091000E+00 -9.849176964E-02
  1.452144000E+00 -1.355800695E-01
  6.086150000E-01 -6.429875976E-02
  2.576860000E-01  3.125414989E-01
  1.041760000E-01  6.270468577E-01
  4.242700000E-02  2.110231492E-01
  1.484900000E-02 -4.104669985E-03
   p   9
  3.371018400E+01  1.069960000E-03
  8.057649500E+00  6.828550001E-03
  2.836471400E+00  2.119065000E-02
  1.099965700E+00  5.843696001E-02
  4.433964000E-01  2.020920800E-01
  1.822264000E-01  4.582953101E-01
  7.572410000E-02  3.691239601E-01
  3.168540000E-02  6.611471001E-02
  1.108990000E-02  1.405160000E-03
 
   2
   s  14
  1.031094600E+05  1.713099991E-04
  1.528100700E+04  7.123999962E-04
  3.441539200E+03  2.990479984E-03
  9.670948300E+02  1.164036994E-02
  3.140353400E+02  3.968642979E-02
  1.134423000E+02  1.128546094E-01
  4.464472700E+01  2.473650687E-01
  1.894287400E+01  3.672702681E-01
  8.532743000E+00  2.896286985E-01
  3.919401000E+00  7.786681959E-02
  1.568157000E+00  4.562139976E-03
  6.232900000E-01  2.468879987E-03
  2.408610000E-01  1.106309994E-03
  8.430100000E-02  1.739699991E-04
   s  14
  1.031094600E+05 -4.044999995E-05
  1.528100700E+04 -1.682299998E-04
  3.441539200E+03 -7.084299991E-04
  9.670948300E+02 -2.767999996E-03
  3.140353400E+02 -9.611379987E-03
  1.134423000E+02 -2.833957996E-02
  4.464472700E+01 -6.839343991E-02
  1.894287400E+01 -1.237379298E-01
  8.532743000E+00 -1.512859698E-01
  3.919401000E+00 -9.099909988E-03
  1.568157000E+00  3.716257695E-01
  6.232900000E-01  5.500214393E-01
  2.408610000E-01  2.092318697E-01
  8.430100000E-02  8.074639989E-03
   p   9
  2.453302900E+02  1.024860004E-03
  5.691900500E+01  8.344290032E-03
  1.760456800E+01  4.078927016E-02
  6.274995000E+00  1.351370605E-01
  2.447030000E+00  2.798830811E-01
  9.950600000E-01  3.597966414E-01
  4.039730000E-01  3.055347412E-01
  1.548100000E-01  1.354703905E-01
  5.418400000E-02  2.804449011E-02
 
[MO]
Sym=     1a  
Ene=   -26.2150
Spin= Alpha
Occup=    1.00000
   1        -0.00041000
   2        -0.00078657
   3         0.00000000
   4        -0.00000000
   5        -0.00055925
   6         1.00008460
   7        -0.00176619
   8         0.00000000
   9        -0.00000000
  10        -0.00109580
Sym=     1a  
Ene=   -26.2170
Spin= Beta
Occup=    1.00000
   1        -0.00042701
   2        -0.00081638
   3         0.00000000
   4        -0.00000000
   5        -0.00060342
   6         1.00009006
   7        -0.00162703
   8         0.00000000
   9        -0.00000000
  10        -0.00109817
Sym=     2a  
Ene=    -4.8011
Spin= Alpha
Occup=    1.00000
   1         0.99542363
   2        -0.00053176
   3         0.00000000
   4        -0.00000000
   5        -0.00019732
   6        -0.00195379
   7         0.01726874
   8         0.00000000
   9         0.00000000
  10        -0.01526941
Sym=     2a  
Ene=    -4.7813
Spin= Beta
Occup=    1.00000
   1         0.99545385
   2        -0.00066927
   3         0.00000000
   4        -0.00000000
   5         0.00096203
   6        -0.00203989
   7         0.01679202
   8         0.00000000
   9         0.00000000
  10        -0.01533568
Sym=     3a  
Ene=    -1.6397
Spin= Alpha
Occup=    1.00000
   1        -0.14050712
   2         0.01297229
   3        -0.00000000
   4         0.00000000
   5         0.06314025
   6        -0.00333297
   7         0.94997591
   8        -0.00000000
   9        -0.00000000
  10        -0.18189760
Sym=     3a  
Ene=    -1.6446
Spin= Beta
Occup=    1.00000
   1        -0.14011238
   2         0.00937605
   3        -0.00000000
   4         0.00000000
   5         0.06036541
   6        -0.00301039
   7         0.95399984
   8        -0.00000000
   9        -0.00000000
  10        -0.17710770
Sym=     4a  
Ene=    -0.7304
Spin= Alpha
Occup=    1.00000
   1         0.16750988
   2         0.01044497
   3         0.00000000
   4        -0.00000000
   5        -0.09039481
   6         0.00780503
   7         0.21518961
   8         0.00000000
   9        -0.00000000
  10         0.99379772
Sym=     4a  
Ene=    -0.7300
Spin= Beta
Occup=    1.00000
   1         0.16884378
   2         0.02003955
   3         0.00000000
   4        -0.00000000
   5        -0.09483877
   6         0.00763003
   7         0.20794519
   8         0.00000000
   9        -0.00000000
  10         0.99606020
Sym=     5a  
Ene=    -0.6793
Spin= Alpha
Occup=    1.00000
   1        -0.00000000
   2         0.00000000
   3         0.16409889
   4         0.03483517
   5        -0.00000000
   6         0.00000000
   7         0.00000000
   8         0.90797148
   9         0.19274560
  10        -0.00000000
Sym=     5a  
Ene=    -0.6900
Spin= Beta
Occup=    1.00000
   1        -0.00000000
   2         0.00000000
   3         0.12515448
   4         0.02361264
   5        -0.00000000
   6        -0.00000000
   7        -0.00000000
   8         0.93134318
   9         0.17571461
  10        -0.00000000
Sym=     6a  
Ene=    -0.6793
Spin= Alpha
Occup=    1.00000
   1         0.00000000
   2         0.00000000
   3        -0.03483517
   4         0.16409889
   5        -0.00000000
   6         0.00000000
   7         0.00000000
   8        -0.19274560
   9         0.90797148
  10         0.00000000
Sym=     6a  
Ene=    -0.6900
Spin= Beta
Occup=    1.00000
   1         0.00000000
   2         0.00000000
   3        -0.02361264
   4         0.12515448
   5        -0.00000000
   6         0.00000000
   7         0.00000000
   8        -0.17571461
   9         0.93134318
  10         0.00000000
Sym=     7a  
Ene=    -0.3484
Spin= Alpha
Occup=    1.00000
   1        -0.02566645
   2        -0.88029188
   3        -0.00000000
   4        -0.00000000
   5         0.50796221
   6         0.00405660
   7         0.08847107
   8         0.00000000
   9         0.00000000
  10        -0.10268277
Sym=     7a  
Ene=     0.0610
Spin= Beta
Occup=    0.00000
   1        -0.03753790
   2        -0.95154506
   3        -0.00000000
   4        -0.00000000
   5         0.39865231
   6         0.01676479
   7         0.17968142
   8         0.00000000
   9         0.00000000
  10        -0.11714504
Sym=     8a  
Ene=     0.1593
Spin= Alpha
Occup=    0.00000
   1        -0.00000000
   2        -0.00000000
   3        -1.01413597
   4         0.29463333
   5        -0.00000000
   6         0.00000000
   7         0.00000000
   8         0.50982414
   9        -0.14811740
  10         0.00000000
Sym=     8a  
Ene=     0.2169
Spin= Beta
Occup=    0.00000
   1         0.00000000
   2         0.00000000
   3        -1.03681830
   4         0.22849314
   5        -0.00000000
   6         0.00000000
   7         0.00000000
   8         0.48352060
   9        -0.10655786
  10         0.00000000
Sym=     9a  
Ene=     0.1593
Spin= Alpha
Occup=    0.00000
   1        -0.00000000
   2         0.00000000
   3        -0.29463333
   4        -1.01413597
   5         0.00000000
   6        -0.00000000
   7        -0.00000000
   8         0.14811740
   9         0.50982414
  10        -0.00000000
Sym=     9a  
Ene=     0.2169
Spin= Beta
Occup=    0.00000
   1        -0.00000000
   2        -0.00000000
   3         0.22849314
   4         1.03681830
   5        -0.00000000
   6         0.00000000
   7         0.00000000
   8        -0.10655786
   9        -0.48352060
  10         0.00000000
Sym=    10a  
Ene=     0.4259
Spin= Alpha
Occup=    0.00000
   1         0.14164173
   2         0.80309286
   3        -0.00000000
   4         0.00000000
   5         1.13123834
   6        -0.13489771
   7        -0.97425578
   8         0.00000000
   9        -0.00000000
  10         0.27093239
Sym=    10a  
Ene=     0.4592
Spin= Beta
Occup=    0.00000
   1         0.13752813
   2         0.71709246
   3        -0.00000000
   4         0.00000000
   5         1.17401905
   6        -0.13388905
   7        -0.95923754
   8         0.00000000
   9        -0.00000000
  10         0.25969348
