[Molden Format]
[N_Atoms]
                     2
[Atoms] (AU)
C1          1      6           0.00000000      0.00000000      0.00000000
O2          2      8           0.00000000      0.00000000      3.77945225
[Charge] (Mulliken)
  0.307933922114860     
 -0.307933922114909     
[GTO] (AU)
   1
   s  14
  5.055750100E+04  1.128874000E-04
  7.524785600E+03  5.295373000E-04
  1.694327600E+03  2.450038300E-03
  4.728227900E+02  1.005398470E-02
  1.517107500E+02  3.545398060E-02
  5.391874600E+01  1.044071086E-01
  2.065931100E+01  2.412894918E-01
  8.383976000E+00  3.834225483E-01
  3.577015000E+00  3.078514393E-01
  1.547118000E+00  6.872442990E-02
  6.130130000E-01  2.224445000E-04
  2.460680000E-01  1.976748900E-03
  9.908700000E-02  2.057859400E-03
  3.468000000E-02  4.182020000E-04
   s  14
  5.055750100E+04 -2.507420000E-05
  7.524785600E+03 -1.175945000E-04
  1.694327600E+03 -5.456275000E-04
  4.728227900E+02 -2.245077100E-03
  1.517107500E+02 -8.043471800E-03
  5.391874600E+01 -2.442588710E-02
  2.065931100E+01 -6.136791180E-02
  8.383976000E+00 -1.177767835E-01
  3.577015000E+00 -1.550487783E-01
  1.547118000E+00 -1.933316860E-02
  6.130130000E-01  3.996930678E-01
  2.460680000E-01  5.589420949E-01
  9.908700000E-02  1.711195023E-01
  3.468000000E-02  7.456244600E-03
   p   9
  8.333315500E+01  1.344656000E-03
  1.955761100E+01  1.023555500E-02
  6.080365000E+00  4.520067100E-02
  2.179317000E+00  1.410756198E-01
  8.651500000E-01  3.047388085E-01
  3.619440000E-01  3.995281011E-01
  1.547400000E-01  2.719163432E-01
  6.542900000E-02  5.857669330E-02
  2.290000000E-02 -1.263813000E-04
 
   2
   s  14
  1.053749500E+05  1.238600013E-04
  1.567924000E+04  5.120100053E-04
  3.534544700E+03  2.152910022E-03
  9.873651600E+02  8.528440089E-03
  3.159787500E+02  3.018049031E-02
  1.116542800E+02  9.099702095E-02
  4.269945100E+01  2.177936423E-01
  1.739559600E+01  3.686245738E-01
  7.438309000E+00  3.366707335E-01
  3.222862000E+00  9.657630101E-02
  1.253877000E+00  2.144520022E-03
  4.951550000E-01  1.194350012E-03
  1.916650000E-01  5.390200056E-04
  6.708300000E-02  2.103400022E-04
   s  14
  1.053749500E+05 -2.815000008E-05
  1.567924000E+04 -1.163000003E-04
  3.534544700E+03 -4.909200013E-04
  9.873651600E+02 -1.946160005E-03
  3.159787500E+02 -7.005300019E-03
  1.116542800E+02 -2.167814006E-02
  4.269945100E+01 -5.641213015E-02
  1.739559600E+01 -1.127053003E-01
  7.438309000E+00 -1.589119704E-01
  3.222862000E+00 -3.355083009E-02
  1.253877000E+00  3.531902810E-01
  4.951550000E-01  5.534199315E-01
  1.916650000E-01  2.301839106E-01
  6.708300000E-02  1.127267003E-02
   p   9
  2.000000000E+02  9.173000030E-04
  4.653336700E+01  7.377140024E-03
  1.462180900E+01  3.483515011E-02
  5.313064000E+00  1.144397004E-01
  2.102525000E+00  2.554966408E-01
  8.502230000E-01  3.722557412E-01
  3.375970000E-01  3.323314911E-01
  1.288920000E-01  1.400847905E-01
  4.511200000E-02  2.395784008E-02
 
[MO]
Sym=     1a  
Ene=   -20.5150
Spin= Alpha
Occup=    2.00000
   1        -0.00001753
   2        -0.00017779
   3         0.00000000
   4        -0.00000000
   5        -0.00022308
   6         1.00000492
   7         0.00009868
   8         0.00000000
   9        -0.00000000
  10        -0.00049763
Sym=     2a  
Ene=   -11.4340
Spin= Alpha
Occup=    2.00000
   1         0.99988012
   2        -0.01574552
   3         0.00000000
   4        -0.00000000
   5         0.00228570
   6        -0.00000065
   7         0.00081116
   8        -0.00000000
   9         0.00000000
  10         0.00069949
Sym=     3a  
Ene=    -1.1581
Spin= Alpha
Occup=    2.00000
   1        -0.00456087
   2         0.01780500
   3         0.00000000
   4        -0.00000000
   5         0.07757958
   6        -0.00146130
   7         0.98010693
   8        -0.00000000
   9         0.00000000
  10        -0.00533919
Sym=     4a  
Ene=    -0.4606
Spin= Alpha
Occup=    2.00000
   1         0.00000000
   2        -0.00000000
   3         0.09815323
   4        -0.02146774
   5        -0.00000002
   6         0.00000000
   7         0.00000000
   8         0.96347808
   9        -0.21072867
  10         0.00000001
Sym=     5a  
Ene=    -0.4593
Spin= Alpha
Occup=    2.00000
   1        -0.00000000
   2        -0.00000000
   3         0.02356402
   4         0.10773768
   5         0.00000000
   6        -0.00000000
   7        -0.00000000
   8         0.21032619
   9         0.96163789
  10        -0.00000000
Sym=     6a  
Ene=    -0.4251
Spin= Alpha
Occup=    2.00000
   1         0.00493934
   2        -0.05854140
   3        -0.00000001
   4         0.00000000
   5        -0.87784695
   6         0.01522691
   7         0.24881811
   8        -0.00000002
   9         0.00000000
  10         0.35279606
Sym=     7a  
Ene=    -0.7626
Spin= Alpha
Occup=    1.95688
   1        -0.01560570
   2        -0.98501630
   3         0.00000000
   4        -0.00000000
   5         0.13994999
   6         0.00477930
   7         0.09457381
   8        -0.00000000
   9         0.00000000
  10         0.04961443
Sym=     8a  
Ene=     0.0000
Spin= Alpha
Occup=    0.04312
   1         0.00000000
   2         0.00000000
   3        -0.97568586
   4         0.21339872
   5         0.00000001
   6        -0.00000000
   7        -0.00000000
   8         0.18250194
   9        -0.03991621
  10         0.00000000
Sym=     9a  
Ene=     0.0361
Spin= Alpha
Occup=    0.00000
   1         0.00000000
   2         0.00000000
   3        -0.21317742
   4        -0.97467407
   5        -0.00000000
   6         0.00000000
   7         0.00000000
   8         0.04198535
   9         0.19196233
  10         0.00000000
Sym=    10a  
Ene=     0.1795
Spin= Alpha
Occup=    0.00000
   1        -0.01774388
   2        -0.27938049
   3        -0.00000000
   4         0.00000000
   5        -0.53506349
   6         0.01053570
   7         0.15609475
   8         0.00000001
   9        -0.00000000
  10        -0.97571536
