[Molden Format]
[N_Atoms]
                     2
[Atoms] (AU)
C1          1      6           0.00000000      0.00000000      0.00000000
N2          2      7           0.00000000      0.00000000      2.64561657
[Charge] (Mulliken)
  8.242667596897491E-002
 -8.242667596901310E-002
[GTO] (AU)
   1
   s  14
  5.055750100E+04  1.128874000E-04
  7.524785600E+03  5.295373000E-04
  1.694327600E+03  2.450038300E-03
  4.728227900E+02  1.005398470E-02
  1.517107500E+02  3.545398060E-02
  5.391874600E+01  1.044071086E-01
  2.065931100E+01  2.412894918E-01
  8.383976000E+00  3.834225483E-01
  3.577015000E+00  3.078514393E-01
  1.547118000E+00  6.872442990E-02
  6.130130000E-01  2.224445000E-04
  2.460680000E-01  1.976748900E-03
  9.908700000E-02  2.057859400E-03
  3.468000000E-02  4.182020000E-04
   s  14
  5.055750100E+04 -2.507420000E-05
  7.524785600E+03 -1.175945000E-04
  1.694327600E+03 -5.456275000E-04
  4.728227900E+02 -2.245077100E-03
  1.517107500E+02 -8.043471800E-03
  5.391874600E+01 -2.442588710E-02
  2.065931100E+01 -6.136791180E-02
  8.383976000E+00 -1.177767835E-01
  3.577015000E+00 -1.550487783E-01
  1.547118000E+00 -1.933316860E-02
  6.130130000E-01  3.996930678E-01
  2.460680000E-01  5.589420949E-01
  9.908700000E-02  1.711195023E-01
  3.468000000E-02  7.456244600E-03
   p   9
  8.333315500E+01  1.344656000E-03
  1.955761100E+01  1.023555500E-02
  6.080365000E+00  4.520067100E-02
  2.179317000E+00  1.410756198E-01
  8.651500000E-01  3.047388085E-01
  3.619440000E-01  3.995281011E-01
  1.547400000E-01  2.719163432E-01
  6.542900000E-02  5.857669330E-02
  2.290000000E-02 -1.263813000E-04
 
   2
   s  14
  7.476171500E+04  1.182599996E-04
  1.112365400E+04  5.172899983E-04
  2.512685700E+03  2.266659992E-03
  7.037772900E+02  9.145289970E-03
  2.254787900E+02  3.239342989E-02
  7.961581000E+01  9.770792967E-02
  3.023728300E+01  2.317036792E-01
  1.226362200E+01  3.768898887E-01
  5.265086000E+00  3.177420689E-01
  2.333471000E+00  8.211308973E-02
  9.018560000E-01  3.312089989E-03
  3.583360000E-01  3.720819988E-03
  1.410930000E-01  3.165419989E-03
  4.938300000E-02  4.595799985E-04
   s  14
  7.476171500E+04 -2.707000010E-05
  1.112365400E+04 -1.183700004E-04
  2.512685700E+03 -5.203800020E-04
  7.037772900E+02 -2.102930008E-03
  2.254787900E+02 -7.568200028E-03
  7.961581000E+01 -2.346767009E-02
  3.023728300E+01 -6.042901023E-02
  1.226362200E+01 -1.170549104E-01
  5.265086000E+00 -1.555321506E-01
  2.333471000E+00 -2.468935009E-02
  9.018560000E-01  3.625054514E-01
  3.583360000E-01  5.550845021E-01
  1.410930000E-01  2.148376908E-01
  4.938300000E-02  8.983850034E-03
   p   9
  1.266665700E+02  1.233630000E-03
  2.983738900E+01  9.493409996E-03
  9.394038000E+00  4.293961998E-02
  3.405104000E+00  1.362925399E-01
  1.350000000E+00  2.921362499E-01
  5.576960000E-01  3.887887598E-01
  2.324490000E-01  2.946801399E-01
  9.426400000E-02  8.012875997E-02
  3.299200000E-02  5.405199998E-04
 
[MO]
Sym=     1a  
Ene=   -15.6170
Spin= Alpha
Occup=    1.00000
   1        -0.00017992
   2        -0.00124804
   3        -0.00000000
   4        -0.00000000
   5        -0.00053645
   6         1.00005351
   7        -0.00672322
   8         0.00000000
   9        -0.00000000
  10        -0.00222022
Sym=     1a  
Ene=   -15.6710
Spin= Beta
Occup=    1.00000
   1        -0.00042108
   2        -0.00236540
   3        -0.00000000
   4        -0.00000000
   5        -0.00163394
   6         1.00018653
   7        -0.00243671
   8         0.00000000
   9        -0.00000000
  10        -0.00305378
Sym=     2a  
Ene=   -11.3930
Spin= Alpha
Occup=    1.00000
   1         1.00005531
   2         0.00141986
   3        -0.00000000
   4        -0.00000000
   5         0.00095357
   6        -0.00044766
   7        -0.00132303
   8        -0.00000000
   9         0.00000000
  10         0.00014021
Sym=     2a  
Ene=   -11.3180
Spin= Beta
Occup=    1.00000
   1         0.99998212
   2        -0.00396687
   3        -0.00000000
   4         0.00000000
   5         0.00090330
   6        -0.00021432
   7        -0.00033956
   8        -0.00000000
   9         0.00000000
  10        -0.00033013
Sym=     3a  
Ene=    -1.1216
Spin= Alpha
Occup=    1.00000
   1        -0.03022182
   2         0.59023598
   3        -0.00000000
   4        -0.00000000
   5         0.14423107
   6        -0.02634269
   7         0.48871775
   8        -0.00000000
   9        -0.00000000
  10        -0.18895863
Sym=     3a  
Ene=    -1.1969
Spin= Beta
Occup=    1.00000
   1        -0.03759941
   2         0.18847402
   3        -0.00000000
   4         0.00000000
   5         0.14432706
   6        -0.01303534
   7         0.82351591
   8        -0.00000000
   9        -0.00000000
  10        -0.15646535
Sym=     4a  
Ene=    -0.7612
Spin= Alpha
Occup=    1.00000
   1        -0.01527456
   2        -0.71157571
   3         0.00000000
   4        -0.00000000
   5         0.43286533
   6         0.00137466
   7         0.59897657
   8         0.00000000
   9         0.00000000
  10         0.07885753
Sym=     4a  
Ene=    -0.6040
Spin= Beta
Occup=    1.00000
   1         0.01841040
   2        -0.50835416
   3         0.00000000
   4         0.00000000
   5        -0.21131416
   6         0.03502456
   7         0.57397777
   8         0.00000000
   9         0.00000000
  10         0.61493499
Sym=     5a  
Ene=    -0.5166
Spin= Alpha
Occup=    1.00000
   1         0.02466924
   2         0.12230129
   3        -0.00000000
   4        -0.00000000
   5        -0.56514036
   6         0.03717143
   7         0.55004880
   8        -0.00000000
   9        -0.00000000
  10         0.66172415
Sym=     5a  
Ene=    -0.5594
Spin= Beta
Occup=    1.00000
   1        -0.00000000
   2         0.00000000
   3        -0.03070870
   4         0.17441981
   5         0.00000000
   6        -0.00000000
   7        -0.00000000
   8        -0.16344721
   9         0.92835022
  10        -0.00000000
Sym=     6a  
Ene=    -0.5064
Spin= Alpha
Occup=    1.00000
   1         0.00000000
   2         0.00000000
   3        -0.37175330
   4         0.84070945
   5        -0.00000000
   6         0.00000000
   7         0.00000000
   8        -0.09332177
   9         0.21104450
  10         0.00000000
Sym=     6a  
Ene=    -0.5594
Spin= Beta
Occup=    1.00000
   1        -0.00000000
   2         0.00000000
   3         0.17441981
   4         0.03070870
   5         0.00000000
   6        -0.00000000
   7        -0.00000000
   8         0.92835022
   9         0.16344721
  10        -0.00000000
Sym=     7a  
Ene=    -0.5064
Spin= Alpha
Occup=    1.00000
   1         0.00000000
   2         0.00000000
   3         0.84070945
   4         0.37175330
   5        -0.00000000
   6         0.00000000
   7         0.00000000
   8         0.21104450
   9         0.09332177
  10         0.00000000
Sym=     7a  
Ene=     0.0424
Spin= Beta
Occup=    0.00000
   1         0.03507244
   2         0.82992694
   3        -0.00000000
   4        -0.00000000
   5        -0.51159221
   6         0.00460388
   7        -0.05528105
   8         0.00000000
   9         0.00000000
  10         0.45470796
Sym=     8a  
Ene=     0.2194
Spin= Alpha
Occup=    0.00000
   1         0.00000000
   2         0.00000000
   3         0.04180245
   4        -0.46293078
   5        -0.00000000
   6         0.00000000
   7         0.00000000
   8        -0.09028355
   9         0.99982268
  10         0.00000000
Sym=     8a  
Ene=     0.2362
Spin= Beta
Occup=    0.00000
   1        -0.00000000
   2        -0.00000000
   3         0.13082264
   4        -1.00626308
   5         0.00000000
   6        -0.00000000
   7         0.00000000
   8        -0.05354531
   9         0.41186044
  10        -0.00000000
Sym=     9a  
Ene=     0.2194
Spin= Alpha
Occup=    0.00000
   1        -0.00000000
   2        -0.00000000
   3        -0.46293078
   4        -0.04180245
   5         0.00000000
   6        -0.00000000
   7        -0.00000000
   8         0.99982268
   9         0.09028355
  10        -0.00000000
Sym=     9a  
Ene=     0.2362
Spin= Beta
Occup=    0.00000
   1        -0.00000000
   2        -0.00000000
   3        -1.00626308
   4        -0.13082264
   5         0.00000000
   6        -0.00000000
   7         0.00000000
   8         0.41186044
   9         0.05354531
  10        -0.00000000
Sym=    10a  
Ene=     0.5890
Spin= Alpha
Occup=    0.00000
   1         0.09290989
   2         0.80784304
   3        -0.00000000
   4         0.00000000
   5         0.99244710
   6        -0.09633816
   7        -0.84369714
   8        -0.00000000
   9        -0.00000000
  10         0.97055774
Sym=    10a  
Ene=     0.6479
Spin= Beta
Occup=    0.00000
   1         0.08689646
   2         0.73453631
   3         0.00000000
   4        -0.00000000
   5         1.08871347
   6        -0.09836069
   7        -0.77546920
   8        -0.00000000
   9        -0.00000000
  10         0.90132946
