[Molden Format]
[N_Atoms]
                     2
[Atoms] (AU)
F1          1      9           0.00000000      0.00000000      0.00000000
F2          2      9           0.00000000      0.00000000      3.77945225
[Charge] (Mulliken)
  0.999989703133858     
   1.00001029686612     
[GTO] (AU)
   1
   s  14
  1.031094600E+05  1.713099991E-04
  1.528100700E+04  7.123999962E-04
  3.441539200E+03  2.990479984E-03
  9.670948300E+02  1.164036994E-02
  3.140353400E+02  3.968642979E-02
  1.134423000E+02  1.128546094E-01
  4.464472700E+01  2.473650687E-01
  1.894287400E+01  3.672702681E-01
  8.532743000E+00  2.896286985E-01
  3.919401000E+00  7.786681959E-02
  1.568157000E+00  4.562139976E-03
  6.232900000E-01  2.468879987E-03
  2.408610000E-01  1.106309994E-03
  8.430100000E-02  1.739699991E-04
   s  14
  1.031094600E+05 -4.044999995E-05
  1.528100700E+04 -1.682299998E-04
  3.441539200E+03 -7.084299991E-04
  9.670948300E+02 -2.767999996E-03
  3.140353400E+02 -9.611379987E-03
  1.134423000E+02 -2.833957996E-02
  4.464472700E+01 -6.839343991E-02
  1.894287400E+01 -1.237379298E-01
  8.532743000E+00 -1.512859698E-01
  3.919401000E+00 -9.099909988E-03
  1.568157000E+00  3.716257695E-01
  6.232900000E-01  5.500214393E-01
  2.408610000E-01  2.092318697E-01
  8.430100000E-02  8.074639989E-03
   p   9
  2.453302900E+02  1.024860004E-03
  5.691900500E+01  8.344290032E-03
  1.760456800E+01  4.078927016E-02
  6.274995000E+00  1.351370605E-01
  2.447030000E+00  2.798830811E-01
  9.950600000E-01  3.597966414E-01
  4.039730000E-01  3.055347412E-01
  1.548100000E-01  1.354703905E-01
  5.418400000E-02  2.804449011E-02
 
   2
   s  14
  1.031094600E+05  1.713099991E-04
  1.528100700E+04  7.123999962E-04
  3.441539200E+03  2.990479984E-03
  9.670948300E+02  1.164036994E-02
  3.140353400E+02  3.968642979E-02
  1.134423000E+02  1.128546094E-01
  4.464472700E+01  2.473650687E-01
  1.894287400E+01  3.672702681E-01
  8.532743000E+00  2.896286985E-01
  3.919401000E+00  7.786681959E-02
  1.568157000E+00  4.562139976E-03
  6.232900000E-01  2.468879987E-03
  2.408610000E-01  1.106309994E-03
  8.430100000E-02  1.739699991E-04
   s  14
  1.031094600E+05 -4.044999995E-05
  1.528100700E+04 -1.682299998E-04
  3.441539200E+03 -7.084299991E-04
  9.670948300E+02 -2.767999996E-03
  3.140353400E+02 -9.611379987E-03
  1.134423000E+02 -2.833957996E-02
  4.464472700E+01 -6.839343991E-02
  1.894287400E+01 -1.237379298E-01
  8.532743000E+00 -1.512859698E-01
  3.919401000E+00 -9.099909988E-03
  1.568157000E+00  3.716257695E-01
  6.232900000E-01  5.500214393E-01
  2.408610000E-01  2.092318697E-01
  8.430100000E-02  8.074639989E-03
   p   9
  2.453302900E+02  1.024860004E-03
  5.691900500E+01  8.344290032E-03
  1.760456800E+01  4.078927016E-02
  6.274995000E+00  1.351370605E-01
  2.447030000E+00  2.798830811E-01
  9.950600000E-01  3.597966414E-01
  4.039730000E-01  3.055347412E-01
  1.548100000E-01  1.354703905E-01
  5.418400000E-02  2.804449011E-02
 
[MO]
Sym=     1a  
Ene=   -28.0050
Spin= Alpha
Occup=    2.00000
   1         0.65995536
   2        -0.00332711
   3        -0.00000000
   4         0.00000000
   5         0.00019839
   6         0.75128157
   7        -0.00378693
   8         0.00000000
   9         0.00000000
  10        -0.00021035
Sym=     2a  
Ene=   -28.0050
Spin= Alpha
Occup=    2.00000
   1        -0.75128719
   2         0.00378271
   3        -0.00000000
   4         0.00000000
   5        -0.00010564
   6         0.65996176
   7        -0.00332236
   8         0.00000000
   9         0.00000000
  10        -0.00007919
Sym=     3a  
Ene=    -2.7115
Spin= Alpha
Occup=    2.00000
   1         0.00234016
   2         0.69032712
   3         0.00000000
   4        -0.00000000
   5         0.03901726
   6         0.00234119
   7         0.69048415
   8        -0.00000000
   9        -0.00000000
  10        -0.03901995
Sym=     4a  
Ene=    -2.6622
Spin= Alpha
Occup=    2.00000
   1        -0.00460575
   2        -0.72101716
   3        -0.00000000
   4        -0.00000000
   5        -0.01234739
   6         0.00460527
   7         0.72086696
   8        -0.00000000
   9        -0.00000000
  10        -0.01233767
Sym=     5a  
Ene=    -1.7061
Spin= Alpha
Occup=    2.00000
   1         0.00000000
   2         0.00000000
   3         0.48773402
   4         0.49148551
   5        -0.00000000
   6         0.00000000
   7         0.00000000
   8         0.48773121
   9         0.49148267
  10         0.00000000
Sym=     6a  
Ene=    -1.7061
Spin= Alpha
Occup=    2.00000
   1         0.00000000
   2         0.00000000
   3        -0.49148551
   4         0.48773402
   5        -0.00000000
   6         0.00000000
   7         0.00000000
   8        -0.49148267
   9         0.48773121
  10         0.00000000
Sym=     7a  
Ene=    -1.6630
Spin= Alpha
Occup=    2.00000
   1         0.00507744
   2         0.09878918
   3         0.00000000
   4        -0.00000000
   5        -0.67233070
   6         0.00507746
   7         0.09878815
   8        -0.00000000
   9        -0.00000000
  10         0.67232714
Sym=     8a  
Ene=    -1.5699
Spin= Alpha
Occup=    1.00000
   1        -0.00000000
   2        -0.00000000
   3         0.54116482
   4        -0.47910394
   5         0.00000000
   6         0.00000000
   7        -0.00000000
   8        -0.54116769
   9         0.47910648
  10        -0.00000000
Sym=     9a  
Ene=     0.0000
Spin= Alpha
Occup=    1.00000
   1        -0.00000000
   2         0.00000000
   3        -0.47910394
   4        -0.54116482
   5        -0.00000000
   6        -0.00000000
   7        -0.00000000
   8         0.47910648
   9         0.54116769
  10        -0.00000000
Sym=    10a  
Ene=    -1.2880
Spin= Alpha
Occup=    0.00000
   1         0.00530710
   2         0.05856665
   3        -0.00000000
   4        -0.00000000
   5         0.75315526
   6        -0.00530708
   7        -0.05856618
   8        -0.00000000
   9         0.00000000
  10         0.75315846
