[Molden Format]
[N_Atoms]
                     2
[Atoms] (AU)
F1          1      9           0.00000000      0.00000000      0.00000000
F2          2      9           0.00000000      0.00000000      3.77945225
[Charge] (Mulliken)
  1.421085471520200E-014
 -2.131628207280301E-014
[GTO] (AU)
   1
   s  14
  1.031094600E+05  1.713099991E-04
  1.528100700E+04  7.123999962E-04
  3.441539200E+03  2.990479984E-03
  9.670948300E+02  1.164036994E-02
  3.140353400E+02  3.968642979E-02
  1.134423000E+02  1.128546094E-01
  4.464472700E+01  2.473650687E-01
  1.894287400E+01  3.672702681E-01
  8.532743000E+00  2.896286985E-01
  3.919401000E+00  7.786681959E-02
  1.568157000E+00  4.562139976E-03
  6.232900000E-01  2.468879987E-03
  2.408610000E-01  1.106309994E-03
  8.430100000E-02  1.739699991E-04
   s  14
  1.031094600E+05 -4.044999995E-05
  1.528100700E+04 -1.682299998E-04
  3.441539200E+03 -7.084299991E-04
  9.670948300E+02 -2.767999996E-03
  3.140353400E+02 -9.611379987E-03
  1.134423000E+02 -2.833957996E-02
  4.464472700E+01 -6.839343991E-02
  1.894287400E+01 -1.237379298E-01
  8.532743000E+00 -1.512859698E-01
  3.919401000E+00 -9.099909988E-03
  1.568157000E+00  3.716257695E-01
  6.232900000E-01  5.500214393E-01
  2.408610000E-01  2.092318697E-01
  8.430100000E-02  8.074639989E-03
   p   9
  2.453302900E+02  1.024860004E-03
  5.691900500E+01  8.344290032E-03
  1.760456800E+01  4.078927016E-02
  6.274995000E+00  1.351370605E-01
  2.447030000E+00  2.798830811E-01
  9.950600000E-01  3.597966414E-01
  4.039730000E-01  3.055347412E-01
  1.548100000E-01  1.354703905E-01
  5.418400000E-02  2.804449011E-02
 
   2
   s  14
  1.031094600E+05  1.713099991E-04
  1.528100700E+04  7.123999962E-04
  3.441539200E+03  2.990479984E-03
  9.670948300E+02  1.164036994E-02
  3.140353400E+02  3.968642979E-02
  1.134423000E+02  1.128546094E-01
  4.464472700E+01  2.473650687E-01
  1.894287400E+01  3.672702681E-01
  8.532743000E+00  2.896286985E-01
  3.919401000E+00  7.786681959E-02
  1.568157000E+00  4.562139976E-03
  6.232900000E-01  2.468879987E-03
  2.408610000E-01  1.106309994E-03
  8.430100000E-02  1.739699991E-04
   s  14
  1.031094600E+05 -4.044999995E-05
  1.528100700E+04 -1.682299998E-04
  3.441539200E+03 -7.084299991E-04
  9.670948300E+02 -2.767999996E-03
  3.140353400E+02 -9.611379987E-03
  1.134423000E+02 -2.833957996E-02
  4.464472700E+01 -6.839343991E-02
  1.894287400E+01 -1.237379298E-01
  8.532743000E+00 -1.512859698E-01
  3.919401000E+00 -9.099909988E-03
  1.568157000E+00  3.716257695E-01
  6.232900000E-01  5.500214393E-01
  2.408610000E-01  2.092318697E-01
  8.430100000E-02  8.074639989E-03
   p   9
  2.453302900E+02  1.024860004E-03
  5.691900500E+01  8.344290032E-03
  1.760456800E+01  4.078927016E-02
  6.274995000E+00  1.351370605E-01
  2.447030000E+00  2.798830811E-01
  9.950600000E-01  3.597966414E-01
  4.039730000E-01  3.055347412E-01
  1.548100000E-01  1.354703905E-01
  5.418400000E-02  2.804449011E-02
 
[MO]
Sym=     1a  
Ene=   -26.4990
Spin= Alpha
Occup=    1.00000
   1         0.70709796
   2        -0.00248292
   3         0.00000000
   4         0.00000000
   5         0.00016094
   6         0.70709795
   7        -0.00248292
   8        -0.00000000
   9        -0.00000000
  10        -0.00016094
Sym=     1a  
Ene=   -26.4990
Spin= Beta
Occup=    1.00000
   1         0.70709796
   2        -0.00248292
   3         0.00000000
   4         0.00000000
   5         0.00016094
   6         0.70709795
   7        -0.00248292
   8        -0.00000000
   9        -0.00000000
  10        -0.00016094
Sym=     2a  
Ene=   -26.4990
Spin= Alpha
Occup=    1.00000
   1        -0.70710734
   2         0.00240183
   3         0.00000000
   4         0.00000000
   5        -0.00017706
   6         0.70710735
   7        -0.00240183
   8         0.00000000
   9        -0.00000000
  10        -0.00017706
Sym=     2a  
Ene=   -26.4990
Spin= Beta
Occup=    1.00000
   1        -0.70710734
   2         0.00240183
   3         0.00000000
   4         0.00000000
   5        -0.00017706
   6         0.70710735
   7        -0.00240183
   8         0.00000000
   9        -0.00000000
  10        -0.00017706
Sym=     3a  
Ene=    -1.6581
Spin= Alpha
Occup=    1.00000
   1         0.00136871
   2         0.69260196
   3         0.00000000
   4        -0.00000000
   5         0.02271071
   6         0.00136871
   7         0.69260196
   8         0.00000000
   9        -0.00000000
  10        -0.02271071
Sym=     3a  
Ene=    -1.6581
Spin= Beta
Occup=    1.00000
   1         0.00136871
   2         0.69260196
   3         0.00000000
   4        -0.00000000
   5         0.02271071
   6         0.00136871
   7         0.69260196
   8         0.00000000
   9        -0.00000000
  10        -0.02271071
Sym=     4a  
Ene=    -1.6053
Spin= Alpha
Occup=    1.00000
   1        -0.00322950
   2        -0.71748915
   3        -0.00000000
   4        -0.00000000
   5         0.02231966
   6         0.00322950
   7         0.71748915
   8        -0.00000000
   9        -0.00000000
  10         0.02231966
Sym=     4a  
Ene=    -1.6053
Spin= Beta
Occup=    1.00000
   1        -0.00322950
   2        -0.71748915
   3        -0.00000000
   4        -0.00000000
   5         0.02231966
   6         0.00322950
   7         0.71748915
   8        -0.00000000
   9        -0.00000000
  10         0.02231966
Sym=     5a  
Ene=    -0.7691
Spin= Alpha
Occup=    1.00000
   1        -0.00000000
   2        -0.00000000
   3         0.68773260
   4         0.08039642
   5        -0.00000000
   6        -0.00000000
   7         0.00000000
   8         0.68773260
   9         0.08039642
  10         0.00000000
Sym=     5a  
Ene=    -0.7691
Spin= Beta
Occup=    1.00000
   1        -0.00000000
   2        -0.00000000
   3         0.68773260
   4         0.08039642
   5        -0.00000000
   6        -0.00000000
   7         0.00000000
   8         0.68773260
   9         0.08039642
  10         0.00000000
Sym=     6a  
Ene=    -0.7691
Spin= Alpha
Occup=    1.00000
   1         0.00000000
   2         0.00000000
   3        -0.08039642
   4         0.68773260
   5        -0.00000000
   6         0.00000000
   7         0.00000000
   8        -0.08039642
   9         0.68773260
  10         0.00000000
Sym=     6a  
Ene=    -0.7691
Spin= Beta
Occup=    1.00000
   1         0.00000000
   2         0.00000000
   3        -0.08039642
   4         0.68773260
   5        -0.00000000
   6         0.00000000
   7         0.00000000
   8        -0.08039642
   9         0.68773260
  10         0.00000000
Sym=     7a  
Ene=    -0.7405
Spin= Alpha
Occup=    1.00000
   1        -0.00000000
   2        -0.00000000
   3        -0.45577047
   4        -0.56095988
   5         0.00000000
   6        -0.00000000
   7        -0.00000000
   8         0.45577047
   9         0.56095988
  10        -0.00000000
Sym=     7a  
Ene=    -0.7405
Spin= Beta
Occup=    1.00000
   1        -0.00000000
   2        -0.00000000
   3        -0.45577047
   4        -0.56095988
   5         0.00000000
   6        -0.00000000
   7        -0.00000000
   8         0.45577047
   9         0.56095988
  10        -0.00000000
Sym=     8a  
Ene=    -0.7405
Spin= Alpha
Occup=    1.00000
   1         0.00000000
   2         0.00000000
   3        -0.56095988
   4         0.45577047
   5        -0.00000000
   6         0.00000000
   7         0.00000000
   8         0.56095988
   9        -0.45577047
  10         0.00000000
Sym=     8a  
Ene=    -0.7405
Spin= Beta
Occup=    1.00000
   1         0.00000000
   2         0.00000000
   3        -0.56095988
   4         0.45577047
   5        -0.00000000
   6         0.00000000
   7         0.00000000
   8         0.56095988
   9        -0.45577047
  10         0.00000000
Sym=     9a  
Ene=    -0.6123
Spin= Alpha
Occup=    1.00000
   1         0.00493622
   2         0.08202570
   3         0.00000000
   4        -0.00000000
   5        -0.67307716
   6         0.00493622
   7         0.08202570
   8        -0.00000000
   9         0.00000000
  10         0.67307716
Sym=     9a  
Ene=    -0.6123
Spin= Beta
Occup=    1.00000
   1         0.00493622
   2         0.08202570
   3         0.00000000
   4        -0.00000000
   5        -0.67307716
   6         0.00493622
   7         0.08202570
   8        -0.00000000
   9         0.00000000
  10         0.67307716
Sym=    10a  
Ene=    -0.1914
Spin= Alpha
Occup=    0.00000
   1         0.00540063
   2         0.09167175
   3        -0.00000000
   4         0.00000000
   5         0.75292722
   6        -0.00540063
   7        -0.09167175
   8        -0.00000000
   9         0.00000000
  10         0.75292722
Sym=    10a  
Ene=    -0.1914
Spin= Beta
Occup=    0.00000
   1         0.00540063
   2         0.09167175
   3        -0.00000000
   4         0.00000000
   5         0.75292722
   6        -0.00540063
   7        -0.09167175
   8        -0.00000000
   9         0.00000000
  10         0.75292722
