   This run of MOLCAS is using the pymolcas driver

                             OPE
                             OPE          NMOL  CASOP  ENMOLC A   SO
                 OPE        NMOLC        AS  OP EN  MO LC     AS  OP
                OPENM       OL CA        SO  PE NM  OL CA     SOP EN
                OP EN      MO   LC       AS  OP ENMOL  CASO   PENMOL
                OP  EN     MO   LC       AS  OP EN     MO     LC ASO
               OP   E  NMOL  C  AS       OP  EN MO     LC     AS  OP
               OP  E   NMO   LC AS        OPEN  MO     LCASOP EN   M
               O  PEN   MO  LCA  SO
            OPE   NMO   L   CAS    OP
        OPENMOL  CASOP     ENMOL   CASOPE
     OPENMOLCA   SOPENMOLCASOPEN   MOLCASOPE
    OPENMOLCAS   OP           EN   MOL    CAS
    OPENMOLCAS       OP  ENM        O     LCA
    OPENMOLCAS    OPEN  MOLCASO     P  E  NMO
    OPENMOLCAS     OP               E  N  MOL
    OPENMOLCA   SO           PENM   O  L  CAS    OPEN    MO    LCAS
    OPENMOLCA   SOP           ENM   O  L  CAS   OP  EN  MOLC  AS   O
    OPENMOLCA   SOPE           NM      O  LCA   S      OP  EN MO
    OPENMOLC                AS         O  PEN   M      OL  CA  SOPE
    OPENMO        LCASOPE  NMOL        C  ASO   P      ENMOLC     AS
    OPE     NMO      LCA  SO     P     E   NM   OL  CA SO  PE N   MO
          OPENMOLCA            SOPE   NMO        LCAS  O    P  ENMO
     OPENMOLCASOPENMOLCASOPENMOLCASOPENMOLCA
        OPENMOLCASOPENMOLCASOPENMOLCASOPE
            OPENMOLCASOPENMOLCASOPENM
               OPENMOLCASOPENMOLCA        version: ea724fe96-dirty
                   OPENMOLCASO
                       OPE                tag:

 OpenMolcas is free software; you can redistribute it and/or modify it
 under the terms of the GNU Lesser General Public License version 2.1.
 OpenMolcas is distributed in the hope that it will be useful, but it
 is provided "as is" and without any express or implied warranties.
 For more details see the full text of the license in the file
 LICENSE or in <http://www.gnu.org/licenses/>.

                 Copyright (C) The OpenMolcas Authors
           For the author list and the recommended citation,
                   consult the file CONTRIBUTORS.md

           *************************************************
           * pymolcas version py2.28                       *
           *   build c4a6d18ded8cb6cad61d2372a9abd97c      *
           *   (after the EMIL interpreter by V. Veryazov) *
           *************************************************

configuration info
------------------
C Compiler ID: Intel
C flags: -std=gnu99
Fortran Compiler ID: Intel
Fortran flags: -fpp -i8 -r8 -heap-arrays
Definitions: _MOLCAS_;_I8_;_LINUX_
Parallel: OFF (GA=OFF)


   -------------------------------------------------------------------------------
  |
  |              Project: 2.92
  |       Submitted from: /home/grierjones/DDCASPT2/iron_oxo_DDCASPT2/cluster/2.92
  |         Scratch area: /tmp/2.92
  |      Save outputs to: /home/grierjones/DDCASPT2/iron_oxo_DDCASPT2/cluster/2.92
  |               Molcas: /home/grierjones/Test/build
  |
  | Scratch area is empty
  |
  |       MOLCAS_DRIVER = /usr/local/pymolcas
  | MOLCAS_KEEP_WORKDIR = NO
  |  MOLCAS_NEW_WORKDIR = YES
  |       MOLCAS_NPROCS = 1
  |        MOLCAS_PRINT = NORMAL
  |       MOLCAS_SOURCE = /home/grierjones/Test/build
  |    MOLCAS_STRUCTURE = 0
  |
   -------------------------------------------------------------------------------

++ ---------   Input file   ---------

&GATEWAY
coord=2.92.xyz
Basis = ANO-RCC-VDZP
Group = nosymm
Expert
End of Input

&SEWARD
End of Input

&SCF
UHF
charge
2
spin
5

>>> COPY $WorkDir/2.92.scf.h5 $CurrDir/

&RASSCF
Title= RASSCF
FileOrb
/home/grierjones/DDCASPT2/iron_oxo_DDCASPT2/cluster/2.90/2.90.RasOrb
NACTEL
10 0 0
RAS2
14
Symmetry
1
Spin
5
charge
2
orblisting
all
ITERation
300 200

>>> COPY $WorkDir/2.92.rasscf.h5 $CurrDir/

>>> COPY $WorkDir/GMJ_Fock_MO.csv $CurrDir/2.92.GMJ_Fock_MO.csv

>>> COPY $WorkDir/GMJ_PT2_Fock_MO.csv $CurrDir/2.92.GMJ_PT2_Fock_MO.csv

&MOTRA
Frozen=0
LUMORB

>>> COPY $WorkDir/GMJ_one_int_indx.csv $CurrDir/2.92.GMJ_one_int_indx.csv

>>> COPY $WorkDir/GMJ_one_int.csv $CurrDir/2.92.GMJ_one_int.csv

>>> COPY $WorkDir/GMJ_two_int_indx.csv $CurrDir/2.92.GMJ_two_int_indx.csv

>>> COPY $WorkDir/GMJ_two_int.csv $CurrDir/2.92.GMJ_two_int.csv

&CASPT2
Frozen
0
MAXITER
50

>>> FOREACH i IN (B,E,F,G,H)

  >>> FOREACH j IN (P,M)

    >>> IF (-FILE GMJ_e2_${i}_${j}.csv)

      >>> COPY $WorkDir/GMJ_RHS_${i}_${j}.csv $CurrDir/GMJ_RHS_${i}_${j}.csv

      >>> COPY $WorkDir/GMJ_IVECW_${i}_${j}.csv $CurrDir/GMJ_IVECW_${i}_${j}.csv

      >>> COPY $WorkDir/GMJ_IVECX_${i}_${j}.csv $CurrDir/GMJ_IVECX_${i}_${j}.csv

      >>> COPY $WorkDir/GMJ_IVECC2_${i}_${j}.csv $CurrDir/GMJ_IVECC2_${i}_${j}.csv

      >>> COPY $WorkDir/GMJ_e2_${i}_${j}.csv $CurrDir/GMJ_e2_${i}_${j}.csv

    >>> END IF

  >>> END FOREACH

>>> END FOREACH

>>> FOREACH i IN (A,C,D)

  >>> IF (-FILE GMJ_e2_$i.csv)

    >>> COPY $WorkDir/GMJ_RHS_$i.csv $CurrDir/GMJ_RHS_$i.csv

    >>> COPY $WorkDir/GMJ_IVECW_$i.csv $CurrDir/GMJ_IVECW_$i.csv

    >>> COPY $WorkDir/GMJ_IVECX_$i.csv $CurrDir/GMJ_IVECX_$i.csv

    >>> COPY $WorkDir/GMJ_IVECC2_$i.csv $CurrDir/GMJ_IVECC2_$i.csv

    >>> COPY $WorkDir/GMJ_e2_$i.csv $CurrDir/GMJ_e2_$i.csv

  >>> END IF

>>> END FOREACH

-- ----------------------------------

--- Start Module: gateway at Thu Dec  5 10:53:29 2024 ---
 
()()()()()()()()()()()()()()()()()()()()()()()()()()()()()()()()()()()()()()()()()()()()()()()()()()

                                              &GATEWAY

                                   only a single process is used
                       available to each process: 2.0 GB of memory, 1 thread?
()()()()()()()()()()()()()()()()()()()()()()()()()()()()()()()()()()()()()()()()()()()()()()()()()()
 
 ###############################################################################
 ###############################################################################
 ###                                                                         ###
 ###                                                                         ###
 ###                                                                         ###
 ###    WARNING: EXPERT option is ON!                                        ###
 ###                                                                         ###
 ###                                                                         ###
 ###############################################################################
 ###############################################################################
 
++    Symmetry information:
      ---------------------
 
                    Character Table for C1 
 
                             E  
                    a        1  x, y, xy, Rz, z, xz, Ry, yz, Rx, I
--
 
 
++    Basis set information:
      ----------------------
 
 
      Basis set label: O.ANO-RCC...3S2P1D.
 
      Electronic valence basis set:
      ------------------
      Associated Effective Charge   8.000000 au
      Associated Actual Charge      8.000000 au
      Nuclear Model: Point charge
 
      Shell  nPrim  nBasis  Cartesian Spherical Contaminant
         s      14       3        X                  
         p       9       2        X                  
         d       4       1                 X         
 
 
      Basis set label: FE.ANO-RCC...5S4P2D1F.
 
      Electronic valence basis set:
      ------------------
      Associated Effective Charge  26.000000 au
      Associated Actual Charge     26.000000 au
      Nuclear Model: Point charge
 
      Shell  nPrim  nBasis  Cartesian Spherical Contaminant
         s      21       5        X                  
         p      15       4        X                  
         d      10       2                 X         
         f       6       1                 X         
--
 
 
++    Molecular structure info:
      -------------------------
 
                    ************************************************ 
                    **** Cartesian Coordinates / Bohr, Angstrom **** 
                    ************************************************ 
 
     Center  Label                x              y              z                     x              y              z
        1      O1               0.000000       0.000000       4.270025              0.000000       0.000000       2.259600
        2      FE2              0.000000       0.000000      -1.246463              0.000000       0.000000      -0.659600
--
 
 
            Nuclear Potential Energy             37.70514518 au
 
 ###############################################################################
 ###############################################################################
 ###                                                                         ###
 ###                                                                         ###
 ###    There were warnings during the execution                             ###
 ###    Please, check the output with care!                                  ###
 ###                                                                         ###
 ###                                                                         ###
 ###############################################################################
 ###############################################################################
--- Stop Module: gateway at Thu Dec  5 10:53:30 2024 /rc=_RC_ALL_IS_WELL_ ---
*** files: xmldump
    saved to directory /home/grierjones/DDCASPT2/iron_oxo_DDCASPT2/cluster/2.92

--- Start Module: seward at Thu Dec  5 10:53:30 2024 ---
 
()()()()()()()()()()()()()()()()()()()()()()()()()()()()()()()()()()()()()()()()()()()()()()()()()()

                                              &SEWARD

                                   only a single process is used
                       available to each process: 2.0 GB of memory, 1 thread?
()()()()()()()()()()()()()()()()()()()()()()()()()()()()()()()()()()()()()()()()()()()()()()()()()()
 
 ###############################################################################
 ###############################################################################
 ###                                                                         ###
 ###                                                                         ###
 ###                                                                         ###
 ###    WARNING: EXPERT option is ON!                                        ###
 ###                                                                         ###
 ###                                                                         ###
 ###############################################################################
 ###############################################################################
               SEWARD will generate:
                  Multipole Moment integrals up to order  2
                  Kinetic Energy integrals
                  Nuclear Attraction integrals (point charge)
                  One-Electron Hamiltonian integrals
                  Velocity integrals
                  Relativistic Douglas-Kroll-Hess integrals:
                    - Parametrization         : EXP
                    - DKH order of Hamiltonian: 2
                    - DKH order of Properties : 0
                         - multipole moment operators
                         - electric potential operators
                         - contact operators
                  Atomic mean-field integrals
                  Two-Electron Repulsion integrals
 
                   Integrals are discarded if absolute value <: 0.10E-13
                   Integral cutoff threshold is set to       <: 0.10E-15
 
            Nuclear Potential Energy             37.70514518 au
 
 
      Basis set specifications :
      Symmetry species         a  
      Basis functions           48
 
 
  Input file to MOLDEN was generated!
 
 ###############################################################################
 ###############################################################################
 ###                                                                         ###
 ###                                                                         ###
 ###    There were warnings during the execution                             ###
 ###    Please, check the output with care!                                  ###
 ###                                                                         ###
 ###                                                                         ###
 ###############################################################################
 ###############################################################################
--- Stop Module: seward at Thu Dec  5 10:53:31 2024 /rc=_RC_ALL_IS_WELL_ ---
*** files: 2.92.GssOrb 2.92.guessorb.h5 2.92.guessorb.molden xmldump
    saved to directory /home/grierjones/DDCASPT2/iron_oxo_DDCASPT2/cluster/2.92
--- Module seward spent 1 second ---

*** symbolic link created: INPORB -> 2.92.GssOrb
--- Start Module: scf at Thu Dec  5 10:53:31 2024 ---
 
()()()()()()()()()()()()()()()()()()()()()()()()()()()()()()()()()()()()()()()()()()()()()()()()()()

                                                &SCF

                                   only a single process is used
                       available to each process: 2.0 GB of memory, 1 thread?
()()()()()()()()()()()()()()()()()()()()()()()()()()()()()()()()()()()()()()()()()()()()()()()()()()
 
 *** Possible bug in opening file
 *** isFreeUnit resets the unit number
++    Input section:
      --------------
 
      Header of the integral files:
      
       Integrals generated by seward 4.2.0  , Thu Dec  5 10:53:30 2024
 
 
      Cartesian coordinates in Angstrom:
      -----------------------------------------------------
      No.  Label        X            Y            Z        
      -----------------------------------------------------
       1   O1         0.00000000   0.00000000   2.25960000
       2   FE2        0.00000000   0.00000000  -0.65960000
      -----------------------------------------------------
      Nuclear repulsion energy =   37.70514518
--
 
++    Orbital specifications:
      -----------------------
 
      Symmetry species               1
                                     a
      Frozen orbitals                0
      Start temperature = 0.500
      End temperature   = 0.010
      Temperature Factor= 0.460
      Deleted orbitals               0
      Total number of orbitals      48
      Number of basis functions     48
--
 
      Molecular charge                           2.000
 
++    Optimization specifications:
      ----------------------------
 
      SCF Algorithm: Conventional USCF
      D(i)-D(i-1) density differences are used
      Number of density matrices in core                5
      Maximum number of NDDO SCF iterations           400
      Maximum number of HF SCF iterations             400
      Threshold for SCF energy change            0.10E-08
      Threshold for density matrix               0.10E-03
      Threshold for Fock matrix                  0.15E-03
      Threshold for linear dependence            0.10E-08
      Threshold at which DIIS is turned on       0.15E+00
      Threshold at which QNR/C2DIIS is turned on 0.75E-01
      Threshold for Norm(delta) (QNR/C2DIIS)     0.20E-04
      DIIS extrapolation of the SCF procedure
      All orbitals punched on: UHFORB
--
 
      Input vectors read from INPORB
      Orbital file label: *Guess orbitals
 
 
++ Convergence information
                               UHF SCF        iterations: Energy and convergence statistics
 
Iter     Tot. SCF        One-elec.       Two-elec.     Energy      Max Dij or  Max Fij      DNorm      TNorm      AccCon     Time
         Energy          Energy          Energy        Change      Delta Norm                                                in Sec.
 
 The total and one-electron energies are shifted by a value of      1000. a.u.
 
   1  -343.219071360  -906.712841826   525.788625282   0.00E+00    0.15E+00*   0.41E+00*    0.75E+01   0.18E+03   None         0.
   2  -343.503870786  -904.443857543   523.234841574  -0.28E+00*   0.94E-01*   0.18E+00*    0.11E+01   0.18E+03   EDIIS        0.
   3  -342.395265709  -945.891046947   565.790636055   0.11E+01*   0.84E-01*   0.21E+00*    0.16E+01   0.19E+03   EDIIS        0.
   4  -342.772832490  -888.510607288   508.032629615  -0.38E+00*   0.14E+00*   0.12E+00*    0.18E+01   0.18E+03   EDIIS        0.
   5  -344.561082373  -919.558961746   537.292734190  -0.18E+01*   0.41E+00*   0.14E+00*    0.14E+01   0.18E+03   EDIIS        0.
   6  -344.710807256  -907.788226427   525.372273988  -0.15E+00*   0.45E+00*   0.16E+00*    0.17E+01   0.18E+03   EDIIS        0.
   7  -344.711634336  -926.616980184   544.200200664  -0.83E-03*   0.12E+00*   0.11E+00*    0.13E+01   0.19E+03   EDIIS        0.
   8  -344.914941529  -913.552958298   530.932871585  -0.20E+00*   0.34E+00*   0.67E-01*    0.60E+00   0.18E+03   EDIIS        0.
   9  -344.894739654  -920.693770547   538.093885709   0.20E-01*   0.80E-01*   0.44E-01*    0.55E+00   0.18E+03   EDIIS        0.
  10  -344.923345042  -917.079818974   534.451328748  -0.29E-01*   0.12E+00*   0.33E-01*    0.15E+00   0.18E+03   EDIIS        0.
  11  -345.087765384  -914.326100214   531.533189647  -0.16E+00*   0.43E+00*   0.10E+00*    0.10E+01   0.18E+03   EDIIS        0.
  12  -345.093392038  -920.577385722   537.778848501  -0.56E-02*   0.58E+00*   0.91E-01*    0.57E+00   0.18E+03   EDIIS        0.
 
       Fermi aufbau procedure completed!
      nOcc(alpha)=   18
      nOcc(beta) =   14
 
  13  -345.140294745  -912.699923726   529.854483798  -0.47E-01*   0.57E+00*   0.16E+00*    0.67E+00   0.18E+03   EDIIS        0.
  14  -345.262519180  -918.037955107   535.070290743  -0.12E+00*   0.62E+00*   0.16E+00*    0.94E+00   0.18E+03   EDIIS        0.
  15  -345.346241407  -912.657747997   529.606361407  -0.84E-01*   0.18E+00*   0.65E-01*    0.90E+00   0.18E+03   EDIIS        0.
  16  -345.370585796  -916.553545759   533.477814780  -0.24E-01*   0.66E-01*   0.39E-01*    0.44E+00   0.18E+03   EDIIS        0.
  17  -345.375570008  -914.088032917   531.007317726  -0.50E-02*   0.28E-01*   0.25E-01*    0.20E+00   0.18E+03   c2DIIS       0.
  18  -345.376907053  -915.763491245   532.681439009  -0.13E-02*   0.48E-01*   0.16E-01*    0.12E+00   0.18E+03   QNRc2DIIS    0.
  19  -345.377443200  -914.679057004   531.596468620  -0.54E-03*   0.18E-01*   0.10E-01*    0.69E-01   0.18E+03   QNRc2DIIS    0.
  20  -345.377719733  -915.084051021   532.001186105  -0.28E-03*   0.15E-01*   0.18E-02*    0.26E-01   0.18E+03   QNRc2DIIS    0.
  21  -345.377741959  -915.100278102   532.017390960  -0.22E-04*   0.28E-02*   0.45E-03*    0.19E-01   0.18E+03   QNRc2DIIS    0.
  22  -345.377743338  -915.102390200   532.019501679  -0.14E-05*   0.57E-02*   0.32E-03*    0.35E-02   0.18E+03   QNRc2DIIS    0.
  23  -345.377745030  -915.100739549   532.017849336  -0.17E-05*   0.48E-03*   0.59E-04     0.70E-02   0.18E+03   QNRc2DIIS    0.
  24  -345.377745056  -915.101080707   532.018190467  -0.26E-07*   0.87E-04*   0.18E-04     0.61E-03   0.18E+03   QNRc2DIIS    0.
  25  -345.377745058  -915.100928269   532.018038028  -0.17E-08*   0.18E-04    0.36E-05     0.13E-03   0.18E+03   QNRc2DIIS    0.
  26  -345.377745058  -915.100921813   532.018031572  -0.76E-10    0.13E-04    0.16E-05     0.26E-04   0.18E+03   QNRc2DIIS    0.
 
       Convergence after 26 Macro Iterations
--
 
 *****************************************************************************************************************************
 *                                                                                                                           *
 *                                             SCF/KS-DFT Program, Final results                                             *
 *                                                                                                                           *
 *                                                                                                                           *
 *                                                                                                                           *
 *                                                       Final Results                                                       *
 *                                                                                                                           *
 *****************************************************************************************************************************
 
::    Total SCF energy                              -1345.3777450577
      One-electron energy                           -1915.1009218127
      Two-electron energy                             532.0180315717
      Nuclear repulsion energy                         37.7051451834
      Kinetic energy (interpolated)                  1399.8988036198
      Virial theorem                                    0.9610535716
      Total spin, S(S+1)                                7.0122093619
      Total spin, S                                     2.1948486714
      Max non-diagonal density matrix element           0.0000085301
      Max non-diagonal Fock matrix element              0.0000017159
 
 
      All orbitals with orbital energies smaller than  E(LUMO)+0.5 are printed
 
++    Molecular orbitals:
      -------------------
 
      Title: UHF orbitals (alpha)

      Molecular orbitals for symmetry species 1: a  
 
          Orbital            1         2         3         4         5         6         7         8         9        10    
          Energy         -264.3041  -33.1235  -28.2176  -28.1827  -28.1825  -21.0818   -5.0774   -3.6808   -3.6046   -3.6040
          Occ. No.          1.0000    1.0000    1.0000    1.0000    1.0000    1.0000    1.0000    1.0000    1.0000    1.0000
 
        1 O1     1s         0.0000   -0.0000    0.0000   -0.0000   -0.0000    1.0000   -0.0000    0.0000    0.0000    0.0001
        2 O1     2s         0.0000   -0.0000   -0.0000   -0.0000   -0.0001   -0.0003   -0.0001    0.0000    0.0000    0.0011
        3 O1     3s        -0.0000   -0.0000   -0.0000   -0.0000   -0.0001   -0.0006   -0.0002    0.0000    0.0000    0.0010
        4 O1     2px       -0.0000    0.0000    0.0000   -0.0000    0.0000    0.0000   -0.0000   -0.0000    0.0002   -0.0000
        5 O1     3px        0.0000   -0.0000    0.0000   -0.0001    0.0000   -0.0000    0.0000   -0.0000    0.0005   -0.0000
        6 O1     2py       -0.0000   -0.0000   -0.0000   -0.0000    0.0000   -0.0000    0.0000    0.0003    0.0000   -0.0000
        7 O1     3py       -0.0000    0.0000   -0.0001   -0.0000    0.0000    0.0000    0.0000    0.0006    0.0000   -0.0000
        8 O1     2pz       -0.0000    0.0000   -0.0000    0.0000    0.0000   -0.0002   -0.0000    0.0000   -0.0000   -0.0011
        9 O1     3pz       -0.0000   -0.0000    0.0000    0.0000    0.0000    0.0002   -0.0000   -0.0000   -0.0000   -0.0008
       10 O1     3d2-      -0.0000   -0.0000    0.0000    0.0000    0.0000    0.0000   -0.0000   -0.0000    0.0000    0.0000
       11 O1     3d1-      -0.0000    0.0000    0.0000    0.0000   -0.0000    0.0000    0.0000   -0.0002   -0.0000   -0.0000
       12 O1     3d0       -0.0000    0.0000   -0.0000    0.0000    0.0000    0.0003   -0.0000    0.0000    0.0000    0.0003
       13 O1     3d1+      -0.0000    0.0000   -0.0000    0.0000   -0.0000    0.0000   -0.0000    0.0000   -0.0002    0.0000
       14 O1     3d2+      -0.0000   -0.0000   -0.0000    0.0000    0.0000    0.0012   -0.0000    0.0000    0.0000    0.0000
       15 FE2    1s         1.0000   -0.0000   -0.0000    0.0000    0.0000    0.0000   -0.0000    0.0000   -0.0000   -0.0000
       16 FE2    2s         0.0000    1.0000   -0.0000    0.0000    0.0002    0.0000   -0.0030   -0.0000   -0.0000   -0.0000
       17 FE2    3s         0.0000    0.0030    0.0000    0.0000    0.0000    0.0000    0.9999   -0.0000    0.0000    0.0013
       18 FE2    4s         0.0000   -0.0002    0.0000    0.0000    0.0001    0.0000    0.0005   -0.0000   -0.0000   -0.0011
       19 FE2    5s         0.0000    0.0003   -0.0000    0.0000    0.0000   -0.0000    0.0006   -0.0000    0.0000    0.0002
       20 FE2    2px       -0.0000    0.0000   -0.0261    0.9997   -0.0000   -0.0000    0.0000    0.0001   -0.0026    0.0000
       21 FE2    3px        0.0000   -0.0000   -0.0001    0.0026   -0.0000    0.0000   -0.0000   -0.0261    0.9996   -0.0000
       22 FE2    4px       -0.0000    0.0000    0.0000   -0.0003    0.0000    0.0000   -0.0000    0.0003   -0.0073    0.0000
       23 FE2    5px       -0.0000    0.0000   -0.0000    0.0009   -0.0000    0.0000   -0.0000   -0.0001    0.0032   -0.0000
       24 FE2    2py        0.0000    0.0000    0.9997    0.0261   -0.0000   -0.0000   -0.0000   -0.0031   -0.0001    0.0000
       25 FE2    3py       -0.0000    0.0000    0.0031    0.0001   -0.0000   -0.0000    0.0000    0.9996    0.0261   -0.0000
       26 FE2    4py       -0.0000   -0.0000   -0.0005   -0.0000    0.0000    0.0000    0.0000   -0.0098   -0.0002    0.0000
       27 FE2    5py       -0.0000    0.0000    0.0013    0.0000   -0.0000   -0.0000    0.0000    0.0051    0.0001   -0.0000
       28 FE2    2pz       -0.0000   -0.0002   -0.0000    0.0000    1.0000    0.0000    0.0000   -0.0000   -0.0000   -0.0026
       29 FE2    3pz        0.0000   -0.0000   -0.0000    0.0000    0.0026    0.0000   -0.0014   -0.0000    0.0000    0.9999
       30 FE2    4pz       -0.0000    0.0000    0.0000   -0.0000   -0.0003    0.0000   -0.0001    0.0000   -0.0000   -0.0083
       31 FE2    5pz        0.0000    0.0000   -0.0000    0.0000    0.0010   -0.0000    0.0003   -0.0000    0.0000    0.0033
       32 FE2    3d2-      -0.0000   -0.0000   -0.0000    0.0000   -0.0000   -0.0000   -0.0006   -0.0000   -0.0000   -0.0000
       33 FE2    4d2-       0.0000    0.0000    0.0000    0.0000    0.0000   -0.0000    0.0002   -0.0000    0.0000    0.0000
       34 FE2    3d1-      -0.0000   -0.0000   -0.0000   -0.0000    0.0000   -0.0000    0.0000   -0.0009   -0.0000    0.0000
       35 FE2    4d1-      -0.0000    0.0000    0.0000    0.0000   -0.0000    0.0000    0.0000   -0.0001   -0.0000   -0.0000
       36 FE2    3d0       -0.0000   -0.0003   -0.0000   -0.0000   -0.0000    0.0000   -0.0068    0.0000   -0.0000   -0.0011
       37 FE2    4d0        0.0000    0.0002   -0.0000    0.0000    0.0001    0.0000    0.0023    0.0000   -0.0000   -0.0007
       38 FE2    3d1+      -0.0000    0.0000    0.0000   -0.0000    0.0000    0.0000    0.0000    0.0000   -0.0009    0.0000
       39 FE2    4d1+      -0.0000   -0.0000   -0.0000    0.0000   -0.0000    0.0000   -0.0000    0.0000   -0.0001    0.0000
       40 FE2    3d2+      -0.0000   -0.0005   -0.0000   -0.0000   -0.0000   -0.0000   -0.0117   -0.0000   -0.0000   -0.0001
       41 FE2    4d2+       0.0000    0.0004   -0.0000    0.0000    0.0000   -0.0000    0.0042    0.0000    0.0000    0.0000
       42 FE2    4f3-      -0.0000   -0.0000   -0.0002   -0.0000    0.0000   -0.0000    0.0000   -0.0048   -0.0004    0.0000
       43 FE2    4f2-       0.0000   -0.0000    0.0000   -0.0000   -0.0000   -0.0000    0.0000    0.0000   -0.0000   -0.0004
       44 FE2    4f1-      -0.0000    0.0000   -0.0001   -0.0000    0.0000    0.0000    0.0000   -0.0039   -0.0001    0.0000
       45 FE2    4f0       -0.0000    0.0000   -0.0000   -0.0000   -0.0000   -0.0000   -0.0000   -0.0000   -0.0000   -0.0012
       46 FE2    4f1+      -0.0000    0.0000    0.0000   -0.0002    0.0000    0.0000   -0.0000    0.0001   -0.0048    0.0000
       47 FE2    4f2+       0.0000   -0.0000    0.0000   -0.0000   -0.0002   -0.0000    0.0000   -0.0000   -0.0000   -0.0067
       48 FE2    4f3+      -0.0000   -0.0000    0.0000   -0.0002    0.0000   -0.0000    0.0000    0.0004   -0.0049    0.0000
 
          Orbital           11        12        13        14        15        16        17        18        19        20    
          Energy           -1.6431   -1.3604   -1.3511   -1.3501   -1.3195   -1.2707   -1.0587   -0.9517   -0.5444   -0.3894
          Occ. No.          1.0000    1.0000    1.0000    1.0000    1.0000    1.0000    1.0000    1.0000    0.0000    0.0000
 
        1 O1     1s         0.0002   -0.0006    0.0000    0.0000   -0.0013    0.0000    0.0000    0.0020   -0.0047   -0.0000
        2 O1     2s         0.9977   -0.0187    0.0000    0.0000   -0.0325    0.0000    0.0000    0.0613   -0.0703   -0.0000
        3 O1     3s        -0.0089   -0.0039   -0.0000    0.0000   -0.0073    0.0000   -0.0000   -0.0201   -0.0123   -0.0000
        4 O1     2px        0.0000   -0.0000   -0.0000   -0.0000   -0.0000    0.0077    0.9984   -0.0000    0.0000   -0.0014
        5 O1     3px       -0.0000   -0.0000    0.0000    0.0002    0.0000   -0.0077   -0.0458    0.0000    0.0000   -0.0005
        6 O1     2py        0.0000   -0.0000   -0.0000   -0.0023   -0.0000    0.0000    0.0112    0.0000    0.0000    0.1844
        7 O1     3py       -0.0000    0.0000   -0.0000   -0.0058    0.0000   -0.0002   -0.0005    0.0000    0.0000    0.0420
        8 O1     2pz       -0.0396   -0.0058    0.0000    0.0000   -0.0134    0.0000    0.0000    0.9680    0.1967   -0.0000
        9 O1     3pz       -0.0126    0.0052    0.0000   -0.0000    0.0096   -0.0000   -0.0000    0.0064    0.0195   -0.0000
       10 O1     3d2-       0.0010   -0.0000   -0.0001    0.0000   -0.0000    0.0000   -0.0000    0.0001   -0.0000    0.0000
       11 O1     3d1-       0.0000   -0.0000    0.0000    0.0007   -0.0000    0.0000   -0.0001   -0.0000   -0.0000   -0.0061
       12 O1     3d0        0.0052   -0.0003    0.0000    0.0000   -0.0003   -0.0000   -0.0000   -0.0177    0.0004    0.0000
       13 O1     3d1+       0.0000   -0.0000   -0.0000   -0.0000   -0.0000    0.0005   -0.0129    0.0000   -0.0000    0.0001
       14 O1     3d2+       0.0444   -0.0008    0.0000    0.0000   -0.0010   -0.0000    0.0000    0.0031   -0.0018   -0.0000
       15 FE2    1s        -0.0001    0.0000    0.0000    0.0000    0.0000   -0.0000    0.0000    0.0003    0.0001   -0.0000
       16 FE2    2s        -0.0005    0.0006    0.0000   -0.0000    0.0001   -0.0000    0.0000    0.0022    0.0011   -0.0000
       17 FE2    3s        -0.0031    0.0143    0.0000   -0.0000    0.0009   -0.0000    0.0000    0.0130    0.0040   -0.0000
       18 FE2    4s         0.0013   -0.0007   -0.0000    0.0000    0.0030   -0.0000   -0.0000   -0.0914    0.9846   -0.0000
       19 FE2    5s        -0.0051    0.0032   -0.0000   -0.0000    0.0037    0.0000    0.0000    0.0284   -0.2223    0.0000
       20 FE2    2px        0.0000   -0.0000   -0.0000   -0.0000   -0.0000    0.0000   -0.0001    0.0000    0.0000   -0.0000
       21 FE2    3px        0.0000    0.0000    0.0000   -0.0000   -0.0000    0.0009   -0.0016    0.0000   -0.0000   -0.0002
       22 FE2    4px        0.0000   -0.0000    0.0000   -0.0000    0.0000    0.0002    0.0041   -0.0000   -0.0000   -0.0213
       23 FE2    5px        0.0000    0.0000    0.0000   -0.0000    0.0000    0.0011   -0.0005    0.0000   -0.0000   -0.0015
       24 FE2    2py        0.0000   -0.0000    0.0000    0.0000   -0.0000    0.0000   -0.0000    0.0000    0.0000    0.0003
       25 FE2    3py       -0.0000    0.0000    0.0000    0.0009   -0.0000    0.0000   -0.0000   -0.0000   -0.0000    0.0080
       26 FE2    4py       -0.0000   -0.0000   -0.0000    0.0000    0.0000    0.0000    0.0000   -0.0000    0.0000    0.9577
       27 FE2    5py       -0.0000    0.0000    0.0000    0.0011   -0.0000    0.0000   -0.0000   -0.0000    0.0000    0.0685
       28 FE2    2pz       -0.0001    0.0000    0.0000   -0.0000    0.0000   -0.0000    0.0000    0.0004    0.0001   -0.0000
       29 FE2    3pz       -0.0037    0.0008    0.0000   -0.0000    0.0012    0.0000    0.0000    0.0106    0.0034    0.0000
       30 FE2    4pz        0.0025    0.0026   -0.0000    0.0000    0.0047   -0.0000   -0.0000   -0.0691   -0.0604    0.0000
       31 FE2    5pz       -0.0013    0.0014   -0.0000   -0.0000    0.0026   -0.0000   -0.0000   -0.0032   -0.0036    0.0000
       32 FE2    3d2-       0.0000    0.0452    0.9960   -0.0000   -0.0257   -0.0000    0.0000   -0.0001    0.0000    0.0000
       33 FE2    4d2-      -0.0000   -0.0034   -0.0724    0.0000    0.0017    0.0000   -0.0000    0.0001   -0.0007   -0.0000
       34 FE2    3d1-      -0.0000    0.0000    0.0000    0.9973    0.0000    0.0261   -0.0003   -0.0000   -0.0000   -0.0014
       35 FE2    4d1-      -0.0000   -0.0000   -0.0000   -0.0720   -0.0000   -0.0014    0.0000    0.0000    0.0000    0.0025
       36 FE2    3d0        0.0146    0.4926    0.0000   -0.0000    0.8681   -0.0000    0.0000    0.0418    0.0126   -0.0000
       37 FE2    4d0        0.0009   -0.0357   -0.0000    0.0000   -0.0550    0.0000   -0.0000   -0.0202   -0.0149   -0.0000
       38 FE2    3d1+       0.0000    0.0000   -0.0000   -0.0260    0.0000    0.9984   -0.0191    0.0000    0.0000   -0.0000
       39 FE2    4d1+       0.0000   -0.0000    0.0000    0.0019   -0.0000   -0.0522    0.0037   -0.0000   -0.0000   -0.0000
       40 FE2    3d2+       0.0010    0.8659   -0.0520    0.0000   -0.4920    0.0000   -0.0000   -0.0024    0.0007    0.0000
       41 FE2    4d2+      -0.0002   -0.0646    0.0038   -0.0000    0.0323   -0.0000    0.0000    0.0012   -0.0142   -0.0000
       42 FE2    4f3-      -0.0000    0.0000   -0.0000   -0.0000   -0.0000   -0.0000    0.0000    0.0000    0.0000   -0.0002
       43 FE2    4f2-       0.0000   -0.0000   -0.0006    0.0000    0.0000   -0.0000   -0.0000   -0.0000   -0.0000   -0.0000
       44 FE2    4f1-      -0.0000    0.0000   -0.0000   -0.0008    0.0000   -0.0000    0.0000    0.0000    0.0000   -0.0000
       45 FE2    4f0        0.0004   -0.0004    0.0000    0.0000   -0.0007    0.0000   -0.0000   -0.0017   -0.0005    0.0000
       46 FE2    4f1+       0.0000   -0.0000    0.0000    0.0000   -0.0000   -0.0008    0.0005   -0.0000   -0.0000    0.0000
       47 FE2    4f2+       0.0000   -0.0005    0.0000   -0.0000    0.0003   -0.0000   -0.0000   -0.0000   -0.0000   -0.0000
       48 FE2    4f3+       0.0000   -0.0000   -0.0000    0.0000    0.0000   -0.0000    0.0000    0.0000    0.0000    0.0000
 
          Orbital           21        22        23        24    
          Energy           -0.3723   -0.3475   -0.3008   -0.2132
          Occ. No.          0.0000    0.0000    0.0000    0.0000
 
        1 O1     1s         0.0000   -0.0168    0.0000   -0.0191
        2 O1     2s         0.0000   -0.1937    0.0000   -0.1758
        3 O1     3s         0.0000   -0.0353    0.0000   -0.0507
        4 O1     2px       -0.0610    0.0000   -0.0106    0.0000
        5 O1     3px        0.0014   -0.0000   -0.0029    0.0000
        6 O1     2py        0.0019    0.0000    0.9493    0.0000
        7 O1     3py        0.0007    0.0000    0.2581    0.0000
        8 O1     2pz        0.0000    0.2496   -0.0000    0.0239
        9 O1     3pz        0.0000    0.0285   -0.0000    0.0258
       10 O1     3d2-      -0.0000   -0.0001    0.0000   -0.0000
       11 O1     3d1-      -0.0001   -0.0000   -0.0124   -0.0000
       12 O1     3d0       -0.0000    0.0036    0.0000   -0.0046
       13 O1     3d1+      -0.0041   -0.0000    0.0001   -0.0000
       14 O1     3d2+      -0.0000   -0.0040   -0.0000   -0.0011
       15 FE2    1s         0.0000    0.0002   -0.0000    0.0001
       16 FE2    2s         0.0000    0.0011   -0.0000    0.0004
       17 FE2    3s         0.0000    0.0063   -0.0000    0.0027
       18 FE2    4s         0.0000    0.0999   -0.0000    0.2650
       19 FE2    5s         0.0000   -0.0522    0.0000    0.9899
       20 FE2    2px        0.0003   -0.0000    0.0000    0.0000
       21 FE2    3px        0.0070    0.0000    0.0001   -0.0000
       22 FE2    4px        0.9984    0.0000    0.0027   -0.0000
       23 FE2    5px        0.0776    0.0000    0.0001   -0.0000
       24 FE2    2py        0.0000    0.0000   -0.0004    0.0000
       25 FE2    3py        0.0001   -0.0000   -0.0082   -0.0000
       26 FE2    4py        0.0211   -0.0000   -0.3072   -0.0000
       27 FE2    5py        0.0017   -0.0000   -0.0199    0.0000
       28 FE2    2pz        0.0000    0.0005   -0.0000    0.0001
       29 FE2    3pz        0.0000    0.0125   -0.0000    0.0031
       30 FE2    4pz       -0.0000    1.0384   -0.0000    0.0940
       31 FE2    5pz       -0.0000    0.0795   -0.0000    0.0055
       32 FE2    3d2-       0.0000   -0.0000   -0.0000    0.0000
       33 FE2    4d2-       0.0000   -0.0001    0.0000    0.0005
       34 FE2    3d1-      -0.0000   -0.0000   -0.0135   -0.0000
       35 FE2    4d1-       0.0000    0.0000    0.0378    0.0000
       36 FE2    3d0        0.0000    0.0132   -0.0000    0.0036
       37 FE2    4d0        0.0000   -0.0277    0.0000   -0.0093
       38 FE2    3d1+       0.0019    0.0000    0.0001   -0.0000
       39 FE2    4d1+      -0.0033   -0.0000   -0.0005   -0.0000
       40 FE2    3d2+       0.0000   -0.0006    0.0000    0.0000
       41 FE2    4d2+      -0.0000   -0.0023    0.0000    0.0104
       42 FE2    4f3-      -0.0000    0.0000    0.0001   -0.0000
       43 FE2    4f2-       0.0000   -0.0000   -0.0000   -0.0000
       44 FE2    4f1-       0.0000    0.0000    0.0020    0.0000
       45 FE2    4f0       -0.0000   -0.0016    0.0000   -0.0006
       46 FE2    4f1+      -0.0001   -0.0000   -0.0000    0.0000
       47 FE2    4f2+      -0.0000   -0.0000    0.0000   -0.0000
       48 FE2    4f3+      -0.0002   -0.0000   -0.0000   -0.0000
--
 
 
  Input file to MOLDEN was generated!
 
 
++    Static properties:
      ------------------
 
 
      LoProp Charges per center
 

                   O1       FE2   
      Nuclear      8.0000  26.0000
      Electronic  -7.9400 -24.0600
 
      Total        0.0600   1.9400
--
 
 
      All orbitals with orbital energies smaller than  E(LUMO)+0.5 are printed
 
++    Molecular orbitals:
      -------------------
 
      Title: UHF orbitals (beta)

      Molecular orbitals for symmetry species 1: a  
 
          Orbital            1         2         3         4         5         6         7         8         9        10    
          Energy         -264.3015  -32.9977  -28.0692  -28.0686  -28.0685  -21.0821   -4.7236   -3.2199   -3.2186   -3.1683
          Occ. No.          1.0000    1.0000    1.0000    1.0000    1.0000    1.0000    1.0000    1.0000    1.0000    1.0000
 
        1 O1     1s         0.0000   -0.0000   -0.0000    0.0000    0.0000    1.0000    0.0000   -0.0000    0.0001    0.0000
        2 O1     2s         0.0000   -0.0000   -0.0000    0.0000    0.0001   -0.0002    0.0000   -0.0000    0.0013    0.0000
        3 O1     3s         0.0000   -0.0000   -0.0000    0.0000    0.0001   -0.0006   -0.0001   -0.0000    0.0008    0.0000
        4 O1     2px       -0.0000    0.0000   -0.0000    0.0000   -0.0000    0.0000   -0.0000    0.0001    0.0000   -0.0000
        5 O1     3px        0.0000   -0.0000   -0.0000    0.0000   -0.0000   -0.0000    0.0000    0.0003    0.0000   -0.0000
        6 O1     2py       -0.0000   -0.0000    0.0000    0.0000    0.0000   -0.0000    0.0000    0.0000    0.0000    0.0003
        7 O1     3py       -0.0000    0.0000    0.0001    0.0000    0.0000    0.0000    0.0000    0.0000   -0.0000    0.0006
        8 O1     2pz       -0.0000    0.0000    0.0000   -0.0000   -0.0000   -0.0002    0.0002    0.0000   -0.0012    0.0000
        9 O1     3pz       -0.0000    0.0001    0.0000   -0.0000   -0.0000    0.0002    0.0005    0.0000   -0.0002   -0.0000
       10 O1     3d2-      -0.0000   -0.0000    0.0000    0.0000   -0.0000   -0.0000   -0.0000    0.0000   -0.0000   -0.0000
       11 O1     3d1-      -0.0000    0.0000   -0.0000    0.0000   -0.0000   -0.0000    0.0000   -0.0000   -0.0000   -0.0001
       12 O1     3d0       -0.0000   -0.0000   -0.0000    0.0000   -0.0000    0.0003   -0.0002   -0.0000    0.0002    0.0000
       13 O1     3d1+      -0.0000    0.0000    0.0000    0.0000   -0.0000   -0.0000   -0.0000   -0.0000   -0.0000    0.0000
       14 O1     3d2+      -0.0000   -0.0000    0.0000   -0.0000   -0.0000   -0.0012   -0.0000    0.0000   -0.0000    0.0000
       15 FE2    1s         1.0000    0.0000   -0.0000    0.0000    0.0000    0.0000    0.0000    0.0000   -0.0000    0.0000
       16 FE2    2s        -0.0000    1.0000   -0.0000    0.0000    0.0002    0.0000    0.0005   -0.0000    0.0000   -0.0000
       17 FE2    3s         0.0000   -0.0005    0.0000   -0.0000   -0.0000    0.0000    1.0000   -0.0000    0.0020   -0.0000
       18 FE2    4s         0.0000    0.0002    0.0000   -0.0000   -0.0001    0.0000    0.0035    0.0000   -0.0007   -0.0000
       19 FE2    5s         0.0000   -0.0002    0.0000   -0.0000   -0.0000   -0.0000   -0.0022   -0.0000    0.0001   -0.0000
       20 FE2    2px       -0.0000    0.0000   -0.0259    0.9997   -0.0000   -0.0000    0.0000    0.0019    0.0000   -0.0001
       21 FE2    3px       -0.0000   -0.0000    0.0001   -0.0019    0.0000   -0.0000   -0.0000    0.9995    0.0000   -0.0261
       22 FE2    4px       -0.0000    0.0000   -0.0000    0.0003   -0.0000    0.0000   -0.0000    0.0005    0.0000    0.0000
       23 FE2    5px       -0.0000    0.0000    0.0000   -0.0008    0.0000    0.0000   -0.0000   -0.0051   -0.0000    0.0001
       24 FE2    2py        0.0000    0.0000    0.9997    0.0259    0.0000   -0.0000   -0.0000    0.0000   -0.0000    0.0029
       25 FE2    3py       -0.0000    0.0000   -0.0029   -0.0000   -0.0000   -0.0000    0.0000    0.0261    0.0000    0.9996
       26 FE2    4py       -0.0000   -0.0000    0.0004    0.0000    0.0000   -0.0000    0.0000    0.0000   -0.0000   -0.0014
       27 FE2    5py       -0.0000    0.0000   -0.0010   -0.0000   -0.0000   -0.0000    0.0000   -0.0001   -0.0000   -0.0046
       28 FE2    2pz       -0.0000   -0.0002   -0.0000    0.0000    1.0000   -0.0000    0.0000   -0.0000    0.0019   -0.0000
       29 FE2    3pz        0.0000   -0.0000    0.0000   -0.0000   -0.0019    0.0000   -0.0020   -0.0000    0.9998    0.0000
       30 FE2    4pz       -0.0000    0.0000   -0.0000    0.0000    0.0002    0.0000    0.0001   -0.0000    0.0001    0.0000
       31 FE2    5pz        0.0000   -0.0000    0.0000   -0.0000   -0.0008   -0.0000    0.0002    0.0000   -0.0052   -0.0000
       32 FE2    3d2-       0.0000    0.0000    0.0000    0.0000    0.0000    0.0000    0.0000   -0.0000    0.0000   -0.0000
       33 FE2    4d2-       0.0000    0.0000    0.0000    0.0000   -0.0000    0.0000    0.0000    0.0000   -0.0000   -0.0000
       34 FE2    3d1-      -0.0000   -0.0000   -0.0000   -0.0000   -0.0000   -0.0000   -0.0000   -0.0000   -0.0000   -0.0011
       35 FE2    4d1-      -0.0000    0.0000   -0.0000    0.0000   -0.0000   -0.0000    0.0000   -0.0000   -0.0000   -0.0001
       36 FE2    3d0        0.0000    0.0000    0.0000   -0.0000   -0.0000    0.0000    0.0002    0.0000   -0.0017    0.0000
       37 FE2    4d0       -0.0000    0.0000    0.0000   -0.0000   -0.0000    0.0000    0.0003    0.0000   -0.0001    0.0000
       38 FE2    3d1+      -0.0000   -0.0000    0.0000   -0.0000    0.0000    0.0000   -0.0000   -0.0010   -0.0000    0.0000
       39 FE2    4d1+      -0.0000    0.0000    0.0000    0.0000   -0.0000    0.0000   -0.0000   -0.0001   -0.0000    0.0000
       40 FE2    3d2+       0.0000    0.0000   -0.0000    0.0000    0.0000    0.0000    0.0008   -0.0000    0.0000   -0.0000
       41 FE2    4d2+       0.0000    0.0000    0.0000   -0.0000   -0.0000    0.0000    0.0003    0.0000   -0.0000    0.0000
       42 FE2    4f3-      -0.0000   -0.0000   -0.0001   -0.0000   -0.0000   -0.0000    0.0000   -0.0002   -0.0000   -0.0024
       43 FE2    4f2-      -0.0000    0.0000   -0.0000    0.0000    0.0000    0.0000    0.0000   -0.0000    0.0006    0.0000
       44 FE2    4f1-      -0.0000    0.0000   -0.0001    0.0000   -0.0000   -0.0000    0.0000    0.0004    0.0000   -0.0020
       45 FE2    4f0        0.0000   -0.0000    0.0000   -0.0000   -0.0006    0.0000   -0.0000    0.0000   -0.0114   -0.0000
       46 FE2    4f1+      -0.0000    0.0000    0.0000    0.0009   -0.0000   -0.0000   -0.0000    0.0151    0.0000    0.0001
       47 FE2    4f2+      -0.0000    0.0000   -0.0000    0.0000    0.0007    0.0000    0.0000   -0.0000    0.0106    0.0000
       48 FE2    4f3+      -0.0000   -0.0000    0.0000   -0.0001    0.0000   -0.0000    0.0000   -0.0024   -0.0000    0.0002
 
          Orbital           11        12        13        14        15        16        17        18        19        20    
          Energy           -1.6440   -1.1237   -1.0590   -0.9555   -0.5124   -0.3956   -0.3831   -0.3818   -0.3603   -0.3567
          Occ. No.          1.0000    1.0000    1.0000    1.0000    0.0000    0.0000    0.0000    0.0000    0.0000    0.0000
 
        1 O1     1s         0.0002    0.0000   -0.0000    0.0020   -0.0056   -0.0012   -0.0000   -0.0000    0.0000   -0.0000
        2 O1     2s         0.9980    0.0000   -0.0000    0.0620   -0.0767   -0.0158   -0.0000   -0.0000    0.0000   -0.0000
        3 O1     3s        -0.0090    0.0000    0.0000   -0.0197   -0.0141   -0.0003    0.0000   -0.0000    0.0000   -0.0000
        4 O1     2px        0.0000   -0.0030   -0.0112   -0.0000   -0.0000   -0.0000   -0.0000   -0.0022    0.3119    0.0066
        5 O1     3px        0.0000   -0.0091    0.0005   -0.0000   -0.0000   -0.0000   -0.0000   -0.0008    0.0812    0.0015
        6 O1     2py       -0.0000    0.0007    0.9982    0.0000    0.0000    0.0000   -0.0000   -0.0332    0.0046   -0.0636
        7 O1     3py        0.0000   -0.0003   -0.0459    0.0000    0.0000    0.0000    0.0000    0.0087    0.0009    0.0059
        8 O1     2pz       -0.0400   -0.0000   -0.0000    0.9711    0.1718    0.0364    0.0000   -0.0000    0.0000    0.0000
        9 O1     3pz       -0.0127   -0.0000    0.0000    0.0050    0.0150   -0.0018   -0.0000    0.0000    0.0000    0.0000
       10 O1     3d2-      -0.0010    0.0000   -0.0000   -0.0001    0.0000    0.0000    0.0007   -0.0000   -0.0000    0.0000
       11 O1     3d1-      -0.0000    0.0000   -0.0130   -0.0000    0.0000   -0.0000   -0.0000   -0.0033   -0.0000   -0.0046
       12 O1     3d0        0.0055    0.0000    0.0000   -0.0177    0.0010    0.0018   -0.0000    0.0000   -0.0000    0.0000
       13 O1     3d1+      -0.0000    0.0006    0.0001    0.0000    0.0000    0.0000    0.0000    0.0001   -0.0082   -0.0001
       14 O1     3d2+      -0.0445   -0.0000    0.0000   -0.0030    0.0018    0.0011   -0.0000    0.0000   -0.0000   -0.0000
       15 FE2    1s        -0.0001   -0.0000   -0.0000    0.0003    0.0001    0.0000   -0.0000   -0.0000    0.0000    0.0000
       16 FE2    2s        -0.0005   -0.0000   -0.0000    0.0023    0.0005    0.0000   -0.0000    0.0000    0.0000    0.0000
       17 FE2    3s        -0.0033   -0.0000   -0.0000    0.0131    0.0000   -0.0006   -0.0000    0.0000    0.0000    0.0000
       18 FE2    4s         0.0003   -0.0000    0.0000   -0.0720    0.9963    0.0278   -0.0000   -0.0000    0.0000   -0.0000
       19 FE2    5s        -0.0047    0.0000   -0.0000    0.0199   -0.1630   -0.0037    0.0000    0.0000   -0.0000    0.0000
       20 FE2    2px        0.0000    0.0000    0.0000    0.0000    0.0000    0.0000   -0.0000    0.0000   -0.0003   -0.0000
       21 FE2    3px        0.0000    0.0011    0.0000    0.0000    0.0000    0.0000    0.0000   -0.0000   -0.0019   -0.0001
       22 FE2    4px        0.0000    0.0002   -0.0000   -0.0000   -0.0000   -0.0000    0.0000   -0.0001    0.9036    0.0049
       23 FE2    5px        0.0000    0.0012    0.0000   -0.0000   -0.0000   -0.0000    0.0000   -0.0000    0.0870    0.0005
       24 FE2    2py        0.0000    0.0000   -0.0001    0.0000    0.0000    0.0000    0.0000    0.0000    0.0000   -0.0003
       25 FE2    3py       -0.0000    0.0000   -0.0017   -0.0000   -0.0000   -0.0000    0.0000    0.0009   -0.0001    0.0018
       26 FE2    4py       -0.0000    0.0000    0.0038   -0.0000    0.0000   -0.0000   -0.0000   -0.0702   -0.0078    0.9938
       27 FE2    5py       -0.0000    0.0000   -0.0003   -0.0000    0.0000   -0.0000   -0.0000   -0.0062   -0.0007    0.0953
       28 FE2    2pz       -0.0001   -0.0000   -0.0000    0.0005    0.0001    0.0000   -0.0000   -0.0000    0.0000    0.0000
       29 FE2    3pz       -0.0042   -0.0000   -0.0000    0.0119    0.0033    0.0011    0.0000   -0.0000    0.0000    0.0000
       30 FE2    4pz        0.0018   -0.0000    0.0000   -0.0614   -0.0655   -0.0840    0.0000    0.0000   -0.0000    0.0000
       31 FE2    5pz       -0.0011   -0.0000    0.0000   -0.0043   -0.0056   -0.0081    0.0000    0.0000   -0.0000    0.0000
       32 FE2    3d2-       0.0000   -0.0000    0.0000   -0.0001   -0.0008    0.0446    0.9741   -0.0000   -0.0000    0.0000
       33 FE2    4d2-      -0.0000    0.0000    0.0000    0.0000   -0.0005    0.0098    0.2198   -0.0000   -0.0000    0.0000
       34 FE2    3d1-      -0.0000    0.0261    0.0067    0.0000    0.0000    0.0000    0.0000    0.9725    0.0008    0.0687
       35 FE2    4d1-      -0.0000   -0.0000    0.0033    0.0000    0.0000    0.0000    0.0000    0.2189    0.0003    0.0128
       36 FE2    3d0        0.0040   -0.0000    0.0000   -0.0394   -0.0332    0.4632   -0.0000    0.0000    0.0000   -0.0000
       37 FE2    4d0        0.0020   -0.0000    0.0000   -0.0206   -0.0151    0.0986   -0.0000    0.0000    0.0000   -0.0000
       38 FE2    3d1+       0.0000    1.0001   -0.0012    0.0000    0.0000    0.0000   -0.0000   -0.0253   -0.0060   -0.0019
       39 FE2    4d1+       0.0000   -0.0004   -0.0001   -0.0000   -0.0000    0.0000   -0.0000   -0.0058    0.0050   -0.0003
       40 FE2    3d2+       0.0001    0.0000    0.0000   -0.0021   -0.0161    0.8548   -0.0509    0.0000   -0.0000    0.0000
       41 FE2    4d2+      -0.0001   -0.0000   -0.0000    0.0003   -0.0087    0.1871   -0.0115    0.0000   -0.0000    0.0000
       42 FE2    4f3-      -0.0000    0.0000    0.0000    0.0000    0.0000    0.0000   -0.0000    0.0000   -0.0000   -0.0002
       43 FE2    4f2-      -0.0000   -0.0000    0.0000   -0.0000   -0.0000   -0.0000   -0.0006    0.0000   -0.0000   -0.0000
       44 FE2    4f1-      -0.0000   -0.0000    0.0005    0.0000    0.0000    0.0000   -0.0000   -0.0009    0.0000   -0.0003
       45 FE2    4f0        0.0004    0.0000    0.0000   -0.0016   -0.0003   -0.0005   -0.0000   -0.0000    0.0000    0.0000
       46 FE2    4f1+       0.0000   -0.0008   -0.0000   -0.0000   -0.0000   -0.0000    0.0000    0.0000    0.0012    0.0000
       47 FE2    4f2+      -0.0000   -0.0000    0.0000   -0.0000   -0.0000   -0.0006    0.0000   -0.0000   -0.0000   -0.0000
       48 FE2    4f3+       0.0000    0.0000   -0.0000    0.0000    0.0000   -0.0000   -0.0000   -0.0000   -0.0002    0.0000
 
          Orbital           21        22        23        24    
          Energy           -0.3457   -0.3199   -0.2964   -0.2006
          Occ. No.          0.0000    0.0000    0.0000    0.0000
 
        1 O1     1s         0.0047   -0.0174    0.0000   -0.0190
        2 O1     2s         0.0509   -0.2021    0.0000   -0.1748
        3 O1     3s         0.0154   -0.0272    0.0000   -0.0493
        4 O1     2px        0.0000   -0.0000   -0.9173    0.0000
        5 O1     3px        0.0000   -0.0000   -0.2474    0.0000
        6 O1     2py       -0.0000   -0.0000   -0.0103    0.0000
        7 O1     3py        0.0000   -0.0000   -0.0028   -0.0000
        8 O1     2pz       -0.0407    0.2632   -0.0000    0.0210
        9 O1     3pz       -0.0161    0.0179   -0.0000    0.0289
       10 O1     3d2-      -0.0000    0.0001    0.0000    0.0000
       11 O1     3d1-      -0.0000    0.0000    0.0001    0.0000
       12 O1     3d0        0.0020    0.0062   -0.0000   -0.0050
       13 O1     3d1+      -0.0000    0.0000    0.0111   -0.0000
       14 O1     3d2+      -0.0010    0.0043   -0.0000    0.0011
       15 FE2    1s        -0.0001    0.0001   -0.0000    0.0001
       16 FE2    2s        -0.0004    0.0009   -0.0000    0.0008
       17 FE2    3s        -0.0017    0.0050   -0.0000    0.0051
       18 FE2    4s        -0.0333    0.1102   -0.0000    0.2086
       19 FE2    5s         0.0027   -0.0601    0.0000    1.0010
       20 FE2    2px        0.0000    0.0000    0.0001    0.0000
       21 FE2    3px       -0.0000    0.0000    0.0056   -0.0000
       22 FE2    4px       -0.0000    0.0000    0.4358   -0.0000
       23 FE2    5px       -0.0000    0.0000    0.0398   -0.0000
       24 FE2    2py       -0.0000    0.0000    0.0000    0.0000
       25 FE2    3py       -0.0000   -0.0000    0.0001   -0.0000
       26 FE2    4py        0.0000    0.0000    0.0053   -0.0000
       27 FE2    5py        0.0000    0.0000    0.0005    0.0000
       28 FE2    2pz        0.0001   -0.0000   -0.0000    0.0001
       29 FE2    3pz       -0.0004    0.0053   -0.0000    0.0026
       30 FE2    4pz       -0.5136    0.8956   -0.0000    0.0982
       31 FE2    5pz       -0.0491    0.0835   -0.0000    0.0074
       32 FE2    3d2-      -0.0227   -0.0088    0.0000   -0.0005
       33 FE2    4d2-      -0.0056   -0.0024    0.0000    0.0000
       34 FE2    3d1-       0.0000   -0.0000   -0.0023    0.0000
       35 FE2    4d1-       0.0000   -0.0000   -0.0011    0.0000
       36 FE2    3d0        0.7138    0.4772   -0.0000    0.0408
       37 FE2    4d0        0.1792    0.0955   -0.0000    0.0028
       38 FE2    3d1+       0.0000    0.0000    0.0236   -0.0000
       39 FE2    4d1+       0.0000   -0.0000   -0.0304    0.0000
       40 FE2    3d2+      -0.4350   -0.1690    0.0000   -0.0095
       41 FE2    4d2+      -0.1066   -0.0453    0.0000    0.0004
       42 FE2    4f3-      -0.0000   -0.0000   -0.0000   -0.0000
       43 FE2    4f2-      -0.0000    0.0000   -0.0000    0.0000
       44 FE2    4f1-       0.0000    0.0000   -0.0000   -0.0000
       45 FE2    4f0       -0.0002   -0.0021    0.0000   -0.0006
       46 FE2    4f1+      -0.0000   -0.0000   -0.0013    0.0000
       47 FE2    4f2+      -0.0000    0.0006   -0.0000    0.0001
       48 FE2    4f3+       0.0000   -0.0000   -0.0001    0.0000
--
 
 
++    Molecular charges:
      ------------------
 
      Mulliken charges per centre and basis function type
      ---------------------------------------------------
 
                            O1                      FE2   
                     alpha        beta       alpha        beta
      1s           1.0000      1.0000      1.0000      1.0000
      2s           0.9987      0.9986      1.0000      1.0000
      2px          0.9972      0.0001      1.0000      1.0000
      2pz          0.9604      0.9652      1.0000      1.0000
      2py          0.0001      0.9971      1.0000      1.0000
      3s           0.0009      0.0012      1.0000      1.0000
      3px          0.0018     -0.0004      0.9999      0.9997
      3pz          0.0002      0.0004      0.9998      0.9997
      3py         -0.0002      0.0020      0.9998      1.0000
      4s           0.0000      0.0000      0.0184      0.0130
      3d2+         0.0020      0.0020      0.9948      0.0000
      3d1+         0.0002     -0.0000      0.9974      0.9997
      3d0          0.0005      0.0005      0.9958      0.0030
      3d1-        -0.0000      0.0002      0.9949      0.0008
      3d2-         0.0000      0.0000      0.9947      0.0000
      4px          0.0000      0.0000      0.0003      0.0000
      4pz          0.0000      0.0000      0.0151      0.0128
      4py          0.0000      0.0000      0.0001      0.0002
      5s           0.0000      0.0000      0.0008      0.0003
      4d2+         0.0000      0.0000      0.0053      0.0000
      4d1+         0.0000      0.0000      0.0031      0.0000
      4d0          0.0000      0.0000      0.0074      0.0028
      4d1-         0.0000      0.0000      0.0053      0.0003
      4d2-         0.0000      0.0000      0.0053      0.0000
      5px          0.0000      0.0000     -0.0000      0.0000
      5pz          0.0000      0.0000     -0.0000      0.0001
      5py          0.0000      0.0000      0.0000      0.0000
      4f3+         0.0000      0.0000      0.0000      0.0000
      4f2+         0.0000      0.0000      0.0000      0.0001
      4f1+         0.0000      0.0000      0.0000      0.0002
      4f0          0.0000      0.0000      0.0000      0.0002
      4f1-         0.0000      0.0000      0.0000      0.0000
      4f2-         0.0000      0.0000      0.0000      0.0000
      4f3-         0.0000      0.0000      0.0000      0.0000
      Total        3.9618      3.9669     14.0382     10.0331
      Total              7.9287                 24.0713
 
      Charge            0.0713                  1.9287
 
      Total electronic charge=   32.000000
 
      Total            charge=    2.000000
--
 
 
  Input file to MOLDEN was generated!
 
 
++    Static properties:
      ------------------
 
 
      LoProp Charges per center
 

                   O1       FE2   
      Nuclear      8.0000  26.0000
      Electronic  -7.9400 -24.0600
 
      Total        0.0600   1.9400
--
 
 
++    Natural Bond Order analysis
      ---------------------------
      Based on LoProp computed density
      -------------------------------------------------------------------------------------
      Atom A       Atom B       Bond Order
      -------------------------------------------------------------------------------------
      NBO located     21.999 core electrons.
      NBO located      3.927 lone pair electrons.
      NBO located      1.000 non-bonded electrons on atom O1        
      NBO located      0.999 non-bonded electrons on atom O1        
      NBO located      1.003 non-bonded electrons on atom FE2       
      NBO located      1.000 non-bonded electrons on atom FE2       
      NBO located      1.000 non-bonded electrons on atom FE2       
      NBO located      1.000 non-bonded electrons on atom FE2       
      The remaining    0.072 electrons are to be considered as diffuse
--
 
 
++    Molecular orbitals:
      -------------------
 
      Title: Natural orbitals

      Molecular orbitals for symmetry species 1: a  
 
          Orbital            1         2         3         4         5         6         7         8         9        10    
          Energy         -264.3028  -32.7331  -21.0667  -27.4869  -27.9777  -27.9767   -5.0936   -4.0808   -2.4098   -3.5594
          Occ. No.          2.0000    2.0000    2.0000    2.0000    2.0000    2.0000    2.0000    1.9999    1.9998    1.9997
 
        1 O1     1s         0.0000   -0.0015    0.9996    0.0000   -0.0000    0.0002   -0.0082    0.0000   -0.0006   -0.0000
        2 O1     2s         0.0000    0.0001   -0.0274   -0.0000    0.0000    0.0000    0.0009   -0.0000    0.0062   -0.0000
        3 O1     3s        -0.0000    0.0001   -0.0003   -0.0000    0.0000   -0.0000    0.0031    0.0000    0.0134   -0.0000
        4 O1     2px       -0.0000    0.0000    0.0000    0.0000   -0.0000   -0.0000    0.0000   -0.0000    0.0000    0.0003
        5 O1     3px        0.0000   -0.0000   -0.0000    0.0000   -0.0000   -0.0000    0.0000   -0.0000    0.0000    0.0004
        6 O1     2py        0.0000   -0.0000    0.0000   -0.0000   -0.0000    0.0000   -0.0000    0.0002   -0.0000    0.0000
        7 O1     3py       -0.0000    0.0000    0.0000   -0.0001   -0.0000    0.0000   -0.0000    0.0006   -0.0000    0.0000
        8 O1     2pz        0.0000   -0.0056   -0.0018   -0.0000    0.0000    0.0041   -0.1684    0.0000   -0.6529    0.0000
        9 O1     3pz       -0.0000   -0.0000    0.0005    0.0000   -0.0000   -0.0000   -0.0008   -0.0000   -0.0046    0.0000
       10 O1     3d2-      -0.0000   -0.0000    0.0000    0.0000    0.0000    0.0000   -0.0000   -0.0000   -0.0000    0.0000
       11 O1     3d1-      -0.0000    0.0000   -0.0000    0.0000    0.0000   -0.0000    0.0000   -0.0001    0.0000   -0.0000
       12 O1     3d0       -0.0000    0.0001    0.0002    0.0000   -0.0000   -0.0001    0.0030    0.0000    0.0123   -0.0000
       13 O1     3d1+       0.0000   -0.0000    0.0000   -0.0000    0.0000    0.0000   -0.0000    0.0000   -0.0000   -0.0001
       14 O1     3d2+      -0.0000   -0.0000    0.0000    0.0000   -0.0000    0.0000   -0.0000    0.0000   -0.0000    0.0000
       15 FE2    1s         1.0000   -0.0001   -0.0000   -0.0000    0.0000   -0.0000    0.0001   -0.0000   -0.0002    0.0000
       16 FE2    2s         0.0001    0.9943    0.0023    0.0000   -0.0000    0.0017    0.1033   -0.0000   -0.0202    0.0000
       17 FE2    3s        -0.0002   -0.1065    0.0077    0.0000   -0.0000   -0.0110    0.9767   -0.0000   -0.1401    0.0000
       18 FE2    4s        -0.0000    0.0002    0.0002    0.0000   -0.0000   -0.0004    0.0161   -0.0000    0.0539   -0.0000
       19 FE2    5s         0.0000   -0.0000    0.0001    0.0000    0.0000    0.0001   -0.0050    0.0000   -0.0161    0.0000
       20 FE2    2px        0.0000   -0.0000    0.0000   -0.0257    0.9967    0.0000    0.0000   -0.0042    0.0000    0.0770
       21 FE2    3px       -0.0000    0.0000   -0.0000    0.0042   -0.0770   -0.0000   -0.0000   -0.0257    0.0000    0.9967
       22 FE2    4px       -0.0000    0.0000    0.0000   -0.0000    0.0003    0.0000    0.0000    0.0001    0.0000   -0.0034
       23 FE2    5px       -0.0000   -0.0000    0.0000   -0.0000    0.0001    0.0000    0.0000   -0.0000   -0.0000   -0.0009
       24 FE2    2py       -0.0000   -0.0000   -0.0000    0.9863    0.0260   -0.0000   -0.0000    0.1628    0.0000    0.0020
       25 FE2    3py        0.0000    0.0000    0.0000   -0.1628   -0.0020    0.0000    0.0000    0.9863    0.0000    0.0260
       26 FE2    4py       -0.0000   -0.0000   -0.0000    0.0009    0.0000   -0.0000    0.0000   -0.0055    0.0000   -0.0001
       27 FE2    5py       -0.0000   -0.0000   -0.0000    0.0001    0.0000   -0.0000    0.0000    0.0003    0.0000   -0.0000
       28 FE2    2pz       -0.0000    0.0029    0.0001   -0.0000    0.0000   -0.9970   -0.0101   -0.0000    0.0537    0.0000
       29 FE2    3pz        0.0000    0.0007   -0.0002    0.0000   -0.0000    0.0764    0.0172    0.0000    0.7180    0.0000
       30 FE2    4pz       -0.0000    0.0004    0.0001    0.0000   -0.0000   -0.0006    0.0113   -0.0000    0.0410   -0.0000
       31 FE2    5pz       -0.0000   -0.0000    0.0000    0.0000    0.0000   -0.0001    0.0009   -0.0000    0.0018   -0.0000
       32 FE2    3d2-      -0.0000   -0.0000    0.0000    0.0000   -0.0000   -0.0000    0.0001   -0.0000    0.0001   -0.0000
       33 FE2    4d2-       0.0000   -0.0000    0.0000    0.0000   -0.0000   -0.0000    0.0001   -0.0000   -0.0000    0.0000
       34 FE2    3d1-      -0.0000   -0.0000   -0.0000    0.0002   -0.0000   -0.0000   -0.0000   -0.0011   -0.0000    0.0001
       35 FE2    4d1-      -0.0000   -0.0000   -0.0000    0.0000    0.0000   -0.0000   -0.0000   -0.0001   -0.0000   -0.0000
       36 FE2    3d0       -0.0000    0.0002    0.0000    0.0000   -0.0000   -0.0003    0.0070   -0.0000    0.0253   -0.0000
       37 FE2    4d0       -0.0000    0.0001    0.0000    0.0000   -0.0000   -0.0001    0.0041    0.0000    0.0116   -0.0000
       38 FE2    3d1+       0.0000   -0.0000    0.0000   -0.0000   -0.0001    0.0000   -0.0000    0.0000   -0.0000    0.0028
       39 FE2    4d1+      -0.0000    0.0000    0.0000   -0.0000    0.0000    0.0000    0.0000    0.0000    0.0000   -0.0002
       40 FE2    3d2+      -0.0000   -0.0000    0.0000    0.0000   -0.0000   -0.0000    0.0013   -0.0000    0.0013   -0.0000
       41 FE2    4d2+       0.0000   -0.0000    0.0000    0.0000   -0.0000   -0.0000    0.0016    0.0000   -0.0008    0.0000
       42 FE2    4f3-      -0.0000   -0.0000   -0.0000    0.0005    0.0000   -0.0000   -0.0000   -0.0036   -0.0000   -0.0003
       43 FE2    4f2-      -0.0000    0.0000   -0.0000   -0.0000    0.0000   -0.0000    0.0000    0.0000    0.0001    0.0000
       44 FE2    4f1-      -0.0000   -0.0000   -0.0000    0.0004   -0.0000   -0.0000   -0.0000   -0.0029    0.0000    0.0001
       45 FE2    4f0       -0.0000    0.0000   -0.0000   -0.0000    0.0000   -0.0002    0.0001   -0.0000   -0.0035   -0.0000
       46 FE2    4f1+      -0.0000    0.0000    0.0000   -0.0000   -0.0000   -0.0000   -0.0000    0.0001    0.0000    0.0052
       47 FE2    4f2+      -0.0000    0.0000   -0.0000   -0.0000    0.0000   -0.0001    0.0000   -0.0000    0.0014    0.0000
       48 FE2    4f3+       0.0000   -0.0000    0.0000   -0.0000    0.0002    0.0000    0.0000    0.0003   -0.0000   -0.0036
 
          Orbital           11        12        13        14        15        16        17        18        19        20    
          Energy           -2.2425   -1.1962   -1.6478   -0.7457   -0.8393   -0.8271   -0.7869   -0.6521   -0.7326    1.7319
          Occ. No.          1.9997    1.9987    1.9960    1.0141    1.0000    1.0000    1.0000    1.0000    0.9859    0.0040
 
        1 O1     1s         0.0013   -0.0000   -0.0275   -0.0000    0.0006    0.0000    0.0011   -0.0000   -0.0000    0.0000
        2 O1     2s        -0.0042   -0.0000   -1.0006   -0.0000    0.0101   -0.0000    0.0194   -0.0000    0.0000    0.0005
        3 O1     3s        -0.0129    0.0000    0.0103   -0.0000    0.0047   -0.0000    0.0088   -0.0000   -0.0000    0.0018
        4 O1     2px       -0.0000   -0.0010    0.0000   -0.0098   -0.0000   -0.0000   -0.0000   -0.9984    0.0061    0.0000
        5 O1     3px       -0.0000   -0.0083    0.0000    0.0006    0.0000    0.0000    0.0000    0.0459   -0.0002   -0.0000
        6 O1     2py        0.0000   -0.0001   -0.0000    0.6993   -0.0000   -0.0000   -0.0000   -0.0112   -0.7125   -0.0000
        7 O1     3py        0.0000   -0.0002   -0.0000   -0.0363    0.0000    0.0000    0.0000    0.0005    0.0285   -0.0000
        8 O1     2pz        0.6959   -0.0000   -0.0282   -0.0000   -0.0324    0.0000   -0.0548    0.0000    0.0000   -0.0008
        9 O1     3pz        0.0041   -0.0000    0.0123    0.0000   -0.0054    0.0000   -0.0099    0.0000    0.0000    0.0004
       10 O1     3d2-       0.0000    0.0000    0.0000   -0.0000    0.0000   -0.0001    0.0000    0.0000    0.0000    0.0225
       11 O1     3d1-      -0.0000    0.0000   -0.0000   -0.0086    0.0000    0.0000    0.0000    0.0001    0.0098    0.0000
       12 O1     3d0       -0.0128    0.0000   -0.0041    0.0000    0.0009    0.0000    0.0016   -0.0000   -0.0000   -0.0035
       13 O1     3d1+       0.0000    0.0006    0.0000    0.0001    0.0000    0.0000    0.0000    0.0129   -0.0001    0.0000
       14 O1     3d2+       0.0000   -0.0000    0.0000    0.0000    0.0004    0.0000    0.0004   -0.0000   -0.0000    0.9997
       15 FE2    1s         0.0002   -0.0000    0.0000   -0.0000   -0.0000    0.0000   -0.0000    0.0000    0.0000    0.0000
       16 FE2    2s         0.0172    0.0000    0.0003   -0.0000   -0.0001    0.0000   -0.0003    0.0000    0.0000    0.0000
       17 FE2    3s         0.1226    0.0000    0.0018   -0.0000   -0.0002    0.0000   -0.0019    0.0000    0.0000    0.0000
       18 FE2    4s        -0.0590    0.0000    0.0049    0.0000    0.0043   -0.0000    0.0035   -0.0000   -0.0000   -0.0042
       19 FE2    5s         0.0174   -0.0000    0.0032    0.0000   -0.0043   -0.0000   -0.0056    0.0000    0.0000    0.0008
       20 FE2    2px       -0.0000   -0.0002    0.0000    0.0000    0.0000    0.0000    0.0000    0.0001   -0.0000    0.0000
       21 FE2    3px       -0.0000   -0.0027   -0.0000   -0.0000    0.0000    0.0000    0.0000    0.0018   -0.0000    0.0000
       22 FE2    4px       -0.0000    0.0002   -0.0000   -0.0000   -0.0000   -0.0000   -0.0000   -0.0041    0.0000   -0.0000
       23 FE2    5px        0.0000    0.0011   -0.0000   -0.0000    0.0000    0.0000    0.0000    0.0005   -0.0000    0.0000
       24 FE2    2py       -0.0000   -0.0000   -0.0000   -0.0000    0.0000    0.0000    0.0000    0.0000    0.0001    0.0000
       25 FE2    3py       -0.0000   -0.0001   -0.0000   -0.0002    0.0000    0.0000    0.0000    0.0000    0.0019    0.0000
       26 FE2    4py       -0.0000    0.0000    0.0000    0.0027   -0.0000   -0.0000   -0.0000   -0.0000   -0.0027   -0.0000
       27 FE2    5py       -0.0000    0.0000    0.0000    0.0005    0.0000    0.0000    0.0000    0.0000    0.0010    0.0000
       28 FE2    2pz        0.0545    0.0000    0.0001   -0.0000   -0.0000    0.0000   -0.0001    0.0000    0.0000    0.0000
       29 FE2    3pz        0.6916   -0.0000    0.0037   -0.0000   -0.0015    0.0000   -0.0027    0.0000    0.0000   -0.0000
       30 FE2    4pz       -0.0498    0.0000    0.0024    0.0000    0.0001   -0.0000    0.0001    0.0000   -0.0000    0.0008
       31 FE2    5pz       -0.0033    0.0000    0.0015    0.0000   -0.0013   -0.0000   -0.0024    0.0000    0.0000   -0.0014
       32 FE2    3d2-      -0.0001   -0.0000    0.0000    0.0000   -0.0453    0.9960    0.0256   -0.0000    0.0000   -0.0000
       33 FE2    4d2-       0.0000    0.0000    0.0000   -0.0000    0.0034   -0.0724   -0.0017    0.0000   -0.0000    0.0000
       34 FE2    3d1-       0.0000    0.0261   -0.0000    0.7050    0.0000   -0.0000   -0.0000   -0.0025    0.7054    0.0000
       35 FE2    4d1-       0.0000   -0.0007    0.0000   -0.0482   -0.0000    0.0000    0.0000    0.0002   -0.0536   -0.0000
       36 FE2    3d0       -0.0296   -0.0000   -0.0013    0.0000   -0.4912   -0.0000   -0.8692    0.0000    0.0000    0.0006
       37 FE2    4d0       -0.0129    0.0000   -0.0006   -0.0000    0.0363    0.0000    0.0562   -0.0000   -0.0000    0.0002
       38 FE2    3d1+       0.0000    0.9997   -0.0000   -0.0185    0.0000    0.0000    0.0000    0.0125   -0.0183    0.0000
       39 FE2    4d1+      -0.0000   -0.0263    0.0000    0.0013   -0.0000   -0.0000   -0.0000   -0.0033    0.0014   -0.0000
       40 FE2    3d2+      -0.0014    0.0000    0.0001    0.0000   -0.8668   -0.0520    0.4907    0.0000    0.0000   -0.0019
       41 FE2    4d2+       0.0008   -0.0000   -0.0000   -0.0000    0.0647    0.0038   -0.0323   -0.0000   -0.0000    0.0015
       42 FE2    4f3-       0.0000    0.0000    0.0000   -0.0000   -0.0000   -0.0000   -0.0000   -0.0000   -0.0000   -0.0000
       43 FE2    4f2-       0.0001   -0.0000   -0.0000   -0.0000    0.0000   -0.0006   -0.0000    0.0000   -0.0000    0.0000
       44 FE2    4f1-       0.0000   -0.0000    0.0000   -0.0002   -0.0000   -0.0000   -0.0000   -0.0000   -0.0009   -0.0000
       45 FE2    4f0       -0.0055    0.0000   -0.0003   -0.0000    0.0004    0.0000    0.0008   -0.0000   -0.0000   -0.0001
       46 FE2    4f1+      -0.0000   -0.0008   -0.0000    0.0000   -0.0000   -0.0000   -0.0000   -0.0005    0.0000   -0.0000
       47 FE2    4f2+       0.0013   -0.0000   -0.0000   -0.0000    0.0005    0.0000   -0.0003   -0.0000   -0.0000    0.0005
       48 FE2    4f3+       0.0000    0.0000    0.0000    0.0000   -0.0000   -0.0000   -0.0000   -0.0000    0.0000   -0.0000
 
          Orbital           21        22        23        24        25        26        27        28        29        30    
          Energy            0.4108    0.9149    2.7269    1.3837    1.0078    0.2692    1.9221    1.8732    1.0570    0.0336
          Occ. No.          0.0013    0.0003    0.0003    0.0002    0.0001    0.0000    0.0000    0.0000    0.0000    0.0000
 
        1 O1     1s         0.0000   -0.0020   -0.0000    0.0024   -0.0000    0.0150   -0.0206    0.0000    0.0000   -0.0145
        2 O1     2s         0.0000   -0.0483   -0.0000    0.0400   -0.0000    0.1533   -0.2022    0.0000    0.0000   -0.1368
        3 O1     3s         0.0000   -0.0141   -0.0000    0.0048   -0.0000    0.0593   -0.2415    0.0000    0.0000   -0.1512
        4 O1     2px       -0.0786    0.0000   -0.0152   -0.0000    0.0002   -0.0000   -0.0000   -0.0483    0.0021    0.0000
        5 O1     3px       -0.0326   -0.0000   -0.0092    0.0000   -0.0001   -0.0000   -0.0000   -0.1150    0.0052    0.0000
        6 O1     2py       -0.0021    0.0000   -0.0004   -0.0000   -0.0068   -0.0000   -0.0000   -0.0013   -0.0811   -0.0000
        7 O1     3py       -0.0012   -0.0000   -0.0002    0.0000    0.0036    0.0000   -0.0000   -0.0030   -0.1982   -0.0000
        8 O1     2pz       -0.0000    0.1815    0.0000   -0.1187    0.0000   -0.1018    0.1044   -0.0000   -0.0000    0.0171
        9 O1     3pz        0.0000    0.0026   -0.0000    0.0346    0.0000    0.1560    0.1050    0.0000   -0.0000   -0.1221
       10 O1     3d2-       0.0000   -0.0000    0.0000   -0.0002   -0.0000    0.0005    0.0000    0.0000   -0.0000   -0.0000
       11 O1     3d1-      -0.0001   -0.0000    0.0002    0.0000    0.0049    0.0000    0.0000    0.0003    0.0337    0.0000
       12 O1     3d0       -0.0000   -0.0071   -0.0000    0.0022    0.0000   -0.0353   -0.0027   -0.0000   -0.0000    0.0676
       13 O1     3d1+       0.0001   -0.0000    0.0058    0.0000   -0.0001    0.0000   -0.0000    0.0110   -0.0009   -0.0000
       14 O1     3d2+       0.0000    0.0006    0.0000   -0.0068    0.0000    0.0143   -0.0006    0.0000    0.0000    0.0092
       15 FE2    1s        -0.0000    0.0001    0.0000    0.0000    0.0000    0.0003    0.0003    0.0000   -0.0000   -0.0002
       16 FE2    2s        -0.0000    0.0006    0.0000    0.0002    0.0000    0.0022    0.0024    0.0000   -0.0000   -0.0014
       17 FE2    3s        -0.0000    0.0019   -0.0000    0.0021    0.0000    0.0113    0.0127    0.0000   -0.0000   -0.0055
       18 FE2    4s        -0.0000    0.5790    0.0000   -0.6010    0.0000   -0.1209    0.1679   -0.0000    0.0000    0.0835
       19 FE2    5s         0.0000   -0.2470   -0.0000    0.2634    0.0000   -0.4238    0.0542   -0.0000   -0.0000    0.7868
       20 FE2    2px        0.0000    0.0000   -0.0003   -0.0000   -0.0000   -0.0000   -0.0000   -0.0001   -0.0000   -0.0000
       21 FE2    3px        0.0007    0.0000   -0.0031   -0.0000   -0.0001    0.0000    0.0000    0.0007   -0.0002   -0.0000
       22 FE2    4px       -0.0005   -0.0000    0.3358    0.0000   -0.0164    0.0000   -0.0000   -0.0275   -0.0170   -0.0000
       23 FE2    5px        0.0016    0.0000   -0.3610   -0.0000    0.0194    0.0000    0.0000    0.9254   -0.0175   -0.0000
       24 FE2    2py        0.0000    0.0000   -0.0000    0.0000    0.0002   -0.0000   -0.0000   -0.0000    0.0001   -0.0000
       25 FE2    3py        0.0000   -0.0000   -0.0001   -0.0000    0.0047   -0.0000    0.0000    0.0000    0.0082   -0.0000
       26 FE2    4py       -0.0000   -0.0000    0.0088    0.0000    0.6290    0.0000    0.0000   -0.0007    0.6523    0.0000
       27 FE2    5py        0.0001    0.0000   -0.0094   -0.0000   -0.7444   -0.0000    0.0000    0.0241    0.6713    0.0000
       28 FE2    2pz       -0.0000   -0.0001    0.0000   -0.0002    0.0000    0.0002    0.0003    0.0000   -0.0000   -0.0002
       29 FE2    3pz       -0.0000    0.0016    0.0000   -0.0035    0.0000    0.0032    0.0094   -0.0000   -0.0000   -0.0021
       30 FE2    4pz       -0.0000    0.4587    0.0000    0.0321    0.0000   -0.3140    0.1348   -0.0000   -0.0000    0.2897
       31 FE2    5pz        0.0000   -0.2623   -0.0000   -0.2551   -0.0000   -0.0275    0.9680   -0.0000   -0.0000    0.0582
       32 FE2    3d2-      -0.0000   -0.0002   -0.0000    0.0002    0.0000   -0.0030    0.0001    0.0000    0.0000   -0.0019
       33 FE2    4d2-      -0.0000   -0.0027   -0.0000    0.0029   -0.0000   -0.0416    0.0011    0.0000    0.0000   -0.0250
       34 FE2    3d1-       0.0008   -0.0000    0.0001    0.0000    0.0011   -0.0000   -0.0000    0.0002    0.0116    0.0000
       35 FE2    4d1-       0.0263    0.0000    0.0002   -0.0000    0.0007   -0.0000   -0.0000    0.0007    0.0518    0.0000
       36 FE2    3d0       -0.0000    0.0004   -0.0000    0.0065    0.0000   -0.0132    0.0254   -0.0000    0.0000   -0.0202
       37 FE2    4d0       -0.0000   -0.1619   -0.0000    0.2032   -0.0000   -0.1416    0.1054   -0.0000    0.0000   -0.2544
       38 FE2    3d1+       0.0306    0.0000    0.0022    0.0000   -0.0000    0.0000    0.0000    0.0061   -0.0003   -0.0000
       39 FE2    4d1+       1.0086    0.0000    0.0073   -0.0000    0.0000   -0.0000    0.0000    0.0279   -0.0013   -0.0000
       40 FE2    3d2+       0.0000   -0.0027   -0.0000    0.0036    0.0000   -0.0585    0.0019    0.0000    0.0000   -0.0373
       41 FE2    4d2+       0.0000   -0.0473   -0.0000    0.0509    0.0000   -0.8045    0.0218    0.0000    0.0000   -0.4909
       42 FE2    4f3-       0.0000   -0.0000    0.0086    0.0000    0.1765   -0.0000    0.0000    0.0072    0.3401   -0.0000
       43 FE2    4f2-      -0.0000    0.0249   -0.0000    0.0300    0.0000    0.0054    0.0183   -0.0000   -0.0000   -0.0041
       44 FE2    4f1-      -0.0001   -0.0000    0.0225    0.0000    0.1349   -0.0000    0.0000    0.0103    0.2674   -0.0000
       45 FE2    4f0        0.0000   -0.2810   -0.0000   -0.3408    0.0000   -0.0712   -0.1463    0.0000   -0.0000    0.0406
       46 FE2    4f1+      -0.0025   -0.0000    0.8633    0.0000   -0.0035   -0.0000    0.0000    0.3930   -0.0070    0.0000
       47 FE2    4f2+      -0.0000    0.4774   -0.0000    0.5749    0.0000    0.1034    0.3499   -0.0000    0.0000   -0.0821
       48 FE2    4f3+       0.0001   -0.0000    0.1092    0.0000   -0.0138    0.0000    0.0000    0.0914   -0.0267    0.0000
 
          Orbital           31        32        33        34        35        36        37        38        39        40    
          Energy            0.6332   -0.1114   -0.0422    2.0639    0.3252    0.4573    0.8430    0.6269    0.4897    0.6544
          Occ. No.          0.0000    0.0000    0.0000    0.0000    0.0000    0.0000    0.0000    0.0000    0.0000    0.0000
 
        1 O1     1s        -0.0118   -0.0007    0.0000    0.0000    0.0003    0.0030    0.0303    0.0035    0.0013    0.0000
        2 O1     2s        -0.1215   -0.0197   -0.0000    0.0000    0.0034    0.0321    0.3215    0.0461    0.0120    0.0004
        3 O1     3s         0.2800    0.0986   -0.0000   -0.0001    0.0069    0.0692    0.7071    0.8685    0.0699    0.0051
        4 O1     2px        0.0000    0.0000    0.0596   -0.0004    0.0727   -0.0240    0.0016   -0.0000    0.0000    0.0027
        5 O1     3px        0.0000   -0.0000   -0.0070    0.0080    1.0025   -0.3131    0.0208   -0.0001    0.0008    0.0168
        6 O1     2py        0.0000   -0.0000    0.0015    0.0035    0.0001   -0.0060    0.0005    0.0007    0.0014   -0.1069
        7 O1     3py        0.0000   -0.0000   -0.0023   -0.3569   -0.2064   -0.7016    0.0719    0.0027    0.0071   -0.6386
        8 O1     2pz        0.1352    0.0676    0.0000   -0.0000   -0.0028   -0.0267   -0.2668   -0.0061   -0.0016   -0.0002
        9 O1     3pz       -0.2422   -0.0896   -0.0000   -0.0001   -0.0109   -0.1046   -1.0413    0.4647   -0.1556    0.0030
       10 O1     3d2-       0.0000    0.0001    0.0001    0.0000    0.0000   -0.0002    0.0003    0.0056   -0.0060    0.0474
       11 O1     3d1-       0.0000    0.0000    0.0004    0.0541   -0.0010   -0.0021    0.0003   -0.0008    0.0062   -0.0214
       12 O1     3d0       -0.0768   -0.0400    0.0000   -0.0001    0.0005    0.0011    0.0157   -0.0497    0.0902   -0.0017
       13 O1     3d1+      -0.0000   -0.0000    0.0063   -0.0015   -0.0144    0.0049   -0.0004    0.0007   -0.0009   -0.0095
       14 O1     3d2+       0.0058    0.0002   -0.0000   -0.0000   -0.0000   -0.0002   -0.0016   -0.0028    0.0003   -0.0011
       15 FE2    1s        -0.0005   -0.0002   -0.0000   -0.0000   -0.0000   -0.0003   -0.0025    0.0007   -0.0004    0.0000
       16 FE2    2s        -0.0039   -0.0014   -0.0000   -0.0000   -0.0002   -0.0018   -0.0181    0.0050   -0.0026    0.0000
[...]
      *** Default values:   7
 
      Header of the integral files:
      
       Integrals generated by seward 4.2.0  , Thu Dec  5 10:53:30 2024
 
 
      Header of MO coefficients source file:
      * RASSCF average (pseudo-natural) orbitals                                      
 
 
      Cartesian coordinates in Angstrom:
      -----------------------------------------------------
      No.  Label        X            Y            Z        
      -----------------------------------------------------
       1   O1         0.00000000   0.00000000   2.25960000
       2   FE2        0.00000000   0.00000000  -0.65960000
      -----------------------------------------------------
      Nuclear repulsion energy =   37.70514518
 
      Orbital specifications:
      -----------------------
 
      Symmetry species:              1
      Number of basis functions:    48
      Frozen orbitals:               0
      Deleted orbitals:              0
      Number of orbitals used:      48

       SYMMETRY  BASIS FUNCTIONS       ORBITALS      INTEGRALS   CPU(SEC)  I/O(SEC)
 
        1 1 1 1   48  48  48  48    48  48  48  48      692076       0.00      0.00

       TOTAL CPU TIME(SEC)    0.32TOTAL I/O TIME(SEC)    0.86
 
--- Stop Module: motra at Thu Dec  5 10:55:35 2024 /rc=_RC_ALL_IS_WELL_ ---
*** files: xmldump
    saved to directory /home/grierjones/DDCASPT2/iron_oxo_DDCASPT2/cluster/2.92

>>> COPY /tmp/2.92/GMJ_one_int_indx.csv /home/grierjones/DDCASPT2/iron_oxo_DDCASPT2/cluster/2.92/2.92.GMJ_one_int_indx.csv

>>> COPY /tmp/2.92/GMJ_one_int.csv /home/grierjones/DDCASPT2/iron_oxo_DDCASPT2/cluster/2.92/2.92.GMJ_one_int.csv

>>> COPY /tmp/2.92/GMJ_two_int_indx.csv /home/grierjones/DDCASPT2/iron_oxo_DDCASPT2/cluster/2.92/2.92.GMJ_two_int_indx.csv

>>> COPY /tmp/2.92/GMJ_two_int.csv /home/grierjones/DDCASPT2/iron_oxo_DDCASPT2/cluster/2.92/2.92.GMJ_two_int.csv

*** symbolic link created: INPORB -> 2.92.RasOrb
--- Start Module: caspt2 at Thu Dec  5 10:55:35 2024 ---
 
()()()()()()()()()()()()()()()()()()()()()()()()()()()()()()()()()()()()()()()()()()()()()()()()()()

                                              &CASPT2

                                   only a single process is used
                       available to each process: 2.0 GB of memory, 1 thread?
()()()()()()()()()()()()()()()()()()()()()()()()()()()()()()()()()()()()()()()()()()()()()()()()()()
 
 Cholesky algorithm in CASPT2 =    1
 
 ###############################################################################
 ###############################################################################
 ###                                                                         ###
 ###                                                                         ###
 ###    User changed nr of frozen orbitals.                                  ###
 ###                                                                         ###
 ###                                                                         ###
 ###############################################################################
 ###############################################################################
 
++    Wave function specifications:
      -----------------------------
 
      Number of closed shell electrons          22
      Number of electrons in active shells      10
      Max number of holes in RAS1 space          0
      Max number of electrons in RAS3 space      0
      Number of inactive orbitals               11
      Number of active orbitals                 14
      Number of secondary orbitals              23
      Spin quantum number                      2.0
      State symmetry                             1
      Number of CSFs                        975975
      Number of root(s) available                1
      Root passed to geometry opt.               1
      A file JOBMIX will be created.
      This is a CASSCF or RASSCF reference function
--
 
++    Orbital specifications:
      -----------------------
 
      Symmetry species                           1
                                                 a
      Frozen orbitals                            0
      Inactive orbitals                         11
      Active orbitals                           14
      Secondary orbitals                        23
      Deleted orbitals                           0
      Number of basis functions                 48
--
 
      Type of Fock operator: STANDARD
      Type of 0-order Hamiltonian: STANDARD WITH DEFAULT IPEA
        "IP-EA" denominator shift =      0.25
      The input orbitals and the CI vector will be transformed.
 
--------------------------------------------------------------------------------
 Estimated memory requirements:
  POLY3 :                227658189
  RHS:                     4146972
  SIGMA :                   646704
  PRPCTL:                        0
 Available workspace:    229020647
 
++ CASPT2 computation for group   1
 
********************************************************************************
 Multi-State initialization phase begins for group   1
--------------------------------------------------------------------------------
********************************************************************************
 Compute H0 matrices for state    1
--------------------------------------------------------------------------------
--------------------------------------------------------------------------------
 H0 matrices have been computed.
 
********************************************************************************
  CASPT2 EQUATION SOLUTION
--------------------------------------------------------------------------------
 
  Total nr of CASPT2 parameters:
   Before reduction:      408969
   After  reduction:      408969
 
 The contributions to the second order correlation energy in atomic units.
-----------------------------------------------------------------------------------------------------------------------------
  IT.      VJTU        VJTI        ATVX        AIVX        VJAI        BVAT        BJAT        BJAI        TOTAL       RNORM  
-----------------------------------------------------------------------------------------------------------------------------
   1    -0.002990   -0.029564   -0.014738   -0.180419   -0.017175   -0.077991   -0.018014   -0.043871   -0.384763    0.015021
   2    -0.003015   -0.029587   -0.015139   -0.180780   -0.017222   -0.078115   -0.018137   -0.043937   -0.385932    0.003871
   3    -0.003014   -0.029590   -0.015239   -0.180885   -0.017218   -0.078111   -0.018154   -0.043942   -0.386153    0.001059
   4    -0.003012   -0.029591   -0.015236   -0.180869   -0.017214   -0.078093   -0.018144   -0.043938   -0.386096    0.000297
   5    -0.003012   -0.029590   -0.015232   -0.180860   -0.017214   -0.078093   -0.018142   -0.043937   -0.386081    0.000075
   6    -0.003012   -0.029591   -0.015231   -0.180863   -0.017214   -0.078095   -0.018143   -0.043938   -0.386086    0.000019
   7    -0.003012   -0.029591   -0.015231   -0.180863   -0.017214   -0.078095   -0.018143   -0.043938   -0.386087    0.000005
   8    -0.003012   -0.029591   -0.015231   -0.180863   -0.017214   -0.078095   -0.018143   -0.043938   -0.386086    0.000001
-------------------------------------------------------------------------------------------------------------------
 
  FINAL CASPT2 RESULT:
 
  Correlation energy /Case, /Symm, and sums:
 VJTU     -0.00301233 -0.00301233
 VJTIP    -0.01003670 -0.01003670
 VJTIM    -0.01955384 -0.01955384
 ATVX     -0.01523090 -0.01523090
 AIVX     -0.18086303 -0.18086303
 VJAIP    -0.01371515 -0.01371515
 VJAIM    -0.00349872 -0.00349872
 BVATP    -0.02204698 -0.02204698
 BVATM    -0.05604806 -0.05604806
 BJATP    -0.01127922 -0.01127922
 BJATM    -0.00686356 -0.00686356
 BJAIP    -0.02953473 -0.02953473
 BJAIM    -0.01440305 -0.01440305
 Summed:  -0.38608628 -0.38608628
 
      Reference energy:       -1345.4758120327
      E2 (Non-variational):      -0.3860862781
      E2 (Variational):          -0.3860862924
      Total energy:           -1345.8618983252
      Residual norm:              0.0000002296
      Reference weight:           0.93721
 
      Contributions to the CASPT2 correlation energy
      Active & Virtual Only:         -0.0933259440
      One Inactive Excited:          -0.2020181469
      Two Inactive Excited:          -0.0907421872
 
 
++ Denominators, etc.
----------------------------------------------------------------------------------------------------
 Report on small energy denominators, large coefficients, and large energy contributions.
CASE  SYMM ACTIVE-MIX  NON-ACTIVE INDICES          DENOMINATOR     RHS VALUE       COEFFICIENT     CONTRIBUTION
ATVX     1  Mu1.0001  Se1.026                       0.16243445     -0.00000000      0.00000000     -0.00000000
ATVX     1  Mu1.0002  Se1.026                       0.16243445     -0.00000000      0.00000000     -0.00000000
ATVX     1  Mu1.0003  Se1.026                       0.23971643     -0.00000000      0.00000000     -0.00000000
ATVX     1  Mu1.0004  Se1.026                       0.23971643     -0.00000000      0.00000000     -0.00000000
ATVX     1  Mu1.0005  Se1.026                       0.24463235     -0.00000002      0.00000012     -0.00000000
ATVX     1  Mu1.0006  Se1.026                       0.26878139      0.00000000     -0.00000000     -0.00000000
ATVX     1  Mu1.0001  Se1.027                       0.24101023      0.00043142     -0.00067238     -0.00000029
ATVX     1  Mu1.0002  Se1.027                       0.24101023      0.00055256     -0.00086071     -0.00000048
ATVX     1  Mu1.0001  Se1.028                       0.24101023     -0.00055256      0.00086071     -0.00000048
ATVX     1  Mu1.0002  Se1.028                       0.24101023      0.00043142     -0.00067238     -0.00000029
ATVX     1  Mu1.0222  Se1.031                       1.87458454      0.06268430     -0.03239018     -0.00203036
ATVX     1  Mu1.0221  Se1.032                       1.87458454     -0.06268430      0.03239018     -0.00203036
AIVX     1  Mu1.0087  In1.011 Se1.033               3.16915155     -0.09506752      0.02924445     -0.00278020
AIVX     1  Mu1.0090  In1.011 Se1.033               3.18298920     -0.08697928      0.02754313     -0.00239568
AIVX     1  Mu1.0031  In1.011 Se1.037               3.57394899     -0.15266777      0.04209272     -0.00642620
AIVX     1  Mu1.0055  In1.011 Se1.038               3.80765968      0.09946988     -0.02573100     -0.00255946
AIVX     1  Mu1.0056  In1.011 Se1.038               3.82816032      0.12092183     -0.03116453     -0.00376847
AIVX     1  Mu1.0037  In1.011 Se1.041               3.66248523     -0.10440203      0.02820554     -0.00294472
BVATM    1  Mu1.0001  Se1.032 Se1.031               2.13751387      0.06704210     -0.03171371     -0.00212615
BVATM    1  Mu1.0001  Se1.038 Se1.037               5.02341247     -0.12917182      0.02571595     -0.00332178
--
 
   (Skipping property calculation,
    use PROP keyword to activate)
--
 
  Total CASPT2 energies:
::    CASPT2 Root  1     Total energy:  -1345.86189833
 
  A NEW JOBIPH FILE NAMED 'JOBMIX' IS PREPARED.
********************************************************************************
--- Stop Module: caspt2 at Thu Dec  5 11:01:22 2024 /rc=_RC_ALL_IS_WELL_ ---
*** files: xmldump
    saved to directory /home/grierjones/DDCASPT2/iron_oxo_DDCASPT2/cluster/2.92
--- Module caspt2 spent 5 minutes 47 seconds ---

>>> EXPORT i = B

>>> EXPORT j = P

>>> IF (-FILE GMJ_e2_${i}_${j}.csv)

>>> COPY /tmp/2.92/GMJ_RHS_B_P.csv /home/grierjones/DDCASPT2/iron_oxo_DDCASPT2/cluster/2.92/GMJ_RHS_B_P.csv

>>> COPY /tmp/2.92/GMJ_IVECW_B_P.csv /home/grierjones/DDCASPT2/iron_oxo_DDCASPT2/cluster/2.92/GMJ_IVECW_B_P.csv

>>> COPY /tmp/2.92/GMJ_IVECX_B_P.csv /home/grierjones/DDCASPT2/iron_oxo_DDCASPT2/cluster/2.92/GMJ_IVECX_B_P.csv

>>> COPY /tmp/2.92/GMJ_IVECC2_B_P.csv /home/grierjones/DDCASPT2/iron_oxo_DDCASPT2/cluster/2.92/GMJ_IVECC2_B_P.csv

>>> COPY /tmp/2.92/GMJ_e2_B_P.csv /home/grierjones/DDCASPT2/iron_oxo_DDCASPT2/cluster/2.92/GMJ_e2_B_P.csv

>>> END FOREACH

>>> EXPORT j = M

>>> IF (-FILE GMJ_e2_${i}_${j}.csv)

>>> COPY /tmp/2.92/GMJ_RHS_B_M.csv /home/grierjones/DDCASPT2/iron_oxo_DDCASPT2/cluster/2.92/GMJ_RHS_B_M.csv

>>> COPY /tmp/2.92/GMJ_IVECW_B_M.csv /home/grierjones/DDCASPT2/iron_oxo_DDCASPT2/cluster/2.92/GMJ_IVECW_B_M.csv

>>> COPY /tmp/2.92/GMJ_IVECX_B_M.csv /home/grierjones/DDCASPT2/iron_oxo_DDCASPT2/cluster/2.92/GMJ_IVECX_B_M.csv

>>> COPY /tmp/2.92/GMJ_IVECC2_B_M.csv /home/grierjones/DDCASPT2/iron_oxo_DDCASPT2/cluster/2.92/GMJ_IVECC2_B_M.csv

>>> COPY /tmp/2.92/GMJ_e2_B_M.csv /home/grierjones/DDCASPT2/iron_oxo_DDCASPT2/cluster/2.92/GMJ_e2_B_M.csv

>>> END FOREACH

>>> END FOREACH

>>> EXPORT i = E

>>> EXPORT j = P

>>> IF (-FILE GMJ_e2_${i}_${j}.csv)

>>> COPY /tmp/2.92/GMJ_RHS_E_P.csv /home/grierjones/DDCASPT2/iron_oxo_DDCASPT2/cluster/2.92/GMJ_RHS_E_P.csv

>>> COPY /tmp/2.92/GMJ_IVECW_E_P.csv /home/grierjones/DDCASPT2/iron_oxo_DDCASPT2/cluster/2.92/GMJ_IVECW_E_P.csv

>>> COPY /tmp/2.92/GMJ_IVECX_E_P.csv /home/grierjones/DDCASPT2/iron_oxo_DDCASPT2/cluster/2.92/GMJ_IVECX_E_P.csv

>>> COPY /tmp/2.92/GMJ_IVECC2_E_P.csv /home/grierjones/DDCASPT2/iron_oxo_DDCASPT2/cluster/2.92/GMJ_IVECC2_E_P.csv

>>> COPY /tmp/2.92/GMJ_e2_E_P.csv /home/grierjones/DDCASPT2/iron_oxo_DDCASPT2/cluster/2.92/GMJ_e2_E_P.csv

>>> END FOREACH

>>> EXPORT j = M

>>> IF (-FILE GMJ_e2_${i}_${j}.csv)

>>> COPY /tmp/2.92/GMJ_RHS_E_M.csv /home/grierjones/DDCASPT2/iron_oxo_DDCASPT2/cluster/2.92/GMJ_RHS_E_M.csv

>>> COPY /tmp/2.92/GMJ_IVECW_E_M.csv /home/grierjones/DDCASPT2/iron_oxo_DDCASPT2/cluster/2.92/GMJ_IVECW_E_M.csv

>>> COPY /tmp/2.92/GMJ_IVECX_E_M.csv /home/grierjones/DDCASPT2/iron_oxo_DDCASPT2/cluster/2.92/GMJ_IVECX_E_M.csv

>>> COPY /tmp/2.92/GMJ_IVECC2_E_M.csv /home/grierjones/DDCASPT2/iron_oxo_DDCASPT2/cluster/2.92/GMJ_IVECC2_E_M.csv

>>> COPY /tmp/2.92/GMJ_e2_E_M.csv /home/grierjones/DDCASPT2/iron_oxo_DDCASPT2/cluster/2.92/GMJ_e2_E_M.csv

>>> END FOREACH

>>> END FOREACH

>>> EXPORT i = F

>>> EXPORT j = P

>>> IF (-FILE GMJ_e2_${i}_${j}.csv)

>>> COPY /tmp/2.92/GMJ_RHS_F_P.csv /home/grierjones/DDCASPT2/iron_oxo_DDCASPT2/cluster/2.92/GMJ_RHS_F_P.csv

>>> COPY /tmp/2.92/GMJ_IVECW_F_P.csv /home/grierjones/DDCASPT2/iron_oxo_DDCASPT2/cluster/2.92/GMJ_IVECW_F_P.csv

>>> COPY /tmp/2.92/GMJ_IVECX_F_P.csv /home/grierjones/DDCASPT2/iron_oxo_DDCASPT2/cluster/2.92/GMJ_IVECX_F_P.csv

>>> COPY /tmp/2.92/GMJ_IVECC2_F_P.csv /home/grierjones/DDCASPT2/iron_oxo_DDCASPT2/cluster/2.92/GMJ_IVECC2_F_P.csv

>>> COPY /tmp/2.92/GMJ_e2_F_P.csv /home/grierjones/DDCASPT2/iron_oxo_DDCASPT2/cluster/2.92/GMJ_e2_F_P.csv

>>> END FOREACH

>>> EXPORT j = M

>>> IF (-FILE GMJ_e2_${i}_${j}.csv)

>>> COPY /tmp/2.92/GMJ_RHS_F_M.csv /home/grierjones/DDCASPT2/iron_oxo_DDCASPT2/cluster/2.92/GMJ_RHS_F_M.csv

>>> COPY /tmp/2.92/GMJ_IVECW_F_M.csv /home/grierjones/DDCASPT2/iron_oxo_DDCASPT2/cluster/2.92/GMJ_IVECW_F_M.csv

>>> COPY /tmp/2.92/GMJ_IVECX_F_M.csv /home/grierjones/DDCASPT2/iron_oxo_DDCASPT2/cluster/2.92/GMJ_IVECX_F_M.csv

>>> COPY /tmp/2.92/GMJ_IVECC2_F_M.csv /home/grierjones/DDCASPT2/iron_oxo_DDCASPT2/cluster/2.92/GMJ_IVECC2_F_M.csv

>>> COPY /tmp/2.92/GMJ_e2_F_M.csv /home/grierjones/DDCASPT2/iron_oxo_DDCASPT2/cluster/2.92/GMJ_e2_F_M.csv

>>> END FOREACH

>>> END FOREACH

>>> EXPORT i = G

>>> EXPORT j = P

>>> IF (-FILE GMJ_e2_${i}_${j}.csv)

>>> COPY /tmp/2.92/GMJ_RHS_G_P.csv /home/grierjones/DDCASPT2/iron_oxo_DDCASPT2/cluster/2.92/GMJ_RHS_G_P.csv

>>> COPY /tmp/2.92/GMJ_IVECW_G_P.csv /home/grierjones/DDCASPT2/iron_oxo_DDCASPT2/cluster/2.92/GMJ_IVECW_G_P.csv

>>> COPY /tmp/2.92/GMJ_IVECX_G_P.csv /home/grierjones/DDCASPT2/iron_oxo_DDCASPT2/cluster/2.92/GMJ_IVECX_G_P.csv

>>> COPY /tmp/2.92/GMJ_IVECC2_G_P.csv /home/grierjones/DDCASPT2/iron_oxo_DDCASPT2/cluster/2.92/GMJ_IVECC2_G_P.csv

>>> COPY /tmp/2.92/GMJ_e2_G_P.csv /home/grierjones/DDCASPT2/iron_oxo_DDCASPT2/cluster/2.92/GMJ_e2_G_P.csv

>>> END FOREACH

>>> EXPORT j = M

>>> IF (-FILE GMJ_e2_${i}_${j}.csv)

>>> COPY /tmp/2.92/GMJ_RHS_G_M.csv /home/grierjones/DDCASPT2/iron_oxo_DDCASPT2/cluster/2.92/GMJ_RHS_G_M.csv

>>> COPY /tmp/2.92/GMJ_IVECW_G_M.csv /home/grierjones/DDCASPT2/iron_oxo_DDCASPT2/cluster/2.92/GMJ_IVECW_G_M.csv

>>> COPY /tmp/2.92/GMJ_IVECX_G_M.csv /home/grierjones/DDCASPT2/iron_oxo_DDCASPT2/cluster/2.92/GMJ_IVECX_G_M.csv

>>> COPY /tmp/2.92/GMJ_IVECC2_G_M.csv /home/grierjones/DDCASPT2/iron_oxo_DDCASPT2/cluster/2.92/GMJ_IVECC2_G_M.csv

>>> COPY /tmp/2.92/GMJ_e2_G_M.csv /home/grierjones/DDCASPT2/iron_oxo_DDCASPT2/cluster/2.92/GMJ_e2_G_M.csv

>>> END FOREACH

>>> END FOREACH

>>> EXPORT i = H

>>> EXPORT j = P

>>> IF (-FILE GMJ_e2_${i}_${j}.csv)

>>> COPY /tmp/2.92/GMJ_RHS_H_P.csv /home/grierjones/DDCASPT2/iron_oxo_DDCASPT2/cluster/2.92/GMJ_RHS_H_P.csv

>>> COPY /tmp/2.92/GMJ_IVECW_H_P.csv /home/grierjones/DDCASPT2/iron_oxo_DDCASPT2/cluster/2.92/GMJ_IVECW_H_P.csv

>>> COPY /tmp/2.92/GMJ_IVECX_H_P.csv /home/grierjones/DDCASPT2/iron_oxo_DDCASPT2/cluster/2.92/GMJ_IVECX_H_P.csv

>>> COPY /tmp/2.92/GMJ_IVECC2_H_P.csv /home/grierjones/DDCASPT2/iron_oxo_DDCASPT2/cluster/2.92/GMJ_IVECC2_H_P.csv

>>> COPY /tmp/2.92/GMJ_e2_H_P.csv /home/grierjones/DDCASPT2/iron_oxo_DDCASPT2/cluster/2.92/GMJ_e2_H_P.csv

>>> END FOREACH

>>> EXPORT j = M

>>> IF (-FILE GMJ_e2_${i}_${j}.csv)

>>> COPY /tmp/2.92/GMJ_RHS_H_M.csv /home/grierjones/DDCASPT2/iron_oxo_DDCASPT2/cluster/2.92/GMJ_RHS_H_M.csv

>>> COPY /tmp/2.92/GMJ_IVECW_H_M.csv /home/grierjones/DDCASPT2/iron_oxo_DDCASPT2/cluster/2.92/GMJ_IVECW_H_M.csv

>>> COPY /tmp/2.92/GMJ_IVECX_H_M.csv /home/grierjones/DDCASPT2/iron_oxo_DDCASPT2/cluster/2.92/GMJ_IVECX_H_M.csv

>>> COPY /tmp/2.92/GMJ_IVECC2_H_M.csv /home/grierjones/DDCASPT2/iron_oxo_DDCASPT2/cluster/2.92/GMJ_IVECC2_H_M.csv

>>> COPY /tmp/2.92/GMJ_e2_H_M.csv /home/grierjones/DDCASPT2/iron_oxo_DDCASPT2/cluster/2.92/GMJ_e2_H_M.csv

>>> END FOREACH

>>> END FOREACH

>>> EXPORT i = A

>>> IF (-FILE GMJ_e2_$i.csv)

>>> COPY /tmp/2.92/GMJ_RHS_A.csv /home/grierjones/DDCASPT2/iron_oxo_DDCASPT2/cluster/2.92/GMJ_RHS_A.csv

>>> COPY /tmp/2.92/GMJ_IVECW_A.csv /home/grierjones/DDCASPT2/iron_oxo_DDCASPT2/cluster/2.92/GMJ_IVECW_A.csv

>>> COPY /tmp/2.92/GMJ_IVECX_A.csv /home/grierjones/DDCASPT2/iron_oxo_DDCASPT2/cluster/2.92/GMJ_IVECX_A.csv

>>> COPY /tmp/2.92/GMJ_IVECC2_A.csv /home/grierjones/DDCASPT2/iron_oxo_DDCASPT2/cluster/2.92/GMJ_IVECC2_A.csv

>>> COPY /tmp/2.92/GMJ_e2_A.csv /home/grierjones/DDCASPT2/iron_oxo_DDCASPT2/cluster/2.92/GMJ_e2_A.csv

>>> END FOREACH

>>> EXPORT i = C

>>> IF (-FILE GMJ_e2_$i.csv)

>>> COPY /tmp/2.92/GMJ_RHS_C.csv /home/grierjones/DDCASPT2/iron_oxo_DDCASPT2/cluster/2.92/GMJ_RHS_C.csv

>>> COPY /tmp/2.92/GMJ_IVECW_C.csv /home/grierjones/DDCASPT2/iron_oxo_DDCASPT2/cluster/2.92/GMJ_IVECW_C.csv

>>> COPY /tmp/2.92/GMJ_IVECX_C.csv /home/grierjones/DDCASPT2/iron_oxo_DDCASPT2/cluster/2.92/GMJ_IVECX_C.csv

>>> COPY /tmp/2.92/GMJ_IVECC2_C.csv /home/grierjones/DDCASPT2/iron_oxo_DDCASPT2/cluster/2.92/GMJ_IVECC2_C.csv

>>> COPY /tmp/2.92/GMJ_e2_C.csv /home/grierjones/DDCASPT2/iron_oxo_DDCASPT2/cluster/2.92/GMJ_e2_C.csv

>>> END FOREACH

>>> EXPORT i = D

>>> IF (-FILE GMJ_e2_$i.csv)

>>> COPY /tmp/2.92/GMJ_RHS_D.csv /home/grierjones/DDCASPT2/iron_oxo_DDCASPT2/cluster/2.92/GMJ_RHS_D.csv

>>> COPY /tmp/2.92/GMJ_IVECW_D.csv /home/grierjones/DDCASPT2/iron_oxo_DDCASPT2/cluster/2.92/GMJ_IVECW_D.csv

>>> COPY /tmp/2.92/GMJ_IVECX_D.csv /home/grierjones/DDCASPT2/iron_oxo_DDCASPT2/cluster/2.92/GMJ_IVECX_D.csv

>>> COPY /tmp/2.92/GMJ_IVECC2_D.csv /home/grierjones/DDCASPT2/iron_oxo_DDCASPT2/cluster/2.92/GMJ_IVECC2_D.csv

>>> COPY /tmp/2.92/GMJ_e2_D.csv /home/grierjones/DDCASPT2/iron_oxo_DDCASPT2/cluster/2.92/GMJ_e2_D.csv

>>> END FOREACH

.########################.
.# Non-zero return code #.
.########################.

    Timing: Wall=472.82 User=468.90 System=3.81
************************************
*** WorkDir at /tmp/2.92 cleaned ***
************************************
