[Molden Format]
[N_Atoms]
                     2
[Atoms] (AU)
F1          1      9           0.00000000      0.00000000      0.00000000
LI2         2      3           0.00000000      0.00000000      4.91328792
[Charge] (Mulliken)
 -0.357468768799780     
  0.357468768799761     
[GTO] (AU)
   1
   s  14
  1.031094600E+05  1.713099991E-04
  1.528100700E+04  7.123999962E-04
  3.441539200E+03  2.990479984E-03
  9.670948300E+02  1.164036994E-02
  3.140353400E+02  3.968642979E-02
  1.134423000E+02  1.128546094E-01
  4.464472700E+01  2.473650687E-01
  1.894287400E+01  3.672702681E-01
  8.532743000E+00  2.896286985E-01
  3.919401000E+00  7.786681959E-02
  1.568157000E+00  4.562139976E-03
  6.232900000E-01  2.468879987E-03
  2.408610000E-01  1.106309994E-03
  8.430100000E-02  1.739699991E-04
   s  14
  1.031094600E+05 -4.044999995E-05
  1.528100700E+04 -1.682299998E-04
  3.441539200E+03 -7.084299991E-04
  9.670948300E+02 -2.767999996E-03
  3.140353400E+02 -9.611379987E-03
  1.134423000E+02 -2.833957996E-02
  4.464472700E+01 -6.839343991E-02
  1.894287400E+01 -1.237379298E-01
  8.532743000E+00 -1.512859698E-01
  3.919401000E+00 -9.099909988E-03
  1.568157000E+00  3.716257695E-01
  6.232900000E-01  5.500214393E-01
  2.408610000E-01  2.092318697E-01
  8.430100000E-02  8.074639989E-03
   p   9
  2.453302900E+02  1.024860004E-03
  5.691900500E+01  8.344290032E-03
  1.760456800E+01  4.078927016E-02
  6.274995000E+00  1.351370605E-01
  2.447030000E+00  2.798830811E-01
  9.950600000E-01  3.597966414E-01
  4.039730000E-01  3.055347412E-01
  1.548100000E-01  1.354703905E-01
  5.418400000E-02  2.804449011E-02
 
   2
   s  14
  9.497934400E+03  9.668999974E-05
  1.416811200E+03  6.087099984E-04
  3.214599400E+02  3.101519992E-03
  9.112416300E+01  1.266904997E-02
  2.999989100E+01  4.248012989E-02
  1.101763100E+01  1.150183297E-01
  4.372801000E+00  2.398650094E-01
  1.831256000E+00  3.584300090E-01
  8.022610000E-01  3.048527792E-01
  3.626480000E-01  8.824261976E-02
  1.139950000E-01 -8.445899977E-04
  5.123700000E-02 -7.943959979E-03
  2.246800000E-02 -3.764419990E-03
  7.860000000E-03 -8.868999976E-05
   s  14
  9.497934400E+03 -1.244999993E-05
  1.416811200E+03 -7.838999954E-05
  3.214599400E+02 -4.007099976E-04
  9.112416300E+01 -1.645249990E-03
  2.999989100E+01 -5.634599967E-03
  1.101763100E+01 -1.590780991E-02
  4.372801000E+00 -3.612581979E-02
  1.831256000E+00 -6.459927962E-02
  8.022610000E-01 -1.008321794E-01
  3.626480000E-01 -9.757613942E-02
  1.139950000E-01  2.301215886E-01
  5.123700000E-02  6.102389764E-01
  2.246800000E-02  2.849406083E-01
  7.860000000E-03  4.026899976E-03
   p   9
  1.311950400E+01  1.524940000E-03
  3.077424200E+00  8.314830000E-03
  1.098800500E+00  1.933203000E-02
  4.357784000E-01  4.934293000E-02
  1.802432000E-01  1.623554000E-01
  7.613330000E-02  3.847505400E-01
  3.254650000E-02  4.336100400E-01
  1.401820000E-02  1.287005900E-01
  4.906400000E-03 -1.018520000E-03
 
[MO]
Sym=     1a  
Ene=   -26.1040
Spin= Alpha
Occup=    2.00000
   1         1.00000712
   2        -0.00280090
   3        -0.00000000
   4        -0.00000000
   5         0.00001021
   6        -0.00000628
   7        -0.00032696
   8        -0.00000000
   9        -0.00000000
  10         0.00027557
Sym=     2a  
Ene=    -2.5149
Spin= Alpha
Occup=    2.00000
   1         0.00001782
   2         0.00089572
   3         0.00000000
   4         0.00000000
   5         0.00157467
   6         0.99988741
   7         0.01302829
   8        -0.00000000
   9        -0.00000000
  10         0.00128705
Sym=     3a  
Ene=    -1.3881
Spin= Alpha
Occup=    2.00000
   1         0.00290918
   2         0.99853627
   3        -0.00000001
   4        -0.00000001
   5        -0.05455656
   6        -0.00171002
   7        -0.01231016
   8        -0.00000000
   9        -0.00000000
  10        -0.00663552
Sym=     4a  
Ene=    -0.5144
Spin= Alpha
Occup=    2.00000
   1         0.00000000
   2         0.00000001
   3         0.99375217
   4        -0.09629123
   5        -0.00000018
   6         0.00000000
   7        -0.00000000
   8         0.01577440
   9        -0.00152849
  10         0.00000001
Sym=     5a  
Ene=    -0.5144
Spin= Alpha
Occup=    2.00000
   1        -0.00000000
   2        -0.00000000
   3        -0.09629123
   4        -0.99375217
   5         0.00000015
   6        -0.00000000
   7         0.00000000
   8        -0.00152849
   9        -0.01577440
  10        -0.00000001
Sym=     6a  
Ene=    -0.3360
Spin= Alpha
Occup=    1.81681
   1         0.00923014
   2         0.04352217
   3        -0.00000017
   4        -0.00000011
   5        -0.82151883
   6         0.01951342
   7        -0.46275486
   8        -0.00000004
   9        -0.00000003
  10         0.12635650
Sym=     7a  
Ene=    -0.0003
Spin= Alpha
Occup=    0.18319
   1         0.01853428
   2         0.20668365
   3         0.00000010
   4         0.00000007
   5         0.58487798
   6         0.00115679
   7        -0.87386441
   8        -0.00000009
   9        -0.00000006
  10         0.26492847
Sym=     8a  
Ene=     0.0582
Spin= Alpha
Occup=    0.00000
   1        -0.00000001
   2        -0.00000009
   3         0.01262390
   4        -0.10813075
   5        -0.00000002
   6         0.00000000
   7        -0.00000017
   8        -0.11644595
   9         0.99742477
  10        -0.00000045
Sym=     9a  
Ene=     0.0582
Spin= Alpha
Occup=    0.00000
   1        -0.00000002
   2        -0.00000017
   3        -0.10813075
   4        -0.01262390
   5        -0.00000003
   6         0.00000001
   7        -0.00000031
   8         0.99742477
   9         0.11644595
  10        -0.00000085
Sym=    10a  
Ene=     0.0663
Spin= Alpha
Occup=    0.00000
   1         0.02149454
   2         0.21530375
   3        -0.00000010
   4        -0.00000007
   5         0.06178356
   6        -0.00572911
   7         0.24004589
   8         0.00000083
   9         0.00000057
  10         0.99529913
