[Molden Format]
[N_Atoms]
                     2
[Atoms] (AU)
B1          1      5           0.00000000      0.00000000      0.00000000
B2          2      5           0.00000000      0.00000000      4.15739747
[Charge] (Mulliken)
  4.183554090701591E-003
 -4.183554090725572E-003
[GTO] (AU)
   1
   s  14
  3.336021700E+04  1.039699991E-04
  4.972095200E+03  5.254399956E-04
  1.125641700E+03  2.509059979E-03
  3.164913600E+02  1.031887991E-02
  1.020072600E+02  3.636632969E-02
  3.629587300E+01  1.064607991E-01
  1.397141000E+01  2.403999880E-01
  5.741156000E+00  3.748581168E-01
  2.494268000E+00  3.100066974E-01
  1.114202000E+00  7.922455933E-02
  4.215490000E-01 -4.947589958E-03
  1.696330000E-01 -7.737119935E-03
  6.853500000E-02 -1.501079987E-03
  2.398700000E-02 -1.333299989E-04
   s  14
  3.336021700E+04 -2.030000008E-05
  4.972095200E+03 -1.025700004E-04
  1.125641700E+03 -4.911300020E-04
  3.164913600E+02 -2.026570008E-03
  1.020072600E+02 -7.261010030E-03
  3.629587300E+01 -2.197722009E-02
  1.397141000E+01 -5.408428022E-02
  5.741156000E+00 -1.022402604E-01
  2.494268000E+00 -1.423595206E-01
  1.114202000E+00 -4.658690019E-02
  4.215490000E-01  3.799402916E-01
  1.696330000E-01  5.890463624E-01
  6.853500000E-02  1.749075107E-01
  2.398700000E-02 -1.142030005E-03
   p   9
  5.500000000E+01  1.229800005E-03
  1.336610100E+01  8.827380035E-03
  4.135394000E+00  3.843340015E-02
  1.481256000E+00  1.150031805E-01
  6.021360000E-01  2.733674011E-01
  2.556360000E-01  4.061972116E-01
  1.111510000E-01  3.014967912E-01
  4.764800000E-02  7.684809030E-02
  1.667700000E-02 -8.170000032E-06
 
   2
   s  14
  3.336021700E+04  1.039699991E-04
  4.972095200E+03  5.254399956E-04
  1.125641700E+03  2.509059979E-03
  3.164913600E+02  1.031887991E-02
  1.020072600E+02  3.636632969E-02
  3.629587300E+01  1.064607991E-01
  1.397141000E+01  2.403999880E-01
  5.741156000E+00  3.748581168E-01
  2.494268000E+00  3.100066974E-01
  1.114202000E+00  7.922455933E-02
  4.215490000E-01 -4.947589958E-03
  1.696330000E-01 -7.737119935E-03
  6.853500000E-02 -1.501079987E-03
  2.398700000E-02 -1.333299989E-04
   s  14
  3.336021700E+04 -2.030000008E-05
  4.972095200E+03 -1.025700004E-04
  1.125641700E+03 -4.911300020E-04
  3.164913600E+02 -2.026570008E-03
  1.020072600E+02 -7.261010030E-03
  3.629587300E+01 -2.197722009E-02
  1.397141000E+01 -5.408428022E-02
  5.741156000E+00 -1.022402604E-01
  2.494268000E+00 -1.423595206E-01
  1.114202000E+00 -4.658690019E-02
  4.215490000E-01  3.799402916E-01
  1.696330000E-01  5.890463624E-01
  6.853500000E-02  1.749075107E-01
  2.398700000E-02 -1.142030005E-03
   p   9
  5.500000000E+01  1.229800005E-03
  1.336610100E+01  8.827380035E-03
  4.135394000E+00  3.843340015E-02
  1.481256000E+00  1.150031805E-01
  6.021360000E-01  2.733674011E-01
  2.556360000E-01  4.061972116E-01
  1.111510000E-01  3.014967912E-01
  4.764800000E-02  7.684809030E-02
  1.667700000E-02 -8.170000032E-06
 
[MO]
Sym=     1a  
Ene=    -7.6749
Spin= Alpha
Occup=    2.00000
   1         0.99998213
   2         0.00371983
   3         0.00000000
   4         0.00000000
   5         0.00094581
   6         0.00869552
   7         0.00206866
   8         0.00000000
   9         0.00000000
  10         0.00163032
Sym=     2a  
Ene=    -7.6700
Spin= Alpha
Occup=    2.00000
   1        -0.00868519
   2        -0.00039603
   3        -0.00000000
   4        -0.00000000
   5        -0.00026533
   6         0.99987663
   7         0.01428203
   8        -0.00000000
   9        -0.00000000
  10        -0.00042693
Sym=     3a  
Ene=    -0.5172
Spin= Alpha
Occup=    2.00000
   1        -0.01663997
   2         0.00894160
   3         0.00000000
   4         0.00000000
   5         0.13659585
   6        -0.01899521
   7         0.94534045
   8         0.00000000
   9         0.00000000
  10         0.00126644
Sym=     4a  
Ene=    -0.2236
Spin= Alpha
Occup=    2.00000
   1         0.00000000
   2         0.00000000
   3        -0.08074011
   4         0.63658476
   5        -0.00000000
   6         0.00000000
   7         0.00000000
   8        -0.08342412
   9         0.65774644
  10         0.00000000
Sym=     5a  
Ene=     0.0873
Spin= Alpha
Occup=    0.06862
   1         0.00000000
   2         0.00000000
   3         0.99495862
   4         0.12619383
   5        -0.00000000
   6         0.00000000
   7         0.00000000
   8        -0.01749113
   9        -0.00221846
  10         0.00000000
Sym=     6a  
Ene=    -0.0553
Spin= Alpha
Occup=    1.93138
   1         0.00414944
   2        -0.97742385
   3         0.00000000
   4         0.00000000
   5         0.04112348
   6         0.01240687
   7         0.21615317
   8         0.00000000
   9         0.00000000
  10         0.12385211
Sym=     7a  
Ene=     0.0280
Spin= Alpha
Occup=    0.00000
   1         0.01805385
   2         0.23240480
   3        -0.00000000
   4        -0.00000000
   5        -0.64302176
   6         0.01822527
   7         0.25797171
   8        -0.00000000
   9        -0.00000000
  10         0.63980022
Sym=     8a  
Ene=     0.0915
Spin= Alpha
Occup=    0.00000
   1         0.00000000
   2        -0.00000000
   3         0.09905264
   4        -0.78096749
   5         0.00000000
   6        -0.00000000
   7        -0.00000000
   8        -0.09680293
   9         0.76322997
  10        -0.00000000
Sym=     9a  
Ene=     0.1163
Spin= Alpha
Occup=    0.00000
   1         0.00000000
   2         0.00000000
   3        -0.15876941
   4        -0.02013724
   5        -0.00000000
   6         0.00000000
   7         0.00000000
   8         1.00739488
   9         0.12777116
  10         0.00000000
Sym=    10a  
Ene=     0.3266
Spin= Alpha
Occup=    0.00000
   1        -0.03854963
   2        -0.48565890
   3        -0.00000000
   4        -0.00000000
   5        -0.92162340
   6         0.03834082
   7         0.48803634
   8         0.00000000
   9         0.00000000
  10        -0.92656845
