[Molden Format]
[N_Atoms]
                     2
[Atoms] (AU)
B1          1      5           0.00000000      0.00000000      0.00000000
B2          2      5           0.00000000      0.00000000      4.15739747
[Charge] (Mulliken)
  4.591882429849647E-013
 -4.671818487622659E-013
[GTO] (AU)
   1
   s  14
  3.336021700E+04  1.039699991E-04
  4.972095200E+03  5.254399956E-04
  1.125641700E+03  2.509059979E-03
  3.164913600E+02  1.031887991E-02
  1.020072600E+02  3.636632969E-02
  3.629587300E+01  1.064607991E-01
  1.397141000E+01  2.403999880E-01
  5.741156000E+00  3.748581168E-01
  2.494268000E+00  3.100066974E-01
  1.114202000E+00  7.922455933E-02
  4.215490000E-01 -4.947589958E-03
  1.696330000E-01 -7.737119935E-03
  6.853500000E-02 -1.501079987E-03
  2.398700000E-02 -1.333299989E-04
   s  14
  3.336021700E+04 -2.030000008E-05
  4.972095200E+03 -1.025700004E-04
  1.125641700E+03 -4.911300020E-04
  3.164913600E+02 -2.026570008E-03
  1.020072600E+02 -7.261010030E-03
  3.629587300E+01 -2.197722009E-02
  1.397141000E+01 -5.408428022E-02
  5.741156000E+00 -1.022402604E-01
  2.494268000E+00 -1.423595206E-01
  1.114202000E+00 -4.658690019E-02
  4.215490000E-01  3.799402916E-01
  1.696330000E-01  5.890463624E-01
  6.853500000E-02  1.749075107E-01
  2.398700000E-02 -1.142030005E-03
   p   9
  5.500000000E+01  1.229800005E-03
  1.336610100E+01  8.827380035E-03
  4.135394000E+00  3.843340015E-02
  1.481256000E+00  1.150031805E-01
  6.021360000E-01  2.733674011E-01
  2.556360000E-01  4.061972116E-01
  1.111510000E-01  3.014967912E-01
  4.764800000E-02  7.684809030E-02
  1.667700000E-02 -8.170000032E-06
 
   2
   s  14
  3.336021700E+04  1.039699991E-04
  4.972095200E+03  5.254399956E-04
  1.125641700E+03  2.509059979E-03
  3.164913600E+02  1.031887991E-02
  1.020072600E+02  3.636632969E-02
  3.629587300E+01  1.064607991E-01
  1.397141000E+01  2.403999880E-01
  5.741156000E+00  3.748581168E-01
  2.494268000E+00  3.100066974E-01
  1.114202000E+00  7.922455933E-02
  4.215490000E-01 -4.947589958E-03
  1.696330000E-01 -7.737119935E-03
  6.853500000E-02 -1.501079987E-03
  2.398700000E-02 -1.333299989E-04
   s  14
  3.336021700E+04 -2.030000008E-05
  4.972095200E+03 -1.025700004E-04
  1.125641700E+03 -4.911300020E-04
  3.164913600E+02 -2.026570008E-03
  1.020072600E+02 -7.261010030E-03
  3.629587300E+01 -2.197722009E-02
  1.397141000E+01 -5.408428022E-02
  5.741156000E+00 -1.022402604E-01
  2.494268000E+00 -1.423595206E-01
  1.114202000E+00 -4.658690019E-02
  4.215490000E-01  3.799402916E-01
  1.696330000E-01  5.890463624E-01
  6.853500000E-02  1.749075107E-01
  2.398700000E-02 -1.142030005E-03
   p   9
  5.500000000E+01  1.229800005E-03
  1.336610100E+01  8.827380035E-03
  4.135394000E+00  3.843340015E-02
  1.481256000E+00  1.150031805E-01
  6.021360000E-01  2.733674011E-01
  2.556360000E-01  4.061972116E-01
  1.111510000E-01  3.014967912E-01
  4.764800000E-02  7.684809030E-02
  1.667700000E-02 -8.170000032E-06
 
[MO]
Sym=     1a  
Ene=    -7.6729
Spin= Alpha
Occup=    1.00000
   1         0.70700084
   2         0.00989461
   3         0.00000000
   4        -0.00000000
   5         0.00015398
   6         0.70700086
   7         0.00989461
   8         0.00000000
   9         0.00000000
  10        -0.00015398
Sym=     1a  
Ene=    -7.6729
Spin= Beta
Occup=    1.00000
   1         0.70700084
   2         0.00989461
   3         0.00000000
   4        -0.00000000
   5         0.00015398
   6         0.70700086
   7         0.00989461
   8         0.00000000
   9         0.00000000
  10        -0.00015398
Sym=     2a  
Ene=    -7.6728
Spin= Alpha
Occup=    1.00000
   1        -0.70709069
   2        -0.01025831
   3         0.00000000
   4        -0.00000000
   5        -0.00053437
   6         0.70709067
   7         0.01025831
   8         0.00000000
   9         0.00000000
  10        -0.00053437
Sym=     2a  
Ene=    -7.6728
Spin= Beta
Occup=    1.00000
   1        -0.70709069
   2        -0.01025831
   3         0.00000000
   4        -0.00000000
   5        -0.00053437
   6         0.70709067
   7         0.01025831
   8         0.00000000
   9         0.00000000
  10        -0.00053437
Sym=     3a  
Ene=    -0.5853
Spin= Alpha
Occup=    1.00000
   1        -0.02261663
   2         0.60920184
   3         0.00000000
   4        -0.00000000
   5         0.08167042
   6        -0.02261663
   7         0.60920184
   8         0.00000000
   9        -0.00000000
  10        -0.08167042
Sym=     3a  
Ene=    -0.5853
Spin= Beta
Occup=    1.00000
   1        -0.02261663
   2         0.60920184
   3         0.00000000
   4        -0.00000000
   5         0.08167042
   6        -0.02261663
   7         0.60920184
   8         0.00000000
   9        -0.00000000
  10        -0.08167042
Sym=     4a  
Ene=    -0.4105
Spin= Alpha
Occup=    1.00000
   1         0.00187653
   2        -0.75536226
   3         0.00000000
   4        -0.00000000
   5         0.11353778
   6        -0.00187653
   7         0.75536226
   8         0.00000000
   9        -0.00000000
  10         0.11353778
Sym=     4a  
Ene=    -0.4105
Spin= Beta
Occup=    1.00000
   1         0.00187653
   2        -0.75536226
   3         0.00000000
   4        -0.00000000
   5         0.11353778
   6        -0.00187653
   7         0.75536226
   8         0.00000000
   9        -0.00000000
  10         0.11353778
Sym=     5a  
Ene=    -0.2240
Spin= Alpha
Occup=    1.00000
   1         0.00000000
   2         0.00000000
   3        -0.23540665
   4         0.60846069
   5        -0.00000000
   6         0.00000000
   7         0.00000000
   8        -0.23540665
   9         0.60846069
  10         0.00000000
Sym=     5a  
Ene=    -0.2240
Spin= Beta
Occup=    1.00000
   1         0.00000000
   2         0.00000000
   3        -0.23540665
   4         0.60846069
   5        -0.00000000
   6         0.00000000
   7         0.00000000
   8        -0.23540665
   9         0.60846069
  10         0.00000000
Sym=     6a  
Ene=     0.0265
Spin= Alpha
Occup=    0.00000
   1         0.01805832
   2         0.24798652
   3         0.00000000
   4        -0.00000000
   5        -0.64111912
   6         0.01805832
   7         0.24798652
   8         0.00000000
   9        -0.00000000
  10         0.64111912
Sym=     6a  
Ene=     0.0265
Spin= Beta
Occup=    0.00000
   1         0.01805832
   2         0.24798652
   3         0.00000000
   4        -0.00000000
   5        -0.64111912
   6         0.01805832
   7         0.24798652
   8         0.00000000
   9        -0.00000000
  10         0.64111912
Sym=     7a  
Ene=     0.0531
Spin= Alpha
Occup=    0.00000
   1         0.00000000
   2        -0.00000000
   3         0.60846069
   4         0.23540665
   5         0.00000000
   6        -0.00000000
   7        -0.00000000
   8         0.60846069
   9         0.23540665
  10        -0.00000000
Sym=     7a  
Ene=     0.0531
Spin= Beta
Occup=    0.00000
   1         0.00000000
   2        -0.00000000
   3         0.60846069
   4         0.23540665
   5         0.00000000
   6        -0.00000000
   7        -0.00000000
   8         0.60846069
   9         0.23540665
  10        -0.00000000
Sym=     8a  
Ene=     0.0912
Spin= Alpha
Occup=    0.00000
   1         0.00000000
   2         0.00000000
   3         0.28085111
   4        -0.72592198
   5         0.00000000
   6        -0.00000000
   7        -0.00000000
   8        -0.28085111
   9         0.72592198
  10         0.00000000
Sym=     8a  
Ene=     0.0912
Spin= Beta
Occup=    0.00000
   1         0.00000000
   2         0.00000000
   3         0.28085111
   4        -0.72592198
   5         0.00000000
   6        -0.00000000
   7        -0.00000000
   8        -0.28085111
   9         0.72592198
  10         0.00000000
Sym=     9a  
Ene=     0.1621
Spin= Alpha
Occup=    0.00000
   1        -0.00000000
   2        -0.00000000
   3        -0.72592198
   4        -0.28085111
   5         0.00000000
   6        -0.00000000
   7         0.00000000
   8         0.72592198
   9         0.28085111
  10        -0.00000000
Sym=     9a  
Ene=     0.1621
Spin= Beta
Occup=    0.00000
   1        -0.00000000
   2        -0.00000000
   3        -0.72592198
   4        -0.28085111
   5         0.00000000
   6        -0.00000000
   7         0.00000000
   8         0.72592198
   9         0.28085111
  10        -0.00000000
Sym=    10a  
Ene=     0.3267
Spin= Alpha
Occup=    0.00000
   1         0.03843494
   2         0.49186219
   3        -0.00000000
   4         0.00000000
   5         0.92337548
   6        -0.03843494
   7        -0.49186219
   8         0.00000000
   9        -0.00000000
  10         0.92337548
Sym=    10a  
Ene=     0.3267
Spin= Beta
Occup=    0.00000
   1         0.03843494
   2         0.49186219
   3        -0.00000000
   4         0.00000000
   5         0.92337548
   6        -0.03843494
   7        -0.49186219
   8         0.00000000
   9        -0.00000000
  10         0.92337548
