   This run of MOLCAS is using the pymolcas driver

                             OPE
                             OPE          NMOL  CASOP  ENMOLC A   SO
                 OPE        NMOLC        AS  OP EN  MO LC     AS  OP
                OPENM       OL CA        SO  PE NM  OL CA     SOP EN
                OP EN      MO   LC       AS  OP ENMOL  CASO   PENMOL
                OP  EN     MO   LC       AS  OP EN     MO     LC ASO
               OP   E  NMOL  C  AS       OP  EN MO     LC     AS  OP
               OP  E   NMO   LC AS        OPEN  MO     LCASOP EN   M
               O  PEN   MO  LCA  SO
            OPE   NMO   L   CAS    OP
        OPENMOL  CASOP     ENMOL   CASOPE
     OPENMOLCA   SOPENMOLCASOPEN   MOLCASOPE
    OPENMOLCAS   OP           EN   MOL    CAS
    OPENMOLCAS       OP  ENM        O     LCA
    OPENMOLCAS    OPEN  MOLCASO     P  E  NMO
    OPENMOLCAS     OP               E  N  MOL
    OPENMOLCA   SO           PENM   O  L  CAS    OPEN    MO    LCAS
    OPENMOLCA   SOP           ENM   O  L  CAS   OP  EN  MOLC  AS   O
    OPENMOLCA   SOPE           NM      O  LCA   S      OP  EN MO
    OPENMOLC                AS         O  PEN   M      OL  CA  SOPE
    OPENMO        LCASOPE  NMOL        C  ASO   P      ENMOLC     AS
    OPE     NMO      LCA  SO     P     E   NM   OL  CA SO  PE N   MO
          OPENMOLCA            SOPE   NMO        LCAS  O    P  ENMO
     OPENMOLCASOPENMOLCASOPENMOLCASOPENMOLCA
        OPENMOLCASOPENMOLCASOPENMOLCASOPE
            OPENMOLCASOPENMOLCASOPENM
               OPENMOLCASOPENMOLCA        version: 1d1d16313-dirty
                   OPENMOLCASO
                       OPE                tag:

 OpenMolcas is free software; you can redistribute it and/or modify it
 under the terms of the GNU Lesser General Public License version 2.1.
 OpenMolcas is distributed in the hope that it will be useful, but it
 is provided "as is" and without any express or implied warranties.
 For more details see the full text of the license in the file
 LICENSE or in <http://www.gnu.org/licenses/>.

                 Copyright (C) The OpenMolcas Authors
           For the author list and the recommended citation,
                   consult the file CONTRIBUTORS.md

           *************************************************
           * pymolcas version py2.28                       *
           *   build c4a6d18ded8cb6cad61d2372a9abd97c      *
           *   (after the EMIL interpreter by V. Veryazov) *
           *************************************************

configuration info
------------------
C Compiler ID: IntelLLVM
C flags: -std=gnu99
Fortran Compiler ID: IntelLLVM
Fortran flags: -standard-semantics -fltconsistency -fpp -i8 -heap-arrays
Definitions: _MOLCAS_;_I8_;_LINUX_
Parallel: OFF (GA=OFF)


   --------------------------------------------------------------------------------
  |
  |              Project: ozone_131.00
  |       Submitted from: /home/grierjones/DDCASPT2/ozone/ANO-RCC-VDZP/ozone_131.00
  |         Scratch area: /tmp/ozone_131.00
  |      Save outputs to: /home/grierjones/DDCASPT2/ozone/ANO-RCC-VDZP/ozone_131.00
  |               Molcas: /home/grierjones/Test/build
  |
  | Scratch area is empty
  |
  |       MOLCAS_DRIVER = /usr/local/pymolcas
  | MOLCAS_KEEP_WORKDIR = NO
  |  MOLCAS_NEW_WORKDIR = YES
  |       MOLCAS_NPROCS = 1
  |        MOLCAS_PRINT = NORMAL
  |       MOLCAS_SOURCE = /home/grierjones/Test
  |    MOLCAS_STRUCTURE = 0
  |
   --------------------------------------------------------------------------------

++ ---------   Input file   ---------

&GATEWAY
coord=ozone_131.00.xyz
Basis = ANO-RCC-VDZP
Group = nosymm
Expert
End of Input

&SEWARD
End of Input

&SCF

>>> COPY $WorkDir/ozone_131.00.scf.h5 $CurrDir/

&RASSCF
Title= RASSCF
FileOrb
/home/grierjones/DDCASPT2/ozone/ANO-RCC-VDZP/ozone_130.75/ozone_130.75.RasOrb
NACTEL
4 0 0
Inactive
10
RAS2
3
Symmetry
1
Spin
1
orblisting
all
ITERation
300 200

>>> COPY $WorkDir/ozone_131.00.rasscf.h5 $CurrDir/

>>> COPY $WorkDir/GMJ_Fock_MO.csv $CurrDir/ozone_131.00.GMJ_Fock_MO.csv

>>> COPY $WorkDir/GMJ_PT2_Fock_MO.csv $CurrDir/ozone_131.00.GMJ_PT2_Fock_MO.csv

&MOTRA
Frozen=0
LUMORB

>>> COPY $WorkDir/GMJ_one_int_indx.csv $CurrDir/ozone_131.00.GMJ_one_int_indx.csv

>>> COPY $WorkDir/GMJ_one_int.csv $CurrDir/ozone_131.00.GMJ_one_int.csv

>>> COPY $WorkDir/GMJ_two_int_indx.csv $CurrDir/ozone_131.00.GMJ_two_int_indx.csv

>>> COPY $WorkDir/GMJ_two_int.csv $CurrDir/ozone_131.00.GMJ_two_int.csv

&CASPT2
Frozen
0
MAXITER
50

>>> FOREACH i IN (B,E,F,G,H)

  >>> FOREACH j IN (P,M)

    >>> IF (-FILE GMJ_e2_${i}_${j}.csv)

      >>> COPY $WorkDir/GMJ_RHS_${i}_${j}.csv $CurrDir/GMJ_RHS_${i}_${j}.csv

      >>> COPY $WorkDir/GMJ_IVECW_${i}_${j}.csv $CurrDir/GMJ_IVECW_${i}_${j}.csv

      >>> COPY $WorkDir/GMJ_IVECX_${i}_${j}.csv $CurrDir/GMJ_IVECX_${i}_${j}.csv

      >>> COPY $WorkDir/GMJ_IVECC2_${i}_${j}.csv $CurrDir/GMJ_IVECC2_${i}_${j}.csv

      >>> COPY $WorkDir/GMJ_e2_${i}_${j}.csv $CurrDir/GMJ_e2_${i}_${j}.csv

    >>> END IF

  >>> END FOREACH

>>> END FOREACH

>>> FOREACH i IN (A,C,D)

  >>> IF (-FILE GMJ_e2_$i.csv)

    >>> COPY $WorkDir/GMJ_RHS_$i.csv $CurrDir/GMJ_RHS_$i.csv

    >>> COPY $WorkDir/GMJ_IVECW_$i.csv $CurrDir/GMJ_IVECW_$i.csv

    >>> COPY $WorkDir/GMJ_IVECX_$i.csv $CurrDir/GMJ_IVECX_$i.csv

    >>> COPY $WorkDir/GMJ_IVECC2_$i.csv $CurrDir/GMJ_IVECC2_$i.csv

    >>> COPY $WorkDir/GMJ_e2_$i.csv $CurrDir/GMJ_e2_$i.csv

  >>> END IF

>>> END FOREACH

-- ----------------------------------

--- Start Module: gateway at Fri Jan 24 15:48:41 2025 ---
 
()()()()()()()()()()()()()()()()()()()()()()()()()()()()()()()()()()()()()()()()()()()()()()()()()()

                                              &GATEWAY

                                   only a single process is used
                       available to each process: 2.0 GB of memory, 1 thread?
()()()()()()()()()()()()()()()()()()()()()()()()()()()()()()()()()()()()()()()()()()()()()()()()()()
 
 ###############################################################################
 ###############################################################################
 ###                                                                         ###
 ###                                                                         ###
 ###                                                                         ###
 ###    WARNING: EXPERT option is ON!                                        ###
 ###                                                                         ###
 ###                                                                         ###
 ###############################################################################
 ###############################################################################
 
++    Symmetry information:
      ---------------------
 
                    Character Table for C1 
 
                             E  
                    a        1  x, y, xy, Rz, z, xz, Ry, yz, Rx, I
--
 
 
++    Basis set information:
      ----------------------
 
 
      Basis set label: O.ANO-RCC...3S2P1D.
 
      Electronic valence basis set:
      ------------------
      Associated Effective Charge   8.000000 au
      Associated Actual Charge      8.000000 au
      Nuclear Model: Point charge
 
      Shell  nPrim  nBasis  Cartesian Spherical Contaminant
         s      14       3        X                  
         p       9       2        X                  
         d       4       1                 X         
--
 
 
++    Molecular structure info:
      -------------------------
 
                    ************************************************ 
                    **** Cartesian Coordinates / Bohr, Angstrom **** 
                    ************************************************ 
 
     Center  Label                x              y              z                     x              y              z
        1      O1               1.001513       2.197621       0.000000              0.529978       1.162931       0.000000
        2      O2               0.000000       0.000000       0.000000              0.000000       0.000000       0.000000
        3      O3               1.001513      -2.197621       0.000000              0.529978      -1.162931       0.000000
 
                    *************************************** 
                    *    InterNuclear Distances / Bohr    * 
                    *************************************** 
 
               1 O1            2 O2            3 O3    
    1 O1       0.000000
    2 O2       2.415071        0.000000
    3 O3       4.395242        2.415071        0.000000
 
                    ******************************************* 
                    *    InterNuclear Distances / Angstrom    * 
                    ******************************************* 
 
               1 O1            2 O2            3 O3    
    1 O1       0.000000
    2 O2       1.278000        0.000000
    3 O3       2.325862        1.278000        0.000000
 
                    ************************************** 
                    *    Valence Bond Angles / Degree    * 
                    ************************************** 
                          Atom centers                 Phi
                      1 O1       2 O2       3 O3       131.00
--
 
 
            Nuclear Potential Energy             67.56171496 au
 
 ###############################################################################
 ###############################################################################
 ###                                                                         ###
 ###                                                                         ###
 ###    There were warnings during the execution                             ###
 ###    Please, check the output with care!                                  ###
 ###                                                                         ###
 ###                                                                         ###
 ###############################################################################
 ###############################################################################
--- Stop Module: gateway at Fri Jan 24 15:48:41 2025 /rc=_RC_ALL_IS_WELL_ ---
*** files: xmldump
    saved to directory /home/grierjones/DDCASPT2/ozone/ANO-RCC-VDZP/ozone_131.00

--- Start Module: seward at Fri Jan 24 15:48:41 2025 ---
 
()()()()()()()()()()()()()()()()()()()()()()()()()()()()()()()()()()()()()()()()()()()()()()()()()()

                                              &SEWARD

                                   only a single process is used
                       available to each process: 2.0 GB of memory, 1 thread?
()()()()()()()()()()()()()()()()()()()()()()()()()()()()()()()()()()()()()()()()()()()()()()()()()()
 
 ###############################################################################
 ###############################################################################
 ###                                                                         ###
 ###                                                                         ###
 ###                                                                         ###
 ###    WARNING: EXPERT option is ON!                                        ###
 ###                                                                         ###
 ###                                                                         ###
 ###############################################################################
 ###############################################################################
               SEWARD will generate:
                  Multipole Moment integrals up to order  2
                  Kinetic Energy integrals
                  Nuclear Attraction integrals (point charge)
                  One-Electron Hamiltonian integrals
                  Velocity integrals
                  Relativistic Douglas-Kroll-Hess integrals:
                    - Parametrization         : EXP
                    - DKH order of Hamiltonian: 2
                    - DKH order of Properties : 0
                         - multipole moment operators
                         - electric potential operators
                         - contact operators
                  Atomic mean-field integrals
                  Two-Electron Repulsion integrals
 
                   Integrals are discarded if absolute value <: 0.10E-13
                   Integral cutoff threshold is set to       <: 0.10E-15
 
            Nuclear Potential Energy             67.56171496 au
 
 
      Basis set specifications :
      Symmetry species         a  
      Basis functions           42
 
 
  Input file to MOLDEN was generated!
 
 ###############################################################################
 ###############################################################################
 ###                                                                         ###
 ###                                                                         ###
 ###    There were warnings during the execution                             ###
 ###    Please, check the output with care!                                  ###
 ###                                                                         ###
 ###                                                                         ###
 ###############################################################################
 ###############################################################################
forrtl: warning (525): IEEE_DIVIDE_BY_ZERO is signaling
forrtl: warning (526): IEEE_INVALID is signaling
forrtl: warning (528): IEEE_UNDERFLOW is signaling
--- Stop Module: seward at Fri Jan 24 15:48:42 2025 /rc=_RC_ALL_IS_WELL_ ---
*** files: ozone_131.00.GssOrb ozone_131.00.guessorb.h5 ozone_131.00.guessorb.molden xmldump
    saved to directory /home/grierjones/DDCASPT2/ozone/ANO-RCC-VDZP/ozone_131.00
--- Module seward spent 1 second ---

*** symbolic link created: INPORB -> ozone_131.00.GssOrb
--- Start Module: scf at Fri Jan 24 15:48:42 2025 ---
 
()()()()()()()()()()()()()()()()()()()()()()()()()()()()()()()()()()()()()()()()()()()()()()()()()()

                                                &SCF

                                   only a single process is used
                       available to each process: 2.0 GB of memory, 1 thread?
()()()()()()()()()()()()()()()()()()()()()()()()()()()()()()()()()()()()()()()()()()()()()()()()()()
 
++    Input section:
      --------------
 
      Header of the integral files:
      
       Integrals generated by seward 4.2.0  , Fri Jan 24 15:48:41 2025
 
 
      Cartesian coordinates in Angstrom:
      -----------------------------------------------------
      No.  Label        X            Y            Z        
      -----------------------------------------------------
       1   O1         0.52997800   1.16293100   0.00000000
       2   O2         0.00000000   0.00000000   0.00000000
       3   O3         0.52997800  -1.16293100   0.00000000
      -----------------------------------------------------
      Nuclear repulsion energy =   67.56171496
--
 
++    Orbital specifications:
      -----------------------
 
      Symmetry species               1
                                     a
      Frozen orbitals                0
      Occupied orbitals             12
      Secondary orbitals            30
      Deleted orbitals               0
      Total number of orbitals      42
      Number of basis functions     42
--
 
      Molecular charge                           0.000
 
++    Optimization specifications:
      ----------------------------
 
      SCF Algorithm: Conventional
      Minimized density differences are used
      Number of density matrices in core                5
      Maximum number of NDDO SCF iterations           400
      Maximum number of HF SCF iterations             400
      Threshold for SCF energy change            0.10E-08
      Threshold for density matrix               0.10E-03
      Threshold for Fock matrix                  0.15E-03
      Threshold for linear dependence            0.10E-08
      Threshold at which DIIS is turned on       0.15E+00
      Threshold at which QNR/C2DIIS is turned on 0.75E-01
      Threshold for Norm(delta) (QNR/C2DIIS)     0.20E-04
      DIIS extrapolation of the SCF procedure
      All orbitals punched on: SCFORB
--
 
      Input vectors read from INPORB
      Orbital file label: *Guess orbitals
 
 
++ Convergence information
                                   SCF        iterations: Energy and convergence statistics
 
Iter     Tot. SCF        One-elec.       Two-elec.     Energy      Max Dij or  Max Fij      DNorm      TNorm      AccCon     Time
         Energy          Energy          Energy        Change      Delta Norm                                                in Sec.
   1  -223.908252300  -438.782443560   147.312476302   0.00E+00    0.62E+00*   0.26E+00*    0.73E+01   0.76E+02   None         0.
   2  -224.125225486  -444.867388342   153.180447898  -0.22E+00*   0.24E+00*   0.18E+00*    0.24E+01   0.77E+02   EDIIS        0.
   3  -224.439243516  -442.376416749   150.375458276  -0.31E+00*   0.23E+00*   0.93E-01*    0.75E+00   0.76E+02   EDIIS        0.
   4  -224.440206998  -443.060821655   151.058899700  -0.96E-03*   0.16E-01*   0.46E-01*    0.23E+00   0.77E+02   EDIIS        0.
   5  -224.478915079  -442.671481163   150.630851127  -0.39E-01*   0.82E-02*   0.32E-02*    0.39E-01   0.76E+02   c2DIIS       0.
   6  -224.479076870  -442.696879317   150.656087489  -0.16E-03*   0.37E-02*   0.19E-02*    0.86E-02   0.77E+02   QNRc2DIIS    0.
   7  -224.479118725  -442.695731398   150.654897716  -0.42E-04*   0.70E-02*   0.16E-02*    0.40E-02   0.77E+02   QNRc2DIIS    0.
   8  -224.479142479  -442.691467798   150.650610361  -0.24E-04*   0.12E-02*   0.56E-03*    0.21E-02   0.76E+02   QNRc2DIIS    0.
   9  -224.479146657  -442.699235772   150.658374158  -0.42E-05*   0.51E-03*   0.25E-03*    0.63E-03   0.77E+02   QNRc2DIIS    0.
  10  -224.479147144  -442.694799222   150.653937121  -0.49E-06*   0.94E-04*   0.51E-04     0.65E-03   0.77E+02   QNRc2DIIS    0.
  11  -224.479147165  -442.696063114   150.655200992  -0.21E-07*   0.22E-04*   0.98E-05     0.73E-04   0.77E+02   QNRc2DIIS    0.
  12  -224.479147167  -442.696016454   150.655154330  -0.13E-08*   0.77E-05    0.29E-05     0.21E-04   0.77E+02   QNRc2DIIS    0.
  13  -224.479147167  -442.695977528   150.655115405  -0.11E-09    0.10E-05    0.38E-06     0.12E-02   0.77E+02   QNRc2DIIS    0.
 
       Convergence after 13 Macro Iterations
--
 
 *****************************************************************************************************************************
 *                                                                                                                           *
 *                                             SCF/KS-DFT Program, Final results                                             *
 *                                                                                                                           *
 *                                                                                                                           *
 *                                                                                                                           *
 *                                                       Final Results                                                       *
 *                                                                                                                           *
 *****************************************************************************************************************************
 
::    Total SCF energy                               -224.4791471667
      One-electron energy                            -442.6959775284
      Two-electron energy                             150.6551154046
      Nuclear repulsion energy                         67.5617149572
      Kinetic energy (interpolated)                   225.3930790361
      Virial theorem                                    0.9959451645
      Total spin, S(S+1)                                0.0000000000
      Total spin, S                                     0.0000000000
      Max non-diagonal density matrix element           0.0000011703
      Max non-diagonal Fock matrix element              0.0000000893
 
 
      All orbitals with orbital energies smaller than  E(LUMO)+0.5 are printed
 
++    Molecular orbitals:
      -------------------
 
      Title: SCF orbitals

      Molecular orbitals for symmetry species 1: a  
 
          Orbital            1         2         3         4         5         6         7         8         9        10    
          Energy          -20.9080  -20.7274  -20.7274   -1.7429   -1.4559   -1.0892   -0.8358   -0.8076   -0.7778   -0.5866
          Occ. No.          2.0000    2.0000    2.0000    2.0000    2.0000    2.0000    2.0000    2.0000    2.0000    2.0000
 
        1 O1     1s         0.0019   -0.7072    0.7072   -0.0152    0.0105    0.0106   -0.0106   -0.0191    0.0000    0.0050
        2 O1     2s        -0.0002   -0.0006    0.0005    0.3198   -0.5739    0.6105   -0.2217   -0.4057    0.0000    0.0551
        3 O1     3s        -0.0002    0.0000   -0.0001   -0.0229    0.0131    0.0137   -0.0207   -0.0277    0.0000    0.0066
        4 O1     2px        0.0001    0.0004   -0.0003   -0.0406    0.0549    0.0946    0.2079   -0.3032    0.0000   -0.5880
        5 O1     3px        0.0003    0.0000    0.0002    0.0118   -0.0077   -0.0157   -0.0186    0.0196   -0.0000   -0.0103
        6 O1     2py        0.0001    0.0008   -0.0009   -0.1044    0.0798    0.1166   -0.3004   -0.3129    0.0000    0.4153
        7 O1     3py        0.0002   -0.0005    0.0003    0.0249   -0.0158   -0.0172    0.0292    0.0262   -0.0000    0.0018
        8 O1     2pz       -0.0000   -0.0000   -0.0000    0.0000   -0.0000   -0.0000    0.0000    0.0000    0.3782   -0.0000
        9 O1     3pz        0.0000   -0.0000   -0.0000   -0.0000    0.0000    0.0000   -0.0000   -0.0000   -0.0247   -0.0000
       10 O1     3d2-      -0.0000    0.0000   -0.0000    0.0127   -0.0124   -0.0105   -0.0024    0.0264   -0.0000    0.0043
       11 O1     3d1-       0.0000   -0.0000   -0.0000    0.0000    0.0000   -0.0000   -0.0000   -0.0000   -0.0278   -0.0000
       12 O1     3d0        0.0001    0.0001   -0.0001   -0.0095    0.0088    0.0045   -0.0085   -0.0158    0.0000    0.0048
       13 O1     3d1+       0.0000   -0.0000   -0.0000   -0.0000   -0.0000    0.0000   -0.0000   -0.0000   -0.0126    0.0000
       14 O1     3d2+       0.0001   -0.0001    0.0001   -0.0144    0.0079    0.0056   -0.0252   -0.0138    0.0000    0.0182
       15 O2     1s         1.0001    0.0000   -0.0029   -0.0214    0.0000   -0.0161   -0.0064    0.0000    0.0000    0.0000
       16 O2     2s         0.0006    0.0000   -0.0007    0.6601   -0.0000   -0.6476   -0.0761    0.0000   -0.0000    0.0000
       17 O2     3s        -0.0002    0.0000   -0.0006   -0.0432    0.0000   -0.0072   -0.0103    0.0000    0.0000    0.0000
       18 O2     2px        0.0008    0.0000   -0.0003    0.1008   -0.0000    0.2080    0.6983    0.0000   -0.0000   -0.0000
       19 O2     3px       -0.0009    0.0000   -0.0004   -0.0238    0.0000   -0.0235   -0.0567   -0.0000    0.0000   -0.0000
       20 O2     2py        0.0000    0.0008    0.0000   -0.0000   -0.3306    0.0000   -0.0000    0.5296   -0.0000   -0.1315
       21 O2     3py        0.0000    0.0010    0.0000    0.0000    0.0756   -0.0000    0.0000   -0.0780    0.0000    0.0052
       22 O2     2pz        0.0000   -0.0000   -0.0000   -0.0000   -0.0000   -0.0000    0.0000    0.0000    0.6943    0.0000
       23 O2     3pz       -0.0000   -0.0000   -0.0000    0.0000   -0.0000   -0.0000    0.0000   -0.0000   -0.0257   -0.0000
       24 O2     3d2-      -0.0000    0.0002    0.0000   -0.0000   -0.0358    0.0000   -0.0000    0.0242   -0.0000   -0.0392
       25 O2     3d1-       0.0000   -0.0000    0.0000   -0.0000   -0.0000    0.0000    0.0000    0.0000   -0.0000   -0.0000
       26 O2     3d0       -0.0003   -0.0000    0.0003   -0.0178    0.0000   -0.0053   -0.0149   -0.0000    0.0000    0.0000
       27 O2     3d1+       0.0000   -0.0000   -0.0000   -0.0000    0.0000    0.0000    0.0000    0.0000    0.0297    0.0000
       28 O2     3d2+      -0.0000   -0.0000    0.0002   -0.0177    0.0000   -0.0001    0.0203    0.0000   -0.0000    0.0000
       29 O3     1s         0.0019    0.7072    0.7072   -0.0152   -0.0105    0.0106   -0.0106    0.0191   -0.0000   -0.0050
       30 O3     2s        -0.0002    0.0006    0.0005    0.3198    0.5739    0.6105   -0.2217    0.4057   -0.0000   -0.0551
       31 O3     3s        -0.0002   -0.0000   -0.0001   -0.0229   -0.0131    0.0137   -0.0207    0.0277   -0.0000   -0.0066
       32 O3     2px        0.0001   -0.0004   -0.0003   -0.0406   -0.0549    0.0946    0.2079    0.3032   -0.0000    0.5880
       33 O3     3px        0.0003   -0.0000    0.0002    0.0118    0.0077   -0.0157   -0.0186   -0.0196    0.0000    0.0103
       34 O3     2py       -0.0001    0.0008    0.0009    0.1044    0.0798   -0.1166    0.3004   -0.3129    0.0000    0.4153
       35 O3     3py       -0.0002   -0.0005   -0.0003   -0.0249   -0.0158    0.0172   -0.0292    0.0262   -0.0000    0.0018
       36 O3     2pz       -0.0000    0.0000    0.0000   -0.0000   -0.0000    0.0000    0.0000    0.0000    0.3782    0.0000
       37 O3     3pz       -0.0000    0.0000    0.0000   -0.0000   -0.0000    0.0000   -0.0000   -0.0000   -0.0247   -0.0000
       38 O3     3d2-       0.0000    0.0000    0.0000   -0.0127   -0.0124    0.0105    0.0024    0.0264   -0.0000    0.0043
       39 O3     3d1-      -0.0000    0.0000   -0.0000   -0.0000   -0.0000   -0.0000    0.0000    0.0000    0.0278    0.0000
       40 O3     3d0        0.0001   -0.0001   -0.0001   -0.0095   -0.0088    0.0045   -0.0085    0.0158   -0.0000   -0.0048
       41 O3     3d1+       0.0000    0.0000    0.0000   -0.0000   -0.0000   -0.0000   -0.0000   -0.0000   -0.0126   -0.0000
       42 O3     3d2+       0.0001    0.0001    0.0001   -0.0144   -0.0079    0.0056   -0.0252    0.0138   -0.0000   -0.0182
 
          Orbital           11        12        13        14        15        16    
          Energy           -0.5349   -0.4993   -0.0490    0.2274    0.2834    0.4452
          Occ. No.          2.0000    2.0000    0.0000    0.0000    0.0000    0.0000
 
        1 O1     1s         0.0053   -0.0000    0.0000   -0.0481   -0.1414   -0.0395
        2 O1     2s         0.0331   -0.0000    0.0000   -0.4735   -1.0634   -0.2318
        3 O1     3s         0.0208   -0.0000    0.0000   -0.0936   -0.3533   -0.1687
        4 O1     2px        0.6664    0.0000   -0.0000    0.1489    0.4117   -0.0614
        5 O1     3px        0.0165    0.0000   -0.0000    0.0778    0.2766    0.4051
        6 O1     2py       -0.0450   -0.0000    0.0000    0.8082    0.5285    0.0207
        7 O1     3py       -0.0242    0.0000    0.0000    0.3180    0.5280    0.2368
        8 O1     2pz        0.0000   -0.7104    0.6611    0.0000   -0.0000    0.0000
        9 O1     3pz        0.0000   -0.0441    0.1288   -0.0000   -0.0000   -0.0000
       10 O1     3d2-      -0.0115   -0.0000   -0.0000   -0.0016   -0.0187   -0.0015
       11 O1     3d1-      -0.0000    0.0231    0.0085   -0.0000   -0.0000   -0.0000
       12 O1     3d0        0.0049   -0.0000    0.0000   -0.0005    0.0135    0.0191
       13 O1     3d1+      -0.0000    0.0101    0.0049    0.0000    0.0000    0.0000
       14 O1     3d2+       0.0033   -0.0000   -0.0000   -0.0126    0.0175    0.0550
       15 O2     1s         0.0189    0.0000   -0.0000    0.1531    0.0000    0.0889
       16 O2     2s         0.2452    0.0000   -0.0000    1.2884    0.0000    0.5017
       17 O2     3s         0.0336    0.0000    0.0000    0.3133    0.0000    0.2572
       18 O2     2px       -0.5362   -0.0000   -0.0000    0.6443    0.0000   -0.0471
       19 O2     3px       -0.0193   -0.0000   -0.0000    0.2539    0.0000    0.5984
       20 O2     2py        0.0000    0.0000   -0.0000   -0.0000    1.2812   -0.0000
       21 O2     3py        0.0000    0.0000    0.0000   -0.0000    0.9318   -0.0000
       22 O2     2pz       -0.0000   -0.0000   -0.8489    0.0000    0.0000   -0.0000
       23 O2     3pz       -0.0000   -0.0000   -0.1406   -0.0000    0.0000   -0.0000
       24 O2     3d2-       0.0000    0.0000   -0.0000   -0.0000    0.0381   -0.0000
       25 O2     3d1-       0.0000   -0.0525    0.0000    0.0000   -0.0000   -0.0000
       26 O2     3d0        0.0193    0.0000   -0.0000    0.0218    0.0000   -0.0602
       27 O2     3d1+      -0.0000   -0.0000    0.0013    0.0000    0.0000    0.0000
       28 O2     3d2+       0.0352    0.0000    0.0000    0.0286    0.0000   -0.1128
       29 O3     1s         0.0053    0.0000    0.0000   -0.0481    0.1414   -0.0395
       30 O3     2s         0.0331    0.0000    0.0000   -0.4735    1.0634   -0.2318
       31 O3     3s         0.0208    0.0000    0.0000   -0.0936    0.3533   -0.1687
       32 O3     2px        0.6664    0.0000    0.0000    0.1489   -0.4117   -0.0614
       33 O3     3px        0.0165   -0.0000    0.0000    0.0778   -0.2766    0.4051
       34 O3     2py        0.0450   -0.0000    0.0000   -0.8082    0.5285   -0.0207
       35 O3     3py        0.0242   -0.0000    0.0000   -0.3180    0.5280   -0.2368
       36 O3     2pz       -0.0000    0.7104    0.6611   -0.0000   -0.0000    0.0000
       37 O3     3pz       -0.0000    0.0441    0.1288   -0.0000   -0.0000   -0.0000
       38 O3     3d2-       0.0115    0.0000   -0.0000    0.0016   -0.0187    0.0015
       39 O3     3d1-      -0.0000    0.0231   -0.0085    0.0000    0.0000    0.0000
       40 O3     3d0        0.0049    0.0000   -0.0000   -0.0005   -0.0135    0.0191
       41 O3     3d1+       0.0000   -0.0101    0.0049   -0.0000   -0.0000   -0.0000
       42 O3     3d2+       0.0033    0.0000   -0.0000   -0.0126   -0.0175    0.0550
--
 
 
++    Molecular charges:
      ------------------
 
      Mulliken charges per centre and basis function type
      ---------------------------------------------------
 
                O1      O2      O3    
      1s       2.0003  2.0002  2.0003
      2s       1.9248  1.7547  1.9248
      2px      1.8439  1.6398  1.8439
      2pz      1.3850  1.1880  1.3850
      2py      0.9919  1.0112  0.9919
      3s      -0.0079 -0.0153 -0.0079
      3px     -0.0159 -0.0254 -0.0159
      3pz     -0.0135 -0.0084 -0.0135
      3py     -0.0030  0.0201 -0.0030
      3d2+     0.0148  0.0348  0.0148
      3d1+     0.0025  0.0069  0.0025
      3d0      0.0055  0.0079  0.0055
      3d1-     0.0116  0.0424  0.0116
      3d2-     0.0125  0.0382  0.0125
      Total    8.1525  7.6951  8.1525
 
      N-E     -0.1525  0.3049 -0.1525
 
      Total electronic charge=   24.000000
 
      Total            charge=   -0.000000
--
 
 
  Input file to MOLDEN was generated!
 
 
++    Static properties:
      ------------------
 
 
      LoProp Charges per center
 

                   O1       O2       O3    
      Nuclear      8.0000   8.0000   8.0000
      Electronic  -8.1981  -7.6037  -8.1981
 
      Total       -0.1981   0.3963  -0.1981
--
 
 
++    Natural Bond Order analysis
      ---------------------------
      Based on LoProp computed density
      -------------------------------------------------------------------------------------
      Atom A       Atom B       Bond Order | Atom A       Atom B       Bond Order
        O1           O2             2.000  |   O2           O3             2.000
      -------------------------------------------------------------------------------------
      NBO located     12.000 core electrons.
      NBO located      3.953 lone pair electrons.
      NBO located      8.000 electrons involved in    2 bonds.
      The remaining    0.047 electrons are to be considered as diffuse
--
 
 
++    Molecular properties:
      ---------------------
 
      Charge (e):
                      =   -0.0000
      Dipole Moment (Debye):
      Origin of the operator (Ang)=    0.0000    0.0000    0.0000
                   X= -5.2974E-01               Y= -2.5826E-11               Z= -2.1067E-14           Total=  5.2974E-01
      Quadrupole Moment (Debye*Ang):
      Origin of the operator (Ang)=    0.3533    0.0000    0.0000
                  XX= -1.6299E+01              XY= -1.3208E-11              XZ=  6.9903E-15              YY= -1.7519E+01
                  YZ=  9.0344E-14              ZZ= -1.5169E+01
      In traceless form (Debye*Ang)
                  XX=  4.4770E-02              XY= -1.9812E-11              XZ=  1.0485E-14              YY= -1.7853E+00
                  YZ=  1.3552E-13              ZZ=  1.7405E+00
--
 
 
  Input file to MOLDEN was generated!
 
 ###############################################################################
 ###############################################################################
 ###                                                                         ###
 ###                                                                         ###
 ###    RunFile label nBas                                                   ###
 ###    was used       78 times                                              ###
 ###                                                                         ###
 ###                                                                         ###
 ###############################################################################
 ###############################################################################
forrtl: warning (528): IEEE_UNDERFLOW is signaling
--- Stop Module: scf at Fri Jan 24 15:48:43 2025 /rc=_RC_ALL_IS_WELL_ ---
*** files: ozone_131.00.LprOrb ozone_131.00.LoProp.molden ozone_131.00.scf.molden ozone_131.00.ScfOrb ozone_131.00.scf.h5 xmldump
    saved to directory /home/grierjones/DDCASPT2/ozone/ANO-RCC-VDZP/ozone_131.00

>>> COPY /tmp/ozone_131.00/ozone_131.00.scf.h5 /home/grierjones/DDCASPT2/ozone/ANO-RCC-VDZP/ozone_131.00/

*** symbolic link created: INPORB -> ozone_131.00.ScfOrb
--- Start Module: rasscf at Fri Jan 24 15:48:43 2025 ---
 
()()()()()()()()()()()()()()()()()()()()()()()()()()()()()()()()()()()()()()()()()()()()()()()()()()

                                              &RASSCF

                                   only a single process is used
                       available to each process: 2.0 GB of memory, 1 thread?
()()()()()()()()()()()()()()()()()()()()()()()()()()()()()()()()()()()()()()()()()()()()()()()()()()
 
 
 *************** WARNING ****************
 ###############################################################################
 ###############################################################################
 ###                                                                         ###
 ###                                                                         ###
 ###    Too many macro-iterations.                                           ###
 ###                                                                         ###
 ###                                                                         ###
 ###############################################################################
 ###############################################################################
 Too many macro-iterations requested.
 Reset to maximum, new MAXIT=     200
 ****************************************
 
 *************** WARNING ****************
 ###############################################################################
 ###############################################################################
 ###                                                                         ###
 ###                                                                         ###
 ###    Too many SX-iterations.                                              ###
 ###                                                                         ###
 ###                                                                         ###
 ###############################################################################
 ###############################################################################
 Too many SX-iterations requested.
 Reset to maximum, new ITMAX=     100
 ****************************************
 
      Header of the ONEINT file:
      --------------------------
      
      Integrals generated by seward 4.2.0  , Fri Jan 24 15:48:41 2025
 
 
      OrdInt status: non-squared
 
 
      Cartesian coordinates in Angstrom:
      -----------------------------------------------------
      No.  Label        X            Y            Z        
      -----------------------------------------------------
       1   O1         0.52997800   1.16293100   0.00000000
       2   O2         0.00000000   0.00000000   0.00000000
       3   O3         0.52997800  -1.16293100   0.00000000
      -----------------------------------------------------
      Nuclear repulsion energy =   67.56171496
 
++    Wave function specifications:
      -----------------------------
 
      Number of closed shell electrons          20
      Number of electrons in active shells       4
      Max number of holes in RAS1 space          0
      Max nr of electrons in RAS3 space          0
      Number of inactive orbitals               10
      Number of active orbitals                  3
      Number of secondary orbitals              29
      Spin quantum number                      0.0
      State symmetry                             1
--
 
++    Orbital specifications:
      -----------------------
 
      Symmetry species                           1
                                                 a
      Frozen orbitals                            0
      Inactive orbitals                         10
      Active orbitals                            3
      RAS1 orbitals                              0
      RAS2 orbitals                              3
      RAS3 orbitals                              0
      Secondary orbitals                        29
      Deleted orbitals                           0
      Number of basis functions                 42
--
 
++    CI expansion specifications:
      ----------------------------
 
      Number of CSFs                             6
      Number of determinants                     6
      Number of root(s) required                 1
      Root chosen for geometry opt.              1
      CI root used                               1
         
      highest root included in the CI            1
      max. size of the explicit Hamiltonian      6
--
 
++    Optimization specifications:
      ----------------------------
 
      RASSCF algorithm: Conventional
      Maximum number of macro iterations       200
      Maximum number of SX iterations          100
      Threshold for RASSCF energy            0.100E-07
      Threshold for max MO rotation          0.100E+00
      Threshold for max BLB element          0.100E-03
      Level shift parameter                  0.500E+00
      Make Quasi-Newton update
--
 
      The MO-coefficients are taken from the file:
      /home/grierjones/DDCASPT2/ozone/ANO-RCC-VDZP/ozone_130.75/ozone_130.75.RasOrb                                                   
      Title: RASSCF average (pseudo-natural) orbitals                                      
 
      Total molecular charge    0.00
 
      ************************************************************************************************************************
      *                                                                                                                      *
      *                                            Wave function control section                                             *
      *                                                                                                                      *
      ************************************************************************************************************************
 
 
                                         RASSCF iterations: Energy and convergence statistics
                                         ----------------------------------------------------
 
      Iter CI   SX   CI       RASSCF       Energy    max ROT     max BLB   max BLB  Level Ln srch  Step   QN   Walltime
          iter iter root      energy       change     param      element    value   shift minimum  type update hh:mm:ss
 Nr of preliminary CI iterations:   1
        1   1    3    1  -224.57159011    0.00E+00  -0.52E-03    9  18 1 -0.13E-02*  0.19   0.00    SX    NO    0:00:00
        2   1    3    1  -224.57159514   -0.50E-05*  0.28E-03    9  18 1 -0.69E-03*  0.19   0.00    SX    NO    0:00:00
        3   1    3    1  -224.57159629   -0.11E-05* -0.18E-03    7  14 1 -0.45E-03*  0.19   0.00    SX    NO    0:00:00
        4   1    3    1  -224.57159669   -0.40E-06* -0.10E-03    9  18 1 -0.22E-03*  0.19   0.00    SX    NO    0:00:00
        5   1    3    1  -224.57159682   -0.13E-06* -0.15E-03    7  14 1 -0.17E-03*  0.19   2.50    LS   YES    0:00:00
        6   1    3    1  -224.57159688   -0.62E-07* -0.39E-04    8  18 1  0.13E-03*  0.19   0.88    QN   YES    0:00:00
        7   1    3    1  -224.57159691   -0.24E-07*  0.13E-04    8  18 1 -0.57E-04   0.19   0.80    QN   YES    0:00:00
        8   1    2    1  -224.57159691    0.54E-09  -0.43E-05    8  18 1  0.50E-04   0.19   0.38    QN   YES    0:00:00
      Convergence after  8 iterations
 
  Dmat in MO in SXCTL bf call to SXHAM                                                                                    
  mat. size =     3x    3
 
        1.9916839150962131
       -0.0000000000019618      1.6482919325545162
        0.0007603271223260     -0.0000000000030748      0.3600241523492712
        9   1    2    1  -224.57159691   -0.90E-09  -0.43E-05    8  18 1  0.15E-04   0.19   0.38    QN   YES    0:00:00
 
      ************************************************************************************************************************
                                                      Wave function printout:
                       occupation of active orbitals, and spin coupling of open shells (u,d: Spin up or down)
      ************************************************************************************************************************
 
      Note: transformation to natural orbitals
      has been made, which may change the order of the CSFs.
 
      printout of CI-coefficients larger than  0.05 for root  1
      energy=    -224.571597
      conf/sym  111     Coeff  Weight
             1  220  -0.90553 0.81999
             3  202   0.41935 0.17585
             6  022   0.06448 0.00416
 
      Natural orbitals and occupation numbers for root  1
      sym 1:   1.991684   1.648292   0.360024
 
      ************************************************************************************************************************
      *                                                                                                                      *
      *                                                    Final results                                                     *
      *                                                                                                                      *
      ************************************************************************************************************************
 
 
++    Wave function specifications:
      -----------------------------
 
      Number of closed shell electrons          20
      Number of electrons in active shells       4
      Max number of holes in RAS1 space          0
      Max nr of electrons in RAS3 space          0
      Number of inactive orbitals               10
      Number of active orbitals                  3
      Number of secondary orbitals              29
      Spin quantum number                      0.0
      State symmetry                             1
--
 
++    Orbital specifications:
      -----------------------
 
      Symmetry species                           1
                                                 a
      Frozen orbitals                            0
      Inactive orbitals                         10
      Active orbitals                            3
      RAS1 orbitals                              0
      RAS2 orbitals                              3
      RAS3 orbitals                              0
      Secondary orbitals                        29
      Deleted orbitals                           0
      Number of basis functions                 42
--
 
++    CI expansion specifications:
      ----------------------------
 
      Number of CSFs                             6
      Number of determinants                     6
      Number of root(s) required                 1
      CI root used                               1
      highest root included in the CI            1
      Root passed to geometry opt.               1
--
 
++    Final optimization conditions:
      ------------------------------
 
      Average CI energy                            -224.57159691
      RASSCF energy for state  1                   -224.57159691
      Super-CI energy                                -0.00000000
      RASSCF energy change                           -0.00000000
      Max change in MO coefficients               0.439E-05
      Max non-diagonal density matrix element    -0.428E-05
      Maximum BLB matrix element                  0.149E-04
      (orbital pair   8,  18 in symmetry   1)
      Norm of electronic gradient            0.446E-04
--
 
 
      Final state energy(ies):
      ------------------------
 
::    RASSCF root number  1 Total energy:   -224.57159691
 
++    Molecular orbitals:
      -------------------
 
      Pseudonatural active orbitals and approximate occupation numbers
 
 
 
 
      Molecular orbitals for symmetry species 1: a  
 
 
      Orbital                1         2         3         4         5         6         7         8         9        10
      Energy          -20.8080  -20.7211  -20.7211   -1.7067   -1.4375   -1.0712   -0.7970   -0.7911   -0.5864   -0.5176
      Occ. No.          2.0000    2.0000    2.0000    2.0000    2.0000    2.0000    2.0000    2.0000    2.0000    2.0000
 
    1 O1     1s         0.0038   -0.7072    0.7072   -0.0149    0.0093    0.0119   -0.0090   -0.0180    0.0052    0.0051
    2 O1     2s        -0.0001   -0.0006    0.0005    0.3400   -0.5926    0.6132   -0.1725   -0.3721    0.0563    0.0237
    3 O1     3s        -0.0001    0.0001   -0.0001   -0.0236    0.0119    0.0160   -0.0184   -0.0264    0.0071    0.0240
    4 O1     2px        0.0002    0.0004   -0.0003   -0.0413    0.0532    0.1001    0.2638   -0.3258   -0.5821    0.6520
    5 O1     3px        0.0004    0.0000    0.0002    0.0117   -0.0072   -0.0149   -0.0211    0.0187   -0.0111    0.0215
    6 O1     2py        0.0000    0.0007   -0.0009   -0.1083    0.0784    0.1434   -0.3180   -0.3347    0.4253    0.0029
    7 O1     3py        0.0002   -0.0005    0.0003    0.0252   -0.0148   -0.0197    0.0250    0.0241    0.0029   -0.0263
    8 O1     2pz        0.0000    0.0000    0.0000    0.0000   -0.0000    0.0000    0.0000    0.0000   -0.0000   -0.0000
    9 O1     3pz        0.0000    0.0000   -0.0000    0.0000    0.0000   -0.0000    0.0000    0.0000    0.0000    0.0000
   10 O1     3d2-      -0.0001    0.0000   -0.0000    0.0124   -0.0118   -0.0111   -0.0044    0.0261    0.0040   -0.0099
   11 O1     3d1-       0.0000   -0.0000    0.0000   -0.0000   -0.0000    0.0000   -0.0000    0.0000   -0.0000    0.0000
   12 O1     3d0        0.0001    0.0001   -0.0002   -0.0104    0.0095    0.0052   -0.0082   -0.0159    0.0053    0.0054
   13 O1     3d1+       0.0000    0.0000    0.0000   -0.0000    0.0000   -0.0000   -0.0000    0.0000    0.0000   -0.0000
   14 O1     3d2+       0.0001   -0.0001    0.0001   -0.0147    0.0078    0.0074   -0.0248   -0.0143    0.0176    0.0062
   15 O2     1s         1.0001    0.0000   -0.0055   -0.0228    0.0000   -0.0137   -0.0086   -0.0000    0.0000    0.0228
   16 O2     2s         0.0007    0.0000   -0.0007    0.6318   -0.0000   -0.6490   -0.1223   -0.0000    0.0000    0.3047
   17 O2     3s        -0.0004    0.0000   -0.0006   -0.0372    0.0000   -0.0126   -0.0126   -0.0000    0.0000    0.0419
   18 O2     2px        0.0009    0.0000   -0.0003    0.1017   -0.0000    0.1514    0.6421    0.0000    0.0000   -0.5836
   19 O2     3px       -0.0011    0.0000   -0.0004   -0.0226    0.0000   -0.0161   -0.0412   -0.0000    0.0000   -0.0330
   20 O2     2py        0.0000    0.0007    0.0000   -0.0000   -0.2981    0.0000   -0.0000    0.4966   -0.1318    0.0000
   21 O2     3py        0.0000    0.0009    0.0000    0.0000    0.0716   -0.0000    0.0000   -0.0715   -0.0003    0.0000
   22 O2     2pz       -0.0000    0.0000    0.0000    0.0000    0.0000    0.0000    0.0000    0.0000   -0.0000   -0.0000
   23 O2     3pz       -0.0000   -0.0000   -0.0000   -0.0000    0.0000   -0.0000    0.0000   -0.0000   -0.0000   -0.0000
   24 O2     3d2-       0.0000    0.0002    0.0000   -0.0000   -0.0352    0.0000   -0.0000    0.0271   -0.0382    0.0000
   25 O2     3d1-      -0.0000   -0.0000    0.0000   -0.0000   -0.0000    0.0000    0.0000    0.0000   -0.0000   -0.0000
   26 O2     3d0       -0.0001   -0.0000    0.0003   -0.0173    0.0000   -0.0050   -0.0160   -0.0000    0.0000    0.0230
   27 O2     3d1+      -0.0000    0.0000    0.0000   -0.0000   -0.0000    0.0000    0.0000    0.0000    0.0000    0.0000
   28 O2     3d2+      -0.0000   -0.0000    0.0002   -0.0171    0.0000    0.0012    0.0233    0.0000    0.0000    0.0308
   29 O3     1s         0.0038    0.7072    0.7072   -0.0149   -0.0093    0.0119   -0.0090    0.0180   -0.0052    0.0051
   30 O3     2s        -0.0001    0.0006    0.0005    0.3400    0.5926    0.6132   -0.1725    0.3721   -0.0563    0.0237
   31 O3     3s        -0.0001   -0.0001   -0.0001   -0.0236   -0.0119    0.0160   -0.0184    0.0264   -0.0071    0.0240
   32 O3     2px        0.0002   -0.0004   -0.0003   -0.0413   -0.0532    0.1001    0.2638    0.3258    0.5821    0.6520
   33 O3     3px        0.0004   -0.0000    0.0002    0.0117    0.0072   -0.0149   -0.0211   -0.0187    0.0111    0.0215
   34 O3     2py       -0.0000    0.0007    0.0009    0.1083    0.0784   -0.1434    0.3180   -0.3347    0.4253   -0.0029
   35 O3     3py       -0.0002   -0.0005   -0.0003   -0.0252   -0.0148    0.0197   -0.0250    0.0241    0.0029    0.0263
   36 O3     2pz        0.0000   -0.0000    0.0000   -0.0000    0.0000   -0.0000    0.0000    0.0000    0.0000    0.0000
   37 O3     3pz        0.0000    0.0000   -0.0000    0.0000   -0.0000    0.0000   -0.0000   -0.0000    0.0000    0.0000
   38 O3     3d2-       0.0001    0.0000    0.0000   -0.0124   -0.0118    0.0111    0.0044    0.0261    0.0040    0.0099
   39 O3     3d1-       0.0000    0.0000   -0.0000    0.0000    0.0000    0.0000   -0.0000    0.0000    0.0000   -0.0000
   40 O3     3d0        0.0001   -0.0001   -0.0002   -0.0104   -0.0095    0.0052   -0.0082    0.0159   -0.0053    0.0054
   41 O3     3d1+      -0.0000    0.0000    0.0000    0.0000    0.0000    0.0000   -0.0000   -0.0000   -0.0000    0.0000
   42 O3     3d2+       0.0001    0.0001    0.0001   -0.0147   -0.0078    0.0074   -0.0248    0.0143   -0.0176    0.0062
 
 
      Orbital               11        12        13        14        15        16        17        18        19        20
      Energy            0.0000    0.0000    0.0000    0.2404    0.2898    0.4611    0.4639    0.5822    0.5826    0.6915
      Occ. No.          1.9917    1.6483    0.3600    0.0000    0.0000    0.0000    0.0000    0.0000    0.0000    0.0000
 
    1 O1     1s        -0.0000   -0.0000   -0.0000   -0.0512   -0.1437   -0.0360   -0.0000    0.0221   -0.0336    0.0013
    2 O1     2s         0.0000    0.0000   -0.0000   -0.4962   -1.0730   -0.2094   -0.0000    0.1273   -0.1052    0.0014
    3 O1     3s        -0.0000    0.0000    0.0000   -0.0982   -0.3599   -0.1492   -0.0000    0.2115   -0.1209    0.0434
    4 O1     2px        0.0000   -0.0000   -0.0000    0.1313    0.3974   -0.0421   -0.0000   -0.0869   -0.1992   -0.0311
    5 O1     3px       -0.0000    0.0000    0.0000    0.0786    0.2849    0.4494    0.0000    0.1724   -0.1014   -0.8033
    6 O1     2py        0.0000   -0.0000    0.0000    0.8016    0.5030    0.0061    0.0000   -0.0806   -0.3500    0.0258
    7 O1     3py       -0.0000    0.0000    0.0000    0.3290    0.5426    0.2065    0.0000   -0.7562    0.2499   -0.1447
    8 O1     2pz        0.2683   -0.7107    0.6897   -0.0000   -0.0000    0.0000   -0.0011   -0.0000    0.0000   -0.0000
    9 O1     3pz       -0.0300   -0.0087   -0.0479   -0.0000   -0.0000   -0.0000    0.4757    0.0000    0.0000   -0.0000
   10 O1     3d2-      -0.0000    0.0000   -0.0000   -0.0010   -0.0204   -0.0023   -0.0000   -0.0123   -0.0932   -0.0101
   11 O1     3d1-      -0.0266    0.0179    0.0056   -0.0000   -0.0000   -0.0000    0.0282    0.0000    0.0000   -0.0000
   12 O1     3d0        0.0000    0.0000   -0.0000   -0.0010    0.0142    0.0193    0.0000    0.0020    0.0521   -0.0071
   13 O1     3d1+      -0.0114    0.0072    0.0014    0.0000    0.0000   -0.0000    0.0158    0.0000   -0.0000   -0.0000
   14 O1     3d2+       0.0000   -0.0000    0.0000   -0.0142    0.0177    0.0566    0.0000   -0.0129    0.0266    0.0036
   15 O2     1s         0.0000   -0.0000    0.0000    0.1545    0.0000    0.0844    0.0000   -0.1279    0.0000   -0.0000
   16 O2     2s        -0.0000   -0.0000    0.0000    1.3088    0.0000    0.4692    0.0000   -0.7100    0.0000   -0.0000
   17 O2     3s        -0.0000   -0.0000    0.0000    0.3342    0.0000    0.2581    0.0000   -0.2673    0.0000   -0.0000
   18 O2     2px       -0.0000    0.0000    0.0000    0.6871    0.0000   -0.1144   -0.0000   -0.0998    0.0000    0.0000
   19 O2     3px       -0.0000    0.0000    0.0000    0.2804    0.0000    0.5190    0.0000   -0.2557    0.0000   -0.0000
   20 O2     2py       -0.0000   -0.0000    0.0000   -0.0000    1.2724   -0.0000    0.0000   -0.0000   -0.4435    0.1059
   21 O2     3py        0.0000   -0.0000   -0.0000   -0.0000    0.9607   -0.0000    0.0000    0.0000    0.6278    0.0159
   22 O2     2pz        0.8166   -0.0000   -0.6299    0.0000    0.0000    0.0000   -0.2384    0.0000   -0.0000    0.0000
   23 O2     3pz       -0.0152    0.0000   -0.0691    0.0000    0.0000   -0.0000    0.3610    0.0000   -0.0000    0.0000
   24 O2     3d2-       0.0000   -0.0000   -0.0000   -0.0000    0.0469   -0.0000    0.0000    0.0000    0.1041   -0.0569
   25 O2     3d1-      -0.0000   -0.0412    0.0000   -0.0000   -0.0000   -0.0000    0.0000   -0.0000   -0.0000    0.0000
   26 O2     3d0       -0.0000   -0.0000   -0.0000    0.0183    0.0000   -0.0566   -0.0000    0.1022   -0.0000    0.0000
   27 O2     3d1+       0.0299   -0.0000   -0.0110    0.0000    0.0000    0.0000   -0.0347   -0.0000   -0.0000   -0.0000
   28 O2     3d2+      -0.0000   -0.0000    0.0000    0.0260    0.0000   -0.1110   -0.0000    0.0697   -0.0000    0.0000
   29 O3     1s        -0.0000   -0.0000   -0.0000   -0.0512    0.1437   -0.0360   -0.0000    0.0221    0.0336   -0.0013
   30 O3     2s        -0.0000    0.0000   -0.0000   -0.4962    1.0730   -0.2094   -0.0000    0.1273    0.1052   -0.0014
   31 O3     3s         0.0000   -0.0000   -0.0000   -0.0982    0.3599   -0.1492   -0.0000    0.2115    0.1209   -0.0434
   32 O3     2px       -0.0000   -0.0000   -0.0000    0.1313   -0.3974   -0.0421   -0.0000   -0.0869    0.1992    0.0311
   33 O3     3px       -0.0000    0.0000    0.0000    0.0786   -0.2849    0.4494    0.0000    0.1724    0.1014    0.8033
   34 O3     2py        0.0000   -0.0000   -0.0000   -0.8016    0.5030   -0.0061   -0.0000    0.0806   -0.3500    0.0258
   35 O3     3py       -0.0000   -0.0000    0.0000   -0.3290    0.5426   -0.2065   -0.0000    0.7562    0.2499   -0.1447
   36 O3     2pz        0.2683    0.7107    0.6897   -0.0000   -0.0000   -0.0000   -0.0011   -0.0000    0.0000   -0.0000
   37 O3     3pz       -0.0300    0.0087   -0.0479   -0.0000   -0.0000   -0.0000    0.4757   -0.0000   -0.0000    0.0000
   38 O3     3d2-       0.0000   -0.0000    0.0000    0.0010   -0.0204    0.0023   -0.0000    0.0123   -0.0932   -0.0101
   39 O3     3d1-       0.0266    0.0179   -0.0056    0.0000    0.0000    0.0000   -0.0282   -0.0000   -0.0000   -0.0000
   40 O3     3d0       -0.0000    0.0000    0.0000   -0.0010   -0.0142    0.0193    0.0000    0.0020   -0.0521    0.0071
   41 O3     3d1+      -0.0114   -0.0072    0.0014   -0.0000   -0.0000   -0.0000    0.0158   -0.0000    0.0000   -0.0000
   42 O3     3d2+       0.0000    0.0000   -0.0000   -0.0142   -0.0177    0.0566    0.0000   -0.0129   -0.0266   -0.0036
 
 
      Orbital               21        22        23        24        25        26        27        28        29        30
      Energy            0.7073    0.8486    0.9077    0.9403    0.9984    1.6924    1.7036    1.7143    1.7856    1.9073
      Occ. No.          0.0000    0.0000    0.0000    0.0000    0.0000    0.0000    0.0000    0.0000    0.0000    0.0000
 
    1 O1     1s        -0.0000   -0.0091   -0.0485   -0.0000    0.0858   -0.0000   -0.0148    0.0000   -0.1497   -0.0784
    2 O1     2s        -0.0000   -0.0533   -0.2612   -0.0000    0.4735   -0.0000   -0.1087    0.0000   -1.0861   -0.6031
    3 O1     3s         0.0000    0.4733    0.0363    0.0000    0.0585   -0.0000   -0.1008    0.0000   -1.3357   -0.7515
    4 O1     2px       -0.0000    0.0517   -0.3680   -0.0000   -0.2668    0.0000    0.1280   -0.0000    0.3161    0.0996
    5 O1     3px        0.0000    0.2080   -0.7484   -0.0000   -0.4135    0.0000    0.0578   -0.0000    0.3115    0.2261
    6 O1     2py       -0.0000   -0.0216    0.0777    0.0000    0.1884    0.0000    0.0323   -0.0000    0.3302    0.3901
    7 O1     3py        0.0000    0.3115    0.0188    0.0000    0.6921    0.0000    0.0535   -0.0000    0.2760    0.4279
    8 O1     2pz       -0.1055   -0.0000   -0.0000    0.4529    0.0000   -0.1665    0.0000   -0.1018    0.0000    0.0000
    9 O1     3pz       -0.8516    0.0000   -0.0000    0.8545    0.0000    0.0175   -0.0000   -0.0692   -0.0000    0.0000
   10 O1     3d2-      -0.0000   -0.0607   -0.0598    0.0000    0.0283    0.0000    0.3185   -0.0000    0.1186   -0.1219
   11 O1     3d1-      -0.0313    0.0000    0.0000   -0.0093    0.0000   -0.3298   -0.0000   -0.3727   -0.0000    0.0000
   12 O1     3d0        0.0000    0.0314    0.0740    0.0000   -0.0719    0.0000    0.3120   -0.0000   -0.1616    0.1435
   13 O1     3d1+      -0.0015   -0.0000   -0.0000    0.0332    0.0000   -0.3089    0.0000    0.2564    0.0000   -0.0000
   14 O1     3d2+       0.0000    0.0279    0.0303    0.0000   -0.1384    0.0000    0.0597   -0.0000    0.1165   -0.2774
   15 O2     1s         0.0000    0.0177   -0.0300   -0.0000   -0.0000    0.0000    0.0312    0.0000   -0.0000    0.2122
   16 O2     2s        -0.0000    0.0887   -0.1024   -0.0000   -0.0000    0.0000    0.2316   -0.0000   -0.0000    1.4847
   17 O2     3s         0.0000    0.5385    0.0713    0.0000   -0.0000    0.0000    0.2584   -0.0000   -0.0000    1.4471
   18 O2     2px        0.0000   -0.1037    0.5831    0.0000   -0.0000   -0.0000    0.1422   -0.0000   -0.0000    0.1344
   19 O2     3px        0.0000   -0.3225    1.4131    0.0000   -0.0000   -0.0000   -0.0650    0.0000   -0.0000    0.1778
   20 O2     2py       -0.0000    0.0000    0.0000    0.0000   -0.6991    0.0000   -0.0000   -0.0000    1.0641    0.0000
   21 O2     3py        0.0000   -0.0000    0.0000    0.0000   -1.2352    0.0000   -0.0000   -0.0000    1.2789    0.0000
   22 O2     2pz       -0.0000    0.0000    0.0000   -0.6478   -0.0000    0.0000   -0.0000   -0.0820   -0.0000    0.0000
   23 O2     3pz       -0.0000    0.0000    0.0000   -1.5781   -0.0000   -0.0000    0.0000    0.1555    0.0000   -0.0000
   24 O2     3d2-       0.0000   -0.0000   -0.0000   -0.0000    0.1789   -0.0000    0.0000    0.0000   -0.0756   -0.0000
   25 O2     3d1-       0.0679   -0.0000   -0.0000   -0.0000   -0.0000    0.5885   -0.0000    0.0000   -0.0000   -0.0000
   26 O2     3d0        0.0000    0.0351    0.1142    0.0000   -0.0000    0.0000    0.4725   -0.0000   -0.0000    0.1619
   27 O2     3d1+       0.0000   -0.0000   -0.0000    0.0557   -0.0000   -0.0000    0.0000    0.6245    0.0000    0.0000
   28 O2     3d2+       0.0000    0.0516    0.0584    0.0000   -0.0000   -0.0000   -0.3889    0.0000   -0.0000    0.3115
   29 O3     1s         0.0000   -0.0091   -0.0485   -0.0000   -0.0858   -0.0000   -0.0148   -0.0000    0.1497   -0.0784
   30 O3     2s        -0.0000   -0.0533   -0.2612   -0.0000   -0.4735    0.0000   -0.1087   -0.0000    1.0861   -0.6031
   31 O3     3s         0.0000    0.4733    0.0363    0.0000   -0.0585    0.0000   -0.1008   -0.0000    1.3357   -0.7515
   32 O3     2px       -0.0000    0.0517   -0.3680   -0.0000    0.2668   -0.0000    0.1280   -0.0000   -0.3161    0.0996
   33 O3     3px       -0.0000    0.2080   -0.7484   -0.0000    0.4135    0.0000    0.0578    0.0000   -0.3115    0.2261
   34 O3     2py       -0.0000    0.0216   -0.0777   -0.0000    0.1884    0.0000   -0.0323   -0.0000    0.3302   -0.3901
   35 O3     3py        0.0000   -0.3115   -0.0188   -0.0000    0.6921    0.0000   -0.0535   -0.0000    0.2760   -0.4279
   36 O3     2pz        0.1055   -0.0000   -0.0000    0.4529    0.0000    0.1665   -0.0000   -0.1018    0.0000   -0.0000
   37 O3     3pz        0.8516   -0.0000   -0.0000    0.8545    0.0000   -0.0175   -0.0000   -0.0692   -0.0000    0.0000
   38 O3     3d2-       0.0000    0.0607    0.0598    0.0000    0.0283   -0.0000   -0.3185    0.0000    0.1186    0.1219
   39 O3     3d1-      -0.0313   -0.0000    0.0000    0.0093   -0.0000   -0.3298    0.0000    0.3727    0.0000    0.0000
   40 O3     3d0       -0.0000    0.0314    0.0740    0.0000    0.0719    0.0000    0.3120   -0.0000    0.1616    0.1435
   41 O3     3d1+       0.0015   -0.0000   -0.0000    0.0332   -0.0000    0.3089   -0.0000    0.2564   -0.0000    0.0000
   42 O3     3d2+       0.0000    0.0279    0.0303    0.0000    0.1384   -0.0000    0.0597    0.0000   -0.1165   -0.2774
 
 
      Orbital               31        32        33        34        35        36        37        38        39        40
      Energy            2.0955    2.1466    2.2818    2.2896    2.3457    2.6999    2.8887    3.0108    3.0200    3.4393
      Occ. No.          0.0000    0.0000    0.0000    0.0000    0.0000    0.0000    0.0000    0.0000    0.0000    0.0000
 
    1 O1     1s        -0.1087    0.0000   -0.0000    0.1050    0.1521    0.0632    0.0339    0.0000   -0.1269   -0.0000
    2 O1     2s        -0.7228    0.0000   -0.0000    0.7191    0.9583    0.3124    0.3813    0.0000   -0.9022   -0.0000
    3 O1     3s        -0.5653    0.0000   -0.0000    0.5373    0.5449   -0.0215    0.5358    0.0000   -0.6278   -0.0000
    4 O1     2px        0.1753   -0.0000    0.0000   -0.0822   -0.2883    0.0691   -0.2165   -0.0000   -0.0099    0.0000
    5 O1     3px        0.1491    0.0000   -0.0000    0.0815   -0.3292    0.2390   -0.2198    0.0000   -0.1261   -0.0000
    6 O1     2py        0.2253   -0.0000    0.0000   -0.4058   -0.2330   -0.0713   -0.3080   -0.0000    0.6633    0.0000
    7 O1     3py       -0.0416   -0.0000    0.0000   -0.2692    0.2659    0.1625   -0.3738   -0.0000    0.4281    0.0000
    8 O1     2pz        0.0000    0.0010   -0.0774   -0.0000    0.0000   -0.0000   -0.0000   -0.3558   -0.0000   -0.3082
    9 O1     3pz       -0.0000   -0.0677   -0.1799   -0.0000    0.0000    0.0000   -0.0000   -0.4077   -0.0000   -0.2162
   10 O1     3d2-       0.1652   -0.0000    0.0000   -0.0108    0.4655   -0.4744    0.6127   -0.0000    0.0932   -0.0000
   11 O1     3d1-       0.0000    0.4398    0.1233    0.0000   -0.0000    0.0000    0.0000    0.7068    0.0000    0.5686
   12 O1     3d0        0.5217   -0.0000   -0.0000    0.4932    0.2727    0.0873   -0.3997   -0.0000    0.3673    0.0000
   13 O1     3d1+      -0.0000   -0.5635    0.6753    0.0000   -0.0000   -0.0000    0.0000    0.1011    0.0000    0.3638
   14 O1     3d2+      -0.3390    0.0000    0.0000   -0.3148    0.3135    0.3249   -0.1893   -0.0000    0.6313    0.0000
   15 O2     1s         0.0000   -0.0000    0.0000   -0.1470   -0.0000    0.0921    0.0000   -0.0000    0.2751   -0.0000
   16 O2     2s         0.0000   -0.0000    0.0000   -1.1637   -0.0000    0.3359    0.0000   -0.0000    1.8970    0.0000
   17 O2     3s         0.0000   -0.0000    0.0000   -1.2373   -0.0000   -0.4006    0.0000   -0.0000    1.2187   -0.0000
   18 O2     2px       -0.0000   -0.0000    0.0000   -0.5768   -0.0000   -0.1814    0.0000   -0.0000    1.0114   -0.0000
   19 O2     3px       -0.0000   -0.0000    0.0000   -0.5377   -0.0000   -0.4967    0.0000   -0.0000    0.7069   -0.0000
   20 O2     2py        0.7803   -0.0000   -0.0000    0.0000   -1.1675   -0.0000   -0.7657    0.0000    0.0000    0.0000
   21 O2     3py        0.8675   -0.0000   -0.0000    0.0000   -1.2559    0.0000    0.0709    0.0000    0.0000    0.0000
   22 O2     2pz       -0.0000    0.0000    0.3643    0.0000   -0.0000    0.0000    0.0000    0.7365    0.0000    0.0000
   23 O2     3pz       -0.0000   -0.0000    0.2740    0.0000   -0.0000   -0.0000    0.0000    0.7397    0.0000    0.0000
   24 O2     3d2-       0.2763   -0.0000   -0.0000    0.0000   -0.4641    0.0000    0.3029   -0.0000   -0.0000    0.0000
   25 O2     3d1-      -0.0000   -0.0738   -0.0000    0.0000    0.0000    0.0000    0.0000   -0.0000    0.0000    1.0533
   26 O2     3d0        0.0000   -0.0000    0.0000   -0.2036   -0.0000    0.6247   -0.0000    0.0000   -0.5930    0.0000
   27 O2     3d1+       0.0000   -0.0000   -0.3921   -0.0000    0.0000   -0.0000    0.0000    0.7906    0.0000    0.0000
   28 O2     3d2+       0.0000   -0.0000   -0.0000    0.2487    0.0000    0.1512    0.0000   -0.0000    0.3837   -0.0000
   29 O3     1s         0.1087    0.0000   -0.0000    0.1050   -0.1521    0.0632   -0.0339    0.0000   -0.1269    0.0000
   30 O3     2s         0.7228   -0.0000   -0.0000    0.7191   -0.9583    0.3124   -0.3813    0.0000   -0.9022    0.0000
   31 O3     3s         0.5653    0.0000   -0.0000    0.5373   -0.5449   -0.0215   -0.5358    0.0000   -0.6278    0.0000
   32 O3     2px       -0.1753    0.0000    0.0000   -0.0822    0.2883    0.0691    0.2165   -0.0000   -0.0099   -0.0000
   33 O3     3px       -0.1491    0.0000   -0.0000    0.0815    0.3292    0.2390    0.2198    0.0000   -0.1261    0.0000
   34 O3     2py        0.2253    0.0000   -0.0000    0.4058   -0.2330    0.0713   -0.3080    0.0000   -0.6633    0.0000
   35 O3     3py       -0.0416    0.0000   -0.0000    0.2692    0.2659   -0.1625   -0.3738    0.0000   -0.4281    0.0000
   36 O3     2pz        0.0000   -0.0010   -0.0774   -0.0000   -0.0000   -0.0000   -0.0000   -0.3558   -0.0000    0.3082
   37 O3     3pz        0.0000    0.0677   -0.1799   -0.0000    0.0000    0.0000   -0.0000   -0.4077   -0.0000    0.2162
   38 O3     3d2-       0.1652   -0.0000    0.0000    0.0108    0.4655    0.4744    0.6127    0.0000   -0.0932   -0.0000
   39 O3     3d1-       0.0000    0.4398   -0.1233   -0.0000    0.0000    0.0000   -0.0000   -0.7068   -0.0000    0.5686
   40 O3     3d0       -0.5217    0.0000   -0.0000    0.4932   -0.2727    0.0873    0.3997   -0.0000    0.3673   -0.0000
   41 O3     3d1+       0.0000    0.5635    0.6753    0.0000   -0.0000    0.0000    0.0000    0.1011    0.0000   -0.3638
   42 O3     3d2+       0.3390   -0.0000    0.0000   -0.3148   -0.3135    0.3249    0.1893   -0.0000    0.6313   -0.0000
 
 
      Orbital               41        42
      Energy            3.4493    4.0080
      Occ. No.          0.0000    0.0000
 
    1 O1     1s        -0.1100    0.1657
    2 O1     2s        -0.7295    1.1192
    3 O1     3s        -0.3832    0.6031
    4 O1     2px        0.0126   -0.5847
    5 O1     3px       -0.0756   -0.2896
    6 O1     2py        0.5249   -0.6831
    7 O1     3py        0.1657   -0.3043
    8 O1     2pz       -0.0000    0.0000
    9 O1     3pz        0.0000   -0.0000
   10 O1     3d2-       0.0019    0.6511
   11 O1     3d1-      -0.0000    0.0000
   12 O1     3d0        0.1497   -0.3078
   13 O1     3d1+      -0.0000    0.0000
   14 O1     3d2+       0.6374    0.0176
   15 O2     1s         0.0000   -0.3281
   16 O2     2s         0.0000   -2.2815
   17 O2     3s         0.0000   -1.4103
   18 O2     2px        0.0000   -0.2469
   19 O2     3px        0.0000    0.0887
   20 O2     2py        0.7152   -0.0000
   21 O2     3py        0.2519   -0.0000
   22 O2     2pz       -0.0000   -0.0000
   23 O2     3pz       -0.0000    0.0000
   24 O2     3d2-       1.1123   -0.0000
   25 O2     3d1-      -0.0000    0.0000
   26 O2     3d0        0.0000    0.5394
   27 O2     3d1+      -0.0000    0.0000
   28 O2     3d2+       0.0000    1.1075
   29 O3     1s         0.1100    0.1657
   30 O3     2s         0.7295    1.1192
   31 O3     3s         0.3832    0.6031
   32 O3     2px       -0.0126   -0.5847
   33 O3     3px        0.0756   -0.2896
   34 O3     2py        0.5249    0.6831
   35 O3     3py        0.1657    0.3043
   36 O3     2pz       -0.0000    0.0000
   37 O3     3pz       -0.0000   -0.0000
   38 O3     3d2-       0.0019   -0.6511
   39 O3     3d1-      -0.0000   -0.0000
   40 O3     3d0       -0.1497   -0.3078
   41 O3     3d1+       0.0000    0.0000
   42 O3     3d2+      -0.6374    0.0176
--
 
      Von Neumann Entropy (Root  1) =  0.68127
 

      Mulliken population analysis for root number:  1
      -----------------------------------------------
 
 
++    Molecular charges:
      ------------------
 
      Mulliken charges per centre and basis function type
      ---------------------------------------------------
 
                O1      O2      O3    
      1s       2.0003  2.0002  2.0003
      2s       1.9218  1.7525  1.9218
      2px      1.8646  1.5760  1.8646
      2pz      1.1887  1.5926  1.1887
      2py      1.0675  0.9224  1.0675
      3s      -0.0067 -0.0191 -0.0067
      3px     -0.0183 -0.0365 -0.0183
      3pz     -0.0103 -0.0098 -0.0103
      3py     -0.0029  0.0075 -0.0029
      3d2+     0.0146  0.0328  0.0146
      3d1+     0.0024  0.0050  0.0024
      3d0      0.0055  0.0092  0.0055
      3d1-     0.0124  0.0261  0.0124
      3d2-     0.0120  0.0381  0.0120
      Total    8.0515  7.8969  8.0515
 
      N-E     -0.0515  0.1031 -0.0515
 
      Total electronic charge=   24.000000
 
      Total            charge=   -0.000000
--
 
 

      Expectation values of various properties for root number:  1
      -----------------------------------------------------------
 
 
++    Molecular properties:
      ---------------------
 
      Charge (e):
                      =   -0.0000
      Dipole Moment (Debye):
      Origin of the operator (Ang)=    0.0000    0.0000    0.0000
                   X= -3.1331E-03               Y= -4.0388E-11               Z=  2.8765E-13           Total=  3.1331E-03
      Quadrupole Moment (Debye*Ang):
      Origin of the operator (Ang)=    0.3533    0.0000    0.0000
                  XX= -1.6460E+01              XY= -1.6194E-11              XZ= -9.8559E-13              YY= -1.6488E+01
                  YZ= -1.8488E-13              ZZ= -1.4646E+01
      In traceless form (Debye*Ang)
                  XX= -8.9329E-01              XY= -2.4291E-11              XZ= -1.4784E-12              YY= -9.3517E-01
                  YZ= -2.7732E-13              ZZ=  1.8285E+00
--
 

      LoProp population analysis for root number:  1
      -----------------------------------------------
 
 
++    LoProp analysis:
      ----------------
 
 
 
  Input file to MOLDEN was generated!
 
 
++    Static properties:
      ------------------
 
 
      LoProp Charges per center
 

                   O1       O2       O3    
      Nuclear      8.0000   8.0000   8.0000
      Electronic  -8.0800  -7.8400  -8.0800
 
      Total       -0.0800   0.1600  -0.0800
--
 
 
      Natural Bond Order analysis for root number:  1
 
++    Natural Bond Order analysis
      ---------------------------
      Based on LoProp computed density
      -------------------------------------------------------------------------------------
      Atom A       Atom B       Bond Order | Atom A       Atom B       Bond Order
        O1           O2             1.967  |   O2           O3             1.967
      -------------------------------------------------------------------------------------
      NBO located     12.000 core electrons.
      NBO located      3.957 lone pair electrons.
      NBO located      7.870 electrons involved in    2 bonds.
      The remaining    0.173 electrons are to be considered as diffuse
--
 
--
 
 
  Input file to MOLDEN was generated!
 
      Average orbitals are written to the RASORB file
      Natural orbitals for root   1 are written to the RASORB.1 file
      Spin density orbitals for root   1 are written to the SPDORB.1 file
 
forrtl: warning (525): IEEE_DIVIDE_BY_ZERO is signaling
forrtl: warning (526): IEEE_INVALID is signaling
forrtl: warning (528): IEEE_UNDERFLOW is signaling
--- Stop Module: rasscf at Fri Jan 24 15:48:43 2025 /rc=_RC_ALL_IS_WELL_ ---
*** files: ozone_131.00.LprOrb ozone_131.00.rasscf.molden ozone_131.00.LoProp.molden ozone_131.00.RasOrb ozone_131.00.RasOrb.1 ozone_131.00.rasscf.h5 ozone_131.00.SpdOrb.1 xmldump
    saved to directory /home/grierjones/DDCASPT2/ozone/ANO-RCC-VDZP/ozone_131.00

>>> COPY /tmp/ozone_131.00/ozone_131.00.rasscf.h5 /home/grierjones/DDCASPT2/ozone/ANO-RCC-VDZP/ozone_131.00/

>>> COPY /tmp/ozone_131.00/GMJ_Fock_MO.csv /home/grierjones/DDCASPT2/ozone/ANO-RCC-VDZP/ozone_131.00/ozone_131.00.GMJ_Fock_MO.csv

>>> COPY /tmp/ozone_131.00/GMJ_PT2_Fock_MO.csv /home/grierjones/DDCASPT2/ozone/ANO-RCC-VDZP/ozone_131.00/ozone_131.00.GMJ_PT2_Fock_MO.csv

*** symbolic link created: INPORB -> ozone_131.00.RasOrb
--- Start Module: motra at Fri Jan 24 15:48:43 2025 ---
 
()()()()()()()()()()()()()()()()()()()()()()()()()()()()()()()()()()()()()()()()()()()()()()()()()()

                                               &MOTRA

                                   only a single process is used
                       available to each process: 2.0 GB of memory, 1 thread?
()()()()()()()()()()()()()()()()()()()()()()()()()()()()()()()()()()()()()()()()()()()()()()()()()()
 
 
      *** WARNING: Default frozen orbitals is overwritten by user input.
      *** Default values:   3
 
      Header of the integral files:
      
       Integrals generated by seward 4.2.0  , Fri Jan 24 15:48:41 2025
 
 
      Header of MO coefficients source file:
      * RASSCF average (pseudo-natural) orbitals                                      
 
 
      Cartesian coordinates in Angstrom:
      -----------------------------------------------------
      No.  Label        X            Y            Z        
      -----------------------------------------------------
       1   O1         0.52997800   1.16293100   0.00000000
       2   O2         0.00000000   0.00000000   0.00000000
       3   O3         0.52997800  -1.16293100   0.00000000
      -----------------------------------------------------
      Nuclear repulsion energy =   67.56171496
 
      Orbital specifications:
      -----------------------
 
      Symmetry species:              1
      Number of basis functions:    42
      Frozen orbitals:               0
      Deleted orbitals:              0
      Number of orbitals used:      42

       SYMMETRY  BASIS FUNCTIONS       ORBITALS      INTEGRALS   CPU(SEC)  I/O(SEC)
 
        1 1 1 1   42  42  42  42    42  42  42  42      408156       0.00      0.00

       TOTAL CPU TIME(SEC)    0.37TOTAL I/O TIME(SEC)    0.79
 
--- Stop Module: motra at Fri Jan 24 15:48:44 2025 /rc=_RC_ALL_IS_WELL_ ---
*** files: xmldump
    saved to directory /home/grierjones/DDCASPT2/ozone/ANO-RCC-VDZP/ozone_131.00

>>> COPY /tmp/ozone_131.00/GMJ_one_int_indx.csv /home/grierjones/DDCASPT2/ozone/ANO-RCC-VDZP/ozone_131.00/ozone_131.00.GMJ_one_int_indx.csv

>>> COPY /tmp/ozone_131.00/GMJ_one_int.csv /home/grierjones/DDCASPT2/ozone/ANO-RCC-VDZP/ozone_131.00/ozone_131.00.GMJ_one_int.csv

>>> COPY /tmp/ozone_131.00/GMJ_two_int_indx.csv /home/grierjones/DDCASPT2/ozone/ANO-RCC-VDZP/ozone_131.00/ozone_131.00.GMJ_two_int_indx.csv

>>> COPY /tmp/ozone_131.00/GMJ_two_int.csv /home/grierjones/DDCASPT2/ozone/ANO-RCC-VDZP/ozone_131.00/ozone_131.00.GMJ_two_int.csv

*** symbolic link created: INPORB -> ozone_131.00.RasOrb
--- Start Module: caspt2 at Fri Jan 24 15:48:44 2025 ---
 
()()()()()()()()()()()()()()()()()()()()()()()()()()()()()()()()()()()()()()()()()()()()()()()()()()

                                              &CASPT2

                                   only a single process is used
                       available to each process: 2.0 GB of memory, 1 thread?
()()()()()()()()()()()()()()()()()()()()()()()()()()()()()()()()()()()()()()()()()()()()()()()()()()
 
 Cholesky algorithm in CASPT2 =    1
 
 ###############################################################################
 ###############################################################################
 ###                                                                         ###
 ###                                                                         ###
 ###    User changed nr of frozen orbitals.                                  ###
 ###                                                                         ###
 ###                                                                         ###
 ###############################################################################
 ###############################################################################
 
++    Wave function specifications:
      -----------------------------
 
      Number of closed shell electrons          20
      Number of electrons in active shells       4
      Max number of holes in RAS1 space          0
      Max number of electrons in RAS3 space      0
      Number of inactive orbitals               10
      Number of active orbitals                  3
      Number of secondary orbitals              29
      Spin quantum number                      0.0
      State symmetry                             1
      Number of CSFs                             6
      Number of root(s) available                1
      Root passed to geometry opt.               1
      A file JOBMIX will be created.
      This is a CASSCF or RASSCF reference function
--
 
++    Orbital specifications:
      -----------------------
 
      Symmetry species                           1
                                                 a
      Frozen orbitals                            0
      Inactive orbitals                         10
      Active orbitals                            3
      Secondary orbitals                        29
      Deleted orbitals                           0
      Number of basis functions                 42
--
 
      Type of Fock operator: STANDARD
      Type of 0-order Hamiltonian: STANDARD WITH DEFAULT IPEA
        "IP-EA" denominator shift =      0.25
      The input orbitals and the CI vector will be transformed.
 
--------------------------------------------------------------------------------
 Estimated memory requirements:
  POLY3 :                   250202
  RHS:                      279634
  SIGMA :                   302200
  PRPCTL:                        0
 Available workspace:    230396563
 
++ CASPT2 computation for group   1
 
********************************************************************************
 Multi-State initialization phase begins for group   1
--------------------------------------------------------------------------------
********************************************************************************
 Compute H0 matrices for state    1
--------------------------------------------------------------------------------
--------------------------------------------------------------------------------
 H0 matrices have been computed.
 
********************************************************************************
  CASPT2 EQUATION SOLUTION
--------------------------------------------------------------------------------
 
  Total nr of CASPT2 parameters:
   Before reduction:       86691
   After  reduction:       82880
 
 The contributions to the second order correlation energy in atomic units.
-----------------------------------------------------------------------------------------------------------------------------
  IT.      VJTU        VJTI        ATVX        AIVX        VJAI        BVAT        BJAT        BJAI        TOTAL       RNORM  
-----------------------------------------------------------------------------------------------------------------------------
   1    -0.000000   -0.001264   -0.012590   -0.093689   -0.017370   -0.016784   -0.124772   -0.271482   -0.537951    0.002146
   2    -0.000000   -0.001281   -0.012636   -0.094006   -0.017386   -0.016790   -0.124804   -0.271485   -0.538387    0.000168
   3    -0.000000   -0.001281   -0.012636   -0.094010   -0.017386   -0.016790   -0.124805   -0.271485   -0.538393    0.000021
   4    -0.000000   -0.001281   -0.012636   -0.094008   -0.017386   -0.016790   -0.124804   -0.271485   -0.538391    0.000003
-------------------------------------------------------------------------------------------------------------------
 
  FINAL CASPT2 RESULT:
 
  Correlation energy /Case, /Symm, and sums:
 VJTU     -0.00000000 -0.00000000
 VJTIP    -0.00128116 -0.00128116
 VJTIM     0.00000000  0.00000000
 ATVX     -0.01263603 -0.01263603
 AIVX     -0.09400838 -0.09400838
 VJAIP    -0.01213439 -0.01213439
 VJAIM    -0.00525154 -0.00525154
 BVATP    -0.01582625 -0.01582625
 BVATM    -0.00096325 -0.00096325
 BJATP    -0.04600050 -0.04600050
 BJATM    -0.07880398 -0.07880398
 BJAIP    -0.18250119 -0.18250119
 BJAIM    -0.08898400 -0.08898400
 Summed:  -0.53839068 -0.53839068
 
      Reference energy:        -224.5715969075
      E2 (Non-variational):      -0.5383906796
      E2 (Variational):          -0.5383907043
      Total energy:            -225.1099876118
      Residual norm:              0.0000002565
      Reference weight:           0.85575
 
      Contributions to the CASPT2 correlation energy
      Active & Virtual Only:         -0.0294255392
      One Inactive Excited:          -0.2188128653
      Two Inactive Excited:          -0.2901522751
 
 
++ Denominators, etc.
----------------------------------------------------------------------------------------------------
 Report on small energy denominators, large coefficients, and large energy contributions.
CASE  SYMM ACTIVE-MIX  NON-ACTIVE INDICES          DENOMINATOR     RHS VALUE       COEFFICIENT     CONTRIBUTION
ATVX     1  Mu1.0006  Se1.017                       1.88344489     -0.06418853      0.03468826     -0.00222659
ATVX     1  Mu1.0005  Se1.021                       1.82119530     -0.09480464      0.05106332     -0.00484104
ATVX     1  Mu1.0006  Se1.024                       2.35984162      0.05882158     -0.02501249     -0.00147127
AIVX     1  Mu1.0006  In1.004 Se1.014               2.71419377      0.07250797     -0.02667492     -0.00193414
AIVX     1  Mu1.0003  In1.005 Se1.014               2.05258510      0.06138560     -0.02953363     -0.00181294
AIVX     1  Mu1.0004  In1.007 Se1.014               1.63739038      0.06801868     -0.04206065     -0.00286091
AIVX     1  Mu1.0002  In1.008 Se1.014               1.31975043     -0.06517404      0.04889243     -0.00318652
AIVX     1  Mu1.0002  In1.009 Se1.014               1.11503995      0.05341311     -0.04712098     -0.00251688
AIVX     1  Mu1.0003  In1.009 Se1.014               1.20151224      0.03654624     -0.03006830     -0.00109888
AIVX     1  Mu1.0002  In1.010 Se1.015               1.09568950      0.03067365     -0.02772572     -0.00085045
AIVX     1  Mu1.0002  In1.008 Se1.016               1.54036104      0.04899182     -0.03107677     -0.00152251
AIVX     1  Mu1.0004  In1.010 Se1.016               1.57858733      0.05512220     -0.03497370     -0.00192783
AIVX     1  Mu1.0002  In1.009 Se1.018               1.45675880      0.06931897     -0.04627748     -0.00320791
AIVX     1  Mu1.0003  In1.009 Se1.018               1.54323109      0.04829610     -0.03047888     -0.00147201
AIVX     1  Mu1.0004  In1.008 Se1.019               1.97354991     -0.11414316      0.05833920     -0.00665902
AIVX     1  Mu1.0006  In1.008 Se1.019               2.14067903     -0.06860849      0.03225815     -0.00221318
AIVX     1  Mu1.0002  In1.010 Se1.019               1.38839710     -0.04078612      0.02906675     -0.00118552
AIVX     1  Mu1.0002  In1.010 Se1.020               1.49734411      0.07157611     -0.04647870     -0.00332676
AIVX     1  Mu1.0003  In1.010 Se1.020               1.58381640      0.04734113     -0.02896859     -0.00137141
BJAIP    1  Se1.014 In1.007 Se1.019 In1.008         2.41113369     -0.06349709      0.02633493     -0.00167219
BJAIP    1  Se1.019 In1.008 Se1.019 In1.008         2.74729322      0.10504399     -0.03823542     -0.00401640
BJAIP    1  Se1.016 In1.008 Se1.019 In1.010         2.35233064     -0.05953584      0.02530928     -0.00150681
BJAIP    1  Se1.018 In1.009 Se1.020 In1.010         2.37767541      0.05967551     -0.02509826     -0.00149775
--
 
   (Skipping property calculation,
    use PROP keyword to activate)
--
 
  Total CASPT2 energies:
::    CASPT2 Root  1     Total energy:   -225.10998761
 
  A NEW JOBIPH FILE NAMED 'JOBMIX' IS PREPARED.
********************************************************************************
forrtl: warning (528): IEEE_UNDERFLOW is signaling
--- Stop Module: caspt2 at Fri Jan 24 15:48:45 2025 /rc=_RC_ALL_IS_WELL_ ---
*** files: xmldump
    saved to directory /home/grierjones/DDCASPT2/ozone/ANO-RCC-VDZP/ozone_131.00

>>> EXPORT i = B

>>> EXPORT j = P

>>> IF (-FILE GMJ_e2_${i}_${j}.csv)

>>> COPY /tmp/ozone_131.00/GMJ_RHS_B_P.csv /home/grierjones/DDCASPT2/ozone/ANO-RCC-VDZP/ozone_131.00/GMJ_RHS_B_P.csv

>>> COPY /tmp/ozone_131.00/GMJ_IVECW_B_P.csv /home/grierjones/DDCASPT2/ozone/ANO-RCC-VDZP/ozone_131.00/GMJ_IVECW_B_P.csv

>>> COPY /tmp/ozone_131.00/GMJ_IVECX_B_P.csv /home/grierjones/DDCASPT2/ozone/ANO-RCC-VDZP/ozone_131.00/GMJ_IVECX_B_P.csv

>>> COPY /tmp/ozone_131.00/GMJ_IVECC2_B_P.csv /home/grierjones/DDCASPT2/ozone/ANO-RCC-VDZP/ozone_131.00/GMJ_IVECC2_B_P.csv

>>> COPY /tmp/ozone_131.00/GMJ_e2_B_P.csv /home/grierjones/DDCASPT2/ozone/ANO-RCC-VDZP/ozone_131.00/GMJ_e2_B_P.csv

>>> END FOREACH

>>> EXPORT j = M

>>> IF (-FILE GMJ_e2_${i}_${j}.csv)
(Skipped)

>>> END FOREACH

>>> END FOREACH

>>> EXPORT i = E

>>> EXPORT j = P

>>> IF (-FILE GMJ_e2_${i}_${j}.csv)

>>> COPY /tmp/ozone_131.00/GMJ_RHS_E_P.csv /home/grierjones/DDCASPT2/ozone/ANO-RCC-VDZP/ozone_131.00/GMJ_RHS_E_P.csv

>>> COPY /tmp/ozone_131.00/GMJ_IVECW_E_P.csv /home/grierjones/DDCASPT2/ozone/ANO-RCC-VDZP/ozone_131.00/GMJ_IVECW_E_P.csv

>>> COPY /tmp/ozone_131.00/GMJ_IVECX_E_P.csv /home/grierjones/DDCASPT2/ozone/ANO-RCC-VDZP/ozone_131.00/GMJ_IVECX_E_P.csv

>>> COPY /tmp/ozone_131.00/GMJ_IVECC2_E_P.csv /home/grierjones/DDCASPT2/ozone/ANO-RCC-VDZP/ozone_131.00/GMJ_IVECC2_E_P.csv

>>> COPY /tmp/ozone_131.00/GMJ_e2_E_P.csv /home/grierjones/DDCASPT2/ozone/ANO-RCC-VDZP/ozone_131.00/GMJ_e2_E_P.csv

>>> END FOREACH

>>> EXPORT j = M

>>> IF (-FILE GMJ_e2_${i}_${j}.csv)

>>> COPY /tmp/ozone_131.00/GMJ_RHS_E_M.csv /home/grierjones/DDCASPT2/ozone/ANO-RCC-VDZP/ozone_131.00/GMJ_RHS_E_M.csv

>>> COPY /tmp/ozone_131.00/GMJ_IVECW_E_M.csv /home/grierjones/DDCASPT2/ozone/ANO-RCC-VDZP/ozone_131.00/GMJ_IVECW_E_M.csv

>>> COPY /tmp/ozone_131.00/GMJ_IVECX_E_M.csv /home/grierjones/DDCASPT2/ozone/ANO-RCC-VDZP/ozone_131.00/GMJ_IVECX_E_M.csv

>>> COPY /tmp/ozone_131.00/GMJ_IVECC2_E_M.csv /home/grierjones/DDCASPT2/ozone/ANO-RCC-VDZP/ozone_131.00/GMJ_IVECC2_E_M.csv

>>> COPY /tmp/ozone_131.00/GMJ_e2_E_M.csv /home/grierjones/DDCASPT2/ozone/ANO-RCC-VDZP/ozone_131.00/GMJ_e2_E_M.csv

>>> END FOREACH

>>> END FOREACH

>>> EXPORT i = F

>>> EXPORT j = P

>>> IF (-FILE GMJ_e2_${i}_${j}.csv)

>>> COPY /tmp/ozone_131.00/GMJ_RHS_F_P.csv /home/grierjones/DDCASPT2/ozone/ANO-RCC-VDZP/ozone_131.00/GMJ_RHS_F_P.csv

>>> COPY /tmp/ozone_131.00/GMJ_IVECW_F_P.csv /home/grierjones/DDCASPT2/ozone/ANO-RCC-VDZP/ozone_131.00/GMJ_IVECW_F_P.csv

>>> COPY /tmp/ozone_131.00/GMJ_IVECX_F_P.csv /home/grierjones/DDCASPT2/ozone/ANO-RCC-VDZP/ozone_131.00/GMJ_IVECX_F_P.csv

>>> COPY /tmp/ozone_131.00/GMJ_IVECC2_F_P.csv /home/grierjones/DDCASPT2/ozone/ANO-RCC-VDZP/ozone_131.00/GMJ_IVECC2_F_P.csv

>>> COPY /tmp/ozone_131.00/GMJ_e2_F_P.csv /home/grierjones/DDCASPT2/ozone/ANO-RCC-VDZP/ozone_131.00/GMJ_e2_F_P.csv

>>> END FOREACH

>>> EXPORT j = M

>>> IF (-FILE GMJ_e2_${i}_${j}.csv)

>>> COPY /tmp/ozone_131.00/GMJ_RHS_F_M.csv /home/grierjones/DDCASPT2/ozone/ANO-RCC-VDZP/ozone_131.00/GMJ_RHS_F_M.csv

>>> COPY /tmp/ozone_131.00/GMJ_IVECW_F_M.csv /home/grierjones/DDCASPT2/ozone/ANO-RCC-VDZP/ozone_131.00/GMJ_IVECW_F_M.csv

>>> COPY /tmp/ozone_131.00/GMJ_IVECX_F_M.csv /home/grierjones/DDCASPT2/ozone/ANO-RCC-VDZP/ozone_131.00/GMJ_IVECX_F_M.csv

>>> COPY /tmp/ozone_131.00/GMJ_IVECC2_F_M.csv /home/grierjones/DDCASPT2/ozone/ANO-RCC-VDZP/ozone_131.00/GMJ_IVECC2_F_M.csv

>>> COPY /tmp/ozone_131.00/GMJ_e2_F_M.csv /home/grierjones/DDCASPT2/ozone/ANO-RCC-VDZP/ozone_131.00/GMJ_e2_F_M.csv

>>> END FOREACH

>>> END FOREACH

>>> EXPORT i = G

>>> EXPORT j = P

>>> IF (-FILE GMJ_e2_${i}_${j}.csv)

>>> COPY /tmp/ozone_131.00/GMJ_RHS_G_P.csv /home/grierjones/DDCASPT2/ozone/ANO-RCC-VDZP/ozone_131.00/GMJ_RHS_G_P.csv

>>> COPY /tmp/ozone_131.00/GMJ_IVECW_G_P.csv /home/grierjones/DDCASPT2/ozone/ANO-RCC-VDZP/ozone_131.00/GMJ_IVECW_G_P.csv

>>> COPY /tmp/ozone_131.00/GMJ_IVECX_G_P.csv /home/grierjones/DDCASPT2/ozone/ANO-RCC-VDZP/ozone_131.00/GMJ_IVECX_G_P.csv

>>> COPY /tmp/ozone_131.00/GMJ_IVECC2_G_P.csv /home/grierjones/DDCASPT2/ozone/ANO-RCC-VDZP/ozone_131.00/GMJ_IVECC2_G_P.csv

>>> COPY /tmp/ozone_131.00/GMJ_e2_G_P.csv /home/grierjones/DDCASPT2/ozone/ANO-RCC-VDZP/ozone_131.00/GMJ_e2_G_P.csv

>>> END FOREACH

>>> EXPORT j = M

>>> IF (-FILE GMJ_e2_${i}_${j}.csv)

>>> COPY /tmp/ozone_131.00/GMJ_RHS_G_M.csv /home/grierjones/DDCASPT2/ozone/ANO-RCC-VDZP/ozone_131.00/GMJ_RHS_G_M.csv

>>> COPY /tmp/ozone_131.00/GMJ_IVECW_G_M.csv /home/grierjones/DDCASPT2/ozone/ANO-RCC-VDZP/ozone_131.00/GMJ_IVECW_G_M.csv

>>> COPY /tmp/ozone_131.00/GMJ_IVECX_G_M.csv /home/grierjones/DDCASPT2/ozone/ANO-RCC-VDZP/ozone_131.00/GMJ_IVECX_G_M.csv

>>> COPY /tmp/ozone_131.00/GMJ_IVECC2_G_M.csv /home/grierjones/DDCASPT2/ozone/ANO-RCC-VDZP/ozone_131.00/GMJ_IVECC2_G_M.csv

>>> COPY /tmp/ozone_131.00/GMJ_e2_G_M.csv /home/grierjones/DDCASPT2/ozone/ANO-RCC-VDZP/ozone_131.00/GMJ_e2_G_M.csv

>>> END FOREACH

>>> END FOREACH

>>> EXPORT i = H

>>> EXPORT j = P

>>> IF (-FILE GMJ_e2_${i}_${j}.csv)

>>> COPY /tmp/ozone_131.00/GMJ_RHS_H_P.csv /home/grierjones/DDCASPT2/ozone/ANO-RCC-VDZP/ozone_131.00/GMJ_RHS_H_P.csv

>>> COPY /tmp/ozone_131.00/GMJ_IVECW_H_P.csv /home/grierjones/DDCASPT2/ozone/ANO-RCC-VDZP/ozone_131.00/GMJ_IVECW_H_P.csv

>>> COPY /tmp/ozone_131.00/GMJ_IVECX_H_P.csv /home/grierjones/DDCASPT2/ozone/ANO-RCC-VDZP/ozone_131.00/GMJ_IVECX_H_P.csv

>>> COPY /tmp/ozone_131.00/GMJ_IVECC2_H_P.csv /home/grierjones/DDCASPT2/ozone/ANO-RCC-VDZP/ozone_131.00/GMJ_IVECC2_H_P.csv

>>> COPY /tmp/ozone_131.00/GMJ_e2_H_P.csv /home/grierjones/DDCASPT2/ozone/ANO-RCC-VDZP/ozone_131.00/GMJ_e2_H_P.csv

>>> END FOREACH

>>> EXPORT j = M

>>> IF (-FILE GMJ_e2_${i}_${j}.csv)

>>> COPY /tmp/ozone_131.00/GMJ_RHS_H_M.csv /home/grierjones/DDCASPT2/ozone/ANO-RCC-VDZP/ozone_131.00/GMJ_RHS_H_M.csv

>>> COPY /tmp/ozone_131.00/GMJ_IVECW_H_M.csv /home/grierjones/DDCASPT2/ozone/ANO-RCC-VDZP/ozone_131.00/GMJ_IVECW_H_M.csv

>>> COPY /tmp/ozone_131.00/GMJ_IVECX_H_M.csv /home/grierjones/DDCASPT2/ozone/ANO-RCC-VDZP/ozone_131.00/GMJ_IVECX_H_M.csv

>>> COPY /tmp/ozone_131.00/GMJ_IVECC2_H_M.csv /home/grierjones/DDCASPT2/ozone/ANO-RCC-VDZP/ozone_131.00/GMJ_IVECC2_H_M.csv

>>> COPY /tmp/ozone_131.00/GMJ_e2_H_M.csv /home/grierjones/DDCASPT2/ozone/ANO-RCC-VDZP/ozone_131.00/GMJ_e2_H_M.csv

>>> END FOREACH

>>> END FOREACH

>>> EXPORT i = A

>>> IF (-FILE GMJ_e2_$i.csv)

>>> COPY /tmp/ozone_131.00/GMJ_RHS_A.csv /home/grierjones/DDCASPT2/ozone/ANO-RCC-VDZP/ozone_131.00/GMJ_RHS_A.csv

>>> COPY /tmp/ozone_131.00/GMJ_IVECW_A.csv /home/grierjones/DDCASPT2/ozone/ANO-RCC-VDZP/ozone_131.00/GMJ_IVECW_A.csv

>>> COPY /tmp/ozone_131.00/GMJ_IVECX_A.csv /home/grierjones/DDCASPT2/ozone/ANO-RCC-VDZP/ozone_131.00/GMJ_IVECX_A.csv

>>> COPY /tmp/ozone_131.00/GMJ_IVECC2_A.csv /home/grierjones/DDCASPT2/ozone/ANO-RCC-VDZP/ozone_131.00/GMJ_IVECC2_A.csv

>>> COPY /tmp/ozone_131.00/GMJ_e2_A.csv /home/grierjones/DDCASPT2/ozone/ANO-RCC-VDZP/ozone_131.00/GMJ_e2_A.csv

>>> END FOREACH

>>> EXPORT i = C

>>> IF (-FILE GMJ_e2_$i.csv)

>>> COPY /tmp/ozone_131.00/GMJ_RHS_C.csv /home/grierjones/DDCASPT2/ozone/ANO-RCC-VDZP/ozone_131.00/GMJ_RHS_C.csv

>>> COPY /tmp/ozone_131.00/GMJ_IVECW_C.csv /home/grierjones/DDCASPT2/ozone/ANO-RCC-VDZP/ozone_131.00/GMJ_IVECW_C.csv

>>> COPY /tmp/ozone_131.00/GMJ_IVECX_C.csv /home/grierjones/DDCASPT2/ozone/ANO-RCC-VDZP/ozone_131.00/GMJ_IVECX_C.csv

>>> COPY /tmp/ozone_131.00/GMJ_IVECC2_C.csv /home/grierjones/DDCASPT2/ozone/ANO-RCC-VDZP/ozone_131.00/GMJ_IVECC2_C.csv

>>> COPY /tmp/ozone_131.00/GMJ_e2_C.csv /home/grierjones/DDCASPT2/ozone/ANO-RCC-VDZP/ozone_131.00/GMJ_e2_C.csv

>>> END FOREACH

>>> EXPORT i = D

>>> IF (-FILE GMJ_e2_$i.csv)

>>> COPY /tmp/ozone_131.00/GMJ_RHS_D.csv /home/grierjones/DDCASPT2/ozone/ANO-RCC-VDZP/ozone_131.00/GMJ_RHS_D.csv

>>> COPY /tmp/ozone_131.00/GMJ_IVECW_D.csv /home/grierjones/DDCASPT2/ozone/ANO-RCC-VDZP/ozone_131.00/GMJ_IVECW_D.csv

>>> COPY /tmp/ozone_131.00/GMJ_IVECX_D.csv /home/grierjones/DDCASPT2/ozone/ANO-RCC-VDZP/ozone_131.00/GMJ_IVECX_D.csv

>>> COPY /tmp/ozone_131.00/GMJ_IVECC2_D.csv /home/grierjones/DDCASPT2/ozone/ANO-RCC-VDZP/ozone_131.00/GMJ_IVECC2_D.csv

>>> COPY /tmp/ozone_131.00/GMJ_e2_D.csv /home/grierjones/DDCASPT2/ozone/ANO-RCC-VDZP/ozone_131.00/GMJ_e2_D.csv

>>> END FOREACH

.########################.
.# Non-zero return code #.
.########################.

    Timing: Wall=3.71 User=2.67 System=0.87
********************************************
*** WorkDir at /tmp/ozone_131.00 cleaned ***
********************************************
