   This run of MOLCAS is using the pymolcas driver

                             OPE
                             OPE          NMOL  CASOP  ENMOLC A   SO
                 OPE        NMOLC        AS  OP EN  MO LC     AS  OP
                OPENM       OL CA        SO  PE NM  OL CA     SOP EN
                OP EN      MO   LC       AS  OP ENMOL  CASO   PENMOL
                OP  EN     MO   LC       AS  OP EN     MO     LC ASO
               OP   E  NMOL  C  AS       OP  EN MO     LC     AS  OP
               OP  E   NMO   LC AS        OPEN  MO     LCASOP EN   M
               O  PEN   MO  LCA  SO
            OPE   NMO   L   CAS    OP
        OPENMOL  CASOP     ENMOL   CASOPE
     OPENMOLCA   SOPENMOLCASOPEN   MOLCASOPE
    OPENMOLCAS   OP           EN   MOL    CAS
    OPENMOLCAS       OP  ENM        O     LCA
    OPENMOLCAS    OPEN  MOLCASO     P  E  NMO
    OPENMOLCAS     OP               E  N  MOL
    OPENMOLCA   SO           PENM   O  L  CAS    OPEN    MO    LCAS
    OPENMOLCA   SOP           ENM   O  L  CAS   OP  EN  MOLC  AS   O
    OPENMOLCA   SOPE           NM      O  LCA   S      OP  EN MO
    OPENMOLC                AS         O  PEN   M      OL  CA  SOPE
    OPENMO        LCASOPE  NMOL        C  ASO   P      ENMOLC     AS
    OPE     NMO      LCA  SO     P     E   NM   OL  CA SO  PE N   MO
          OPENMOLCA            SOPE   NMO        LCAS  O    P  ENMO
     OPENMOLCASOPENMOLCASOPENMOLCASOPENMOLCA
        OPENMOLCASOPENMOLCASOPENMOLCASOPE
            OPENMOLCASOPENMOLCASOPENM
               OPENMOLCASOPENMOLCA        version: ea724fe96-dirty
                   OPENMOLCASO
                       OPE                tag:

 OpenMolcas is free software; you can redistribute it and/or modify it
 under the terms of the GNU Lesser General Public License version 2.1.
 OpenMolcas is distributed in the hope that it will be useful, but it
 is provided "as is" and without any express or implied warranties.
 For more details see the full text of the license in the file
 LICENSE or in <http://www.gnu.org/licenses/>.

                 Copyright (C) The OpenMolcas Authors
           For the author list and the recommended citation,
                   consult the file CONTRIBUTORS.md

           *************************************************
           * pymolcas version py2.28                       *
           *   build c4a6d18ded8cb6cad61d2372a9abd97c      *
           *   (after the EMIL interpreter by V. Veryazov) *
           *************************************************

configuration info
------------------
C Compiler ID: Intel
C flags: -std=gnu99
Fortran Compiler ID: Intel
Fortran flags: -fpp -i8 -r8 -heap-arrays
Definitions: _MOLCAS_;_I8_;_LINUX_
Parallel: OFF (GA=OFF)


   --------------------------------------------------------------------------------
  |
  |              Project: ozone_109.25
  |       Submitted from: /home/grierjones/DDCASPT2/ozone/ANO-RCC-VTZP/ozone_109.25
  |         Scratch area: /tmp/ozone_109.25
  |      Save outputs to: /home/grierjones/DDCASPT2/ozone/ANO-RCC-VTZP/ozone_109.25
  |               Molcas: /home/grierjones/Test/build
  |
  | Scratch area is empty
  |
  |       MOLCAS_DRIVER = /usr/local/pymolcas
  | MOLCAS_KEEP_WORKDIR = NO
  |  MOLCAS_NEW_WORKDIR = YES
  |       MOLCAS_NPROCS = 1
  |        MOLCAS_PRINT = NORMAL
  |       MOLCAS_SOURCE = /home/grierjones/Test/build
  |    MOLCAS_STRUCTURE = 0
  |
   --------------------------------------------------------------------------------

++ ---------   Input file   ---------

&GATEWAY
coord=ozone_109.25.xyz
Basis = ANO-RCC-VTZP
Group = nosymm
Expert
End of Input

&SEWARD
End of Input

&SCF

>>> COPY $WorkDir/ozone_109.25.scf.h5 $CurrDir/

&RASSCF
Title= RASSCF
FileOrb
/home/grierjones/DDCASPT2/ozone/ANO-RCC-VTZP/ozone_109.00/ozone_109.00.RasOrb
NACTEL
4 0 0
Inactive
10
RAS2
3
Symmetry
1
Spin
1
orblisting
all
ITERation
300 200

>>> COPY $WorkDir/ozone_109.25.rasscf.h5 $CurrDir/

>>> COPY $WorkDir/GMJ_Fock_MO.csv $CurrDir/ozone_109.25.GMJ_Fock_MO.csv

>>> COPY $WorkDir/GMJ_PT2_Fock_MO.csv $CurrDir/ozone_109.25.GMJ_PT2_Fock_MO.csv

&MOTRA
Frozen=0
LUMORB

>>> COPY $WorkDir/GMJ_one_int_indx.csv $CurrDir/ozone_109.25.GMJ_one_int_indx.csv

>>> COPY $WorkDir/GMJ_one_int.csv $CurrDir/ozone_109.25.GMJ_one_int.csv

>>> COPY $WorkDir/GMJ_two_int_indx.csv $CurrDir/ozone_109.25.GMJ_two_int_indx.csv

>>> COPY $WorkDir/GMJ_two_int.csv $CurrDir/ozone_109.25.GMJ_two_int.csv

&CASPT2
Frozen
0
MAXITER
50

>>> FOREACH i IN (B,E,F,G,H)

  >>> FOREACH j IN (P,M)

    >>> IF (-FILE GMJ_e2_${i}_${j}.csv)

      >>> COPY $WorkDir/GMJ_RHS_${i}_${j}.csv $CurrDir/GMJ_RHS_${i}_${j}.csv

      >>> COPY $WorkDir/GMJ_IVECW_${i}_${j}.csv $CurrDir/GMJ_IVECW_${i}_${j}.csv

      >>> COPY $WorkDir/GMJ_IVECX_${i}_${j}.csv $CurrDir/GMJ_IVECX_${i}_${j}.csv

      >>> COPY $WorkDir/GMJ_IVECC2_${i}_${j}.csv $CurrDir/GMJ_IVECC2_${i}_${j}.csv

      >>> COPY $WorkDir/GMJ_e2_${i}_${j}.csv $CurrDir/GMJ_e2_${i}_${j}.csv

    >>> END IF

  >>> END FOREACH

>>> END FOREACH

>>> FOREACH i IN (A,C,D)

  >>> IF (-FILE GMJ_e2_$i.csv)

    >>> COPY $WorkDir/GMJ_RHS_$i.csv $CurrDir/GMJ_RHS_$i.csv

    >>> COPY $WorkDir/GMJ_IVECW_$i.csv $CurrDir/GMJ_IVECW_$i.csv

    >>> COPY $WorkDir/GMJ_IVECX_$i.csv $CurrDir/GMJ_IVECX_$i.csv

    >>> COPY $WorkDir/GMJ_IVECC2_$i.csv $CurrDir/GMJ_IVECC2_$i.csv

    >>> COPY $WorkDir/GMJ_e2_$i.csv $CurrDir/GMJ_e2_$i.csv

  >>> END IF

>>> END FOREACH

-- ----------------------------------

--- Start Module: gateway at Thu Dec 19 19:35:18 2024 ---
 
()()()()()()()()()()()()()()()()()()()()()()()()()()()()()()()()()()()()()()()()()()()()()()()()()()

                                              &GATEWAY

                                   only a single process is used
                       available to each process: 2.0 GB of memory, 1 thread?
()()()()()()()()()()()()()()()()()()()()()()()()()()()()()()()()()()()()()()()()()()()()()()()()()()
 
 ###############################################################################
 ###############################################################################
 ###                                                                         ###
 ###                                                                         ###
 ###                                                                         ###
 ###    WARNING: EXPERT option is ON!                                        ###
 ###                                                                         ###
 ###                                                                         ###
 ###############################################################################
 ###############################################################################
 
++    Symmetry information:
      ---------------------
 
                    Character Table for C1 
 
                             E  
                    a        1  x, y, xy, Rz, z, xz, Ry, yz, Rx, I
--
 
 
++    Basis set information:
      ----------------------
 
 
      Basis set label: O.ANO-RCC...4S3P2D1F.
 
      Electronic valence basis set:
      ------------------
      Associated Effective Charge   8.000000 au
      Associated Actual Charge      8.000000 au
      Nuclear Model: Point charge
 
      Shell  nPrim  nBasis  Cartesian Spherical Contaminant
         s      14       4        X                  
         p       9       3        X                  
         d       4       2                 X         
         f       3       1                 X         
--
 
 
++    Molecular structure info:
      -------------------------
 
                    ************************************************ 
                    **** Cartesian Coordinates / Bohr, Angstrom **** 
                    ************************************************ 
 
     Center  Label                x              y              z                     x              y              z
        1      O1               1.398146       1.969200       0.000000              0.739867       1.042056       0.000000
        2      O2               0.000000       0.000000       0.000000              0.000000       0.000000       0.000000
        3      O3               1.398146      -1.969200       0.000000              0.739867      -1.042056       0.000000
 
                    *************************************** 
                    *    InterNuclear Distances / Bohr    * 
                    *************************************** 
 
               1 O1            2 O2            3 O3    
    1 O1       0.000000
    2 O2       2.415070        0.000000
    3 O3       3.938401        2.415070        0.000000
 
                    ******************************************* 
                    *    InterNuclear Distances / Angstrom    * 
                    ******************************************* 
 
               1 O1            2 O2            3 O3    
    1 O1       0.000000
    2 O2       1.278000        0.000000
    3 O3       2.084112        1.278000        0.000000
 
                    ************************************** 
                    *    Valence Bond Angles / Degree    * 
                    ************************************** 
                          Atom centers                 Phi
                      1 O1       2 O2       3 O3       109.25
--
 
 
            Nuclear Potential Energy             69.25078649 au
 
 ###############################################################################
 ###############################################################################
 ###                                                                         ###
 ###                                                                         ###
 ###    There were warnings during the execution                             ###
 ###    Please, check the output with care!                                  ###
 ###                                                                         ###
 ###                                                                         ###
 ###############################################################################
 ###############################################################################
--- Stop Module: gateway at Thu Dec 19 19:35:18 2024 /rc=_RC_ALL_IS_WELL_ ---
*** files: xmldump
    saved to directory /home/grierjones/DDCASPT2/ozone/ANO-RCC-VTZP/ozone_109.25

--- Start Module: seward at Thu Dec 19 19:35:18 2024 ---
 
()()()()()()()()()()()()()()()()()()()()()()()()()()()()()()()()()()()()()()()()()()()()()()()()()()

                                              &SEWARD

                                   only a single process is used
                       available to each process: 2.0 GB of memory, 1 thread?
()()()()()()()()()()()()()()()()()()()()()()()()()()()()()()()()()()()()()()()()()()()()()()()()()()
 
 ###############################################################################
 ###############################################################################
 ###                                                                         ###
 ###                                                                         ###
 ###                                                                         ###
 ###    WARNING: EXPERT option is ON!                                        ###
 ###                                                                         ###
 ###                                                                         ###
 ###############################################################################
 ###############################################################################
               SEWARD will generate:
                  Multipole Moment integrals up to order  2
                  Kinetic Energy integrals
                  Nuclear Attraction integrals (point charge)
                  One-Electron Hamiltonian integrals
                  Velocity integrals
                  Relativistic Douglas-Kroll-Hess integrals:
                    - Parametrization         : EXP
                    - DKH order of Hamiltonian: 2
                    - DKH order of Properties : 0
                         - multipole moment operators
                         - electric potential operators
                         - contact operators
                  Atomic mean-field integrals
                  Two-Electron Repulsion integrals
 
                   Integrals are discarded if absolute value <: 0.10E-13
                   Integral cutoff threshold is set to       <: 0.10E-15
 
            Nuclear Potential Energy             69.25078649 au
 
 
      Basis set specifications :
      Symmetry species         a  
      Basis functions           90
 
 
  Input file to MOLDEN was generated!
 
 ###############################################################################
 ###############################################################################
 ###                                                                         ###
 ###                                                                         ###
 ###    There were warnings during the execution                             ###
 ###    Please, check the output with care!                                  ###
 ###                                                                         ###
 ###                                                                         ###
 ###############################################################################
 ###############################################################################
--- Stop Module: seward at Thu Dec 19 19:35:21 2024 /rc=_RC_ALL_IS_WELL_ ---
*** files: ozone_109.25.GssOrb ozone_109.25.guessorb.h5 ozone_109.25.guessorb.molden xmldump
    saved to directory /home/grierjones/DDCASPT2/ozone/ANO-RCC-VTZP/ozone_109.25
--- Module seward spent 2 seconds ---

*** symbolic link created: INPORB -> ozone_109.25.GssOrb
--- Start Module: scf at Thu Dec 19 19:35:21 2024 ---
 
()()()()()()()()()()()()()()()()()()()()()()()()()()()()()()()()()()()()()()()()()()()()()()()()()()

                                                &SCF

                                   only a single process is used
                       available to each process: 2.0 GB of memory, 1 thread?
()()()()()()()()()()()()()()()()()()()()()()()()()()()()()()()()()()()()()()()()()()()()()()()()()()
 
++    Input section:
      --------------
 
      Header of the integral files:
      
       Integrals generated by seward 4.2.0  , Thu Dec 19 19:35:18 2024
 
 
      Cartesian coordinates in Angstrom:
      -----------------------------------------------------
      No.  Label        X            Y            Z        
      -----------------------------------------------------
       1   O1         0.73986700   1.04205600   0.00000000
       2   O2         0.00000000   0.00000000   0.00000000
       3   O3         0.73986700  -1.04205600   0.00000000
      -----------------------------------------------------
      Nuclear repulsion energy =   69.25078649
--
 
++    Orbital specifications:
      -----------------------
 
      Symmetry species               1
                                     a
      Frozen orbitals                0
      Occupied orbitals             12
      Secondary orbitals            78
      Deleted orbitals               0
      Total number of orbitals      90
      Number of basis functions     90
--
 
      Molecular charge                           0.000
 
++    Optimization specifications:
      ----------------------------
 
      SCF Algorithm: Conventional
      Minimized density differences are used
      Number of density matrices in core                5
      Maximum number of NDDO SCF iterations           400
      Maximum number of HF SCF iterations             400
      Threshold for SCF energy change            0.10E-08
      Threshold for density matrix               0.10E-03
      Threshold for Fock matrix                  0.15E-03
      Threshold for linear dependence            0.10E-08
      Threshold at which DIIS is turned on       0.15E+00
      Threshold at which QNR/C2DIIS is turned on 0.75E-01
      Threshold for Norm(delta) (QNR/C2DIIS)     0.20E-04
      DIIS extrapolation of the SCF procedure
      All orbitals punched on: SCFORB
--
 
      Input vectors read from INPORB
      Orbital file label: *Guess orbitals
 
 
++ Convergence information
                                   SCF        iterations: Energy and convergence statistics
 
Iter     Tot. SCF        One-elec.       Two-elec.     Energy      Max Dij or  Max Fij      DNorm      TNorm      AccCon     Time
         Energy          Energy          Energy        Change      Delta Norm                                                in Sec.
   1  -223.859787389  -442.230752287   149.120178409   0.00E+00    0.66E+00*   0.28E+00*    0.74E+01   0.11E+03   None         0.
   2  -224.060953243  -448.501509041   155.189769309  -0.20E+00*   0.20E+00*   0.18E+00*    0.29E+01   0.11E+03   EDIIS        0.
   3  -224.471293564  -445.959256245   152.237176192  -0.41E+00*   0.22E+00*   0.83E-01*    0.67E+00   0.11E+03   EDIIS        0.
   4  -224.470673774  -446.480962753   152.759502489   0.62E-03*   0.14E-01*   0.43E-01*    0.31E+00   0.11E+03   EDIIS        0.
   5  -224.508112682  -446.163184570   152.404285398  -0.37E-01*   0.59E-02*   0.29E-02*    0.34E-01   0.11E+03   c2DIIS       0.
   6  -224.508263323  -446.193379860   152.434330048  -0.15E-03*   0.29E-02*   0.14E-02*    0.90E-02   0.11E+03   QNRc2DIIS    0.
   7  -224.508289270  -446.185041585   152.425965826  -0.26E-04*   0.30E-02*   0.61E-03*    0.33E-02   0.11E+03   QNRc2DIIS    0.
   8  -224.508298356  -446.191601857   152.432517011  -0.91E-05*   0.60E-03*   0.41E-03*    0.26E-02   0.11E+03   QNRc2DIIS    0.
   9  -224.508299040  -446.188417902   152.429332373  -0.68E-06*   0.61E-03*   0.19E-03*    0.51E-03   0.11E+03   QNRc2DIIS    0.
  10  -224.508299436  -446.186988978   152.427903052  -0.40E-06*   0.11E-03*   0.56E-04     0.13E-03   0.11E+03   QNRc2DIIS    0.
  11  -224.508299474  -446.188744487   152.429658525  -0.37E-07*   0.31E-04*   0.10E-04     0.91E-04   0.11E+03   QNRc2DIIS    0.
  12  -224.508299476  -446.188696712   152.429610747  -0.26E-08*   0.15E-04    0.44E-05     0.35E-04   0.11E+03   QNRc2DIIS    0.
  13  -224.508299476  -446.188625004   152.429539038  -0.33E-09    0.41E-05    0.11E-05     0.45E-04   0.11E+03   QNRc2DIIS    0.
 
       Convergence after 13 Macro Iterations
--
 
 *****************************************************************************************************************************
 *                                                                                                                           *
 *                                             SCF/KS-DFT Program, Final results                                             *
 *                                                                                                                           *
 *                                                                                                                           *
 *                                                                                                                           *
 *                                                       Final Results                                                       *
 *                                                                                                                           *
 *****************************************************************************************************************************
 
::    Total SCF energy                               -224.5082994765
      One-electron energy                            -446.1886250039
      Two-electron energy                             152.4295390385
      Nuclear repulsion energy                         69.2507864890
      Kinetic energy (interpolated)                   225.0982917079
      Virial theorem                                    0.9973789573
      Total spin, S(S+1)                                0.0000000000
      Total spin, S                                     0.0000000000
      Max non-diagonal density matrix element           0.0000040093
      Max non-diagonal Fock matrix element              0.0000009386
 
 
      All orbitals with orbital energies smaller than  E(LUMO)+0.5 are printed
 
++    Molecular orbitals:
      -------------------
 
      Title: SCF orbitals

      Molecular orbitals for symmetry species 1: a  
 
          Orbital            1         2         3         4         5         6         7         8         9        10    
          Energy          -20.9378  -20.7202  -20.7201   -1.7551   -1.4178   -1.1058   -0.8305   -0.7953   -0.7816   -0.5670
          Occ. No.          2.0000    2.0000    2.0000    2.0000    2.0000    2.0000    2.0000    2.0000    2.0000    2.0000
 
        1 O1     1s         0.0022   -0.7064    0.7063   -0.0140    0.0113    0.0085   -0.0142   -0.0232   -0.0000    0.0051
        2 O1     2s         0.0039    0.0049   -0.0052    0.3324   -0.5796    0.5708   -0.2986   -0.4273   -0.0000    0.0360
        3 O1     3s         0.0023    0.0036   -0.0036   -0.0115    0.0183    0.0145   -0.0302   -0.0524   -0.0000    0.0155
        4 O1     4s         0.0004    0.0007   -0.0007   -0.0009    0.0041    0.0022   -0.0057   -0.0112   -0.0000    0.0041
        5 O1     2px       -0.0012   -0.0014    0.0014   -0.0612    0.0688    0.1094    0.0938   -0.3448    0.0000    0.6216
        6 O1     3px       -0.0008   -0.0015    0.0014    0.0124   -0.0095   -0.0180   -0.0013    0.0320    0.0000   -0.0003
        7 O1     4px        0.0001    0.0008   -0.0009    0.0026   -0.0002    0.0009    0.0001    0.0025   -0.0000   -0.0061
        8 O1     2py       -0.0022   -0.0020    0.0021   -0.1052    0.0573    0.0615   -0.3720   -0.2240   -0.0000   -0.1848
        9 O1     3py       -0.0012   -0.0021    0.0021    0.0165   -0.0124   -0.0103    0.0384    0.0331    0.0000   -0.0130
       10 O1     4py        0.0005    0.0012   -0.0012    0.0004   -0.0035    0.0011    0.0030    0.0026   -0.0000    0.0005
       11 O1     2pz       -0.0000   -0.0000   -0.0000    0.0000    0.0000    0.0000   -0.0000    0.0000    0.3671   -0.0000
       12 O1     3pz       -0.0000    0.0000    0.0000   -0.0000    0.0000    0.0000    0.0000   -0.0000   -0.0197    0.0000
       13 O1     4pz        0.0000    0.0000    0.0000    0.0000   -0.0000   -0.0000    0.0000    0.0000   -0.0067   -0.0000
       14 O1     3d2-       0.0005    0.0011   -0.0011    0.0190   -0.0154   -0.0116    0.0122    0.0289   -0.0000   -0.0149
       15 O1     4d2-       0.0002    0.0005   -0.0006    0.0023   -0.0019   -0.0009    0.0015    0.0026   -0.0000   -0.0016
       16 O1     3d1-       0.0000   -0.0000   -0.0000   -0.0000   -0.0000   -0.0000    0.0000    0.0000   -0.0252    0.0000
       17 O1     4d1-       0.0000   -0.0000    0.0000    0.0000   -0.0000   -0.0000    0.0000    0.0000   -0.0033   -0.0000
       18 O1     3d0       -0.0003   -0.0005    0.0005   -0.0104    0.0087    0.0029   -0.0099   -0.0147    0.0000    0.0054
       19 O1     4d0       -0.0002   -0.0004    0.0004   -0.0001    0.0010   -0.0002   -0.0004   -0.0011    0.0000    0.0002
       20 O1     3d1+       0.0000    0.0000    0.0000    0.0000    0.0000   -0.0000    0.0000   -0.0000   -0.0193    0.0000
       21 O1     4d1+      -0.0000    0.0000    0.0000    0.0000    0.0000    0.0000    0.0000    0.0000   -0.0037   -0.0000
       22 O1     3d2+      -0.0004   -0.0004    0.0004   -0.0084    0.0018   -0.0016   -0.0226    0.0002    0.0000   -0.0036
       23 O1     4d2+      -0.0002   -0.0002    0.0002   -0.0004    0.0006    0.0003   -0.0015    0.0005    0.0000   -0.0015
       24 O1     4f3-       0.0001   -0.0001    0.0001   -0.0009    0.0025    0.0025    0.0043   -0.0047    0.0000    0.0035
       25 O1     4f2-      -0.0000   -0.0000   -0.0000   -0.0000   -0.0000    0.0000   -0.0000    0.0000    0.0067   -0.0000
       26 O1     4f1-       0.0000    0.0001   -0.0001    0.0029   -0.0023   -0.0004    0.0023    0.0028   -0.0000   -0.0015
       27 O1     4f0        0.0000    0.0000    0.0000    0.0000    0.0000    0.0000    0.0000   -0.0000   -0.0038   -0.0000
       28 O1     4f1+       0.0000    0.0001   -0.0001    0.0019   -0.0020   -0.0008    0.0010    0.0022   -0.0000   -0.0002
       29 O1     4f2+      -0.0000    0.0000    0.0000   -0.0000    0.0000    0.0000   -0.0000   -0.0000   -0.0023    0.0000
       30 O1     4f3+       0.0001    0.0002   -0.0002    0.0061   -0.0044   -0.0014    0.0057    0.0053    0.0000   -0.0022
       31 O2     1s         0.9989   -0.0000   -0.0007   -0.0268    0.0000   -0.0172   -0.0079   -0.0000    0.0000    0.0185
       32 O2     2s        -0.0076    0.0000    0.0106    0.6146    0.0000   -0.6821   -0.0848    0.0000   -0.0000    0.2276
       33 O2     3s        -0.0053    0.0000    0.0061   -0.0648    0.0000   -0.0127   -0.0120   -0.0000    0.0000    0.0437
       34 O2     4s        -0.0012    0.0000    0.0010   -0.0112    0.0000   -0.0034   -0.0035   -0.0000    0.0000    0.0108
       35 O2     2px       -0.0021    0.0000    0.0039    0.1168    0.0000    0.2653    0.6409   -0.0000    0.0000   -0.4626
       36 O2     3px       -0.0027    0.0000    0.0024   -0.0395   -0.0000   -0.0368   -0.0646   -0.0000    0.0000    0.0030
       37 O2     4px        0.0018   -0.0000   -0.0008   -0.0022   -0.0000    0.0008   -0.0091   -0.0000    0.0000   -0.0002
       38 O2     2py       -0.0000   -0.0052    0.0000    0.0000   -0.3280    0.0000    0.0000    0.5740   -0.0000   -0.0000
       39 O2     3py       -0.0000   -0.0031    0.0000   -0.0000    0.0609   -0.0000    0.0000   -0.0560    0.0000   -0.0000
       40 O2     4py        0.0000    0.0012   -0.0000    0.0000   -0.0012    0.0000   -0.0000   -0.0095   -0.0000    0.0000
       41 O2     2pz       -0.0000   -0.0000   -0.0000   -0.0000    0.0000   -0.0000   -0.0000    0.0000    0.6945    0.0000
       42 O2     3pz        0.0000   -0.0000   -0.0000    0.0000   -0.0000   -0.0000    0.0000    0.0000   -0.0453    0.0000
       43 O2     4pz       -0.0000   -0.0000   -0.0000   -0.0000   -0.0000   -0.0000   -0.0000    0.0000   -0.0158    0.0000
       44 O2     3d2-      -0.0000   -0.0015    0.0000   -0.0000   -0.0436   -0.0000    0.0000    0.0321   -0.0000   -0.0000
       45 O2     4d2-      -0.0000   -0.0007    0.0000   -0.0000   -0.0049   -0.0000    0.0000    0.0032    0.0000   -0.0000
       46 O2     3d1-       0.0000    0.0000    0.0000    0.0000    0.0000   -0.0000    0.0000   -0.0000   -0.0000   -0.0000
       47 O2     4d1-      -0.0000    0.0000    0.0000    0.0000    0.0000   -0.0000    0.0000    0.0000   -0.0000   -0.0000
       48 O2     3d0        0.0007   -0.0000   -0.0010   -0.0158   -0.0000   -0.0076   -0.0155   -0.0000   -0.0000    0.0171
       49 O2     4d0        0.0006   -0.0000   -0.0005    0.0005   -0.0000   -0.0006   -0.0012    0.0000   -0.0000    0.0019
       50 O2     3d1+       0.0000    0.0000    0.0000   -0.0000    0.0000    0.0000   -0.0000    0.0000    0.0353   -0.0000
       51 O2     4d1+       0.0000   -0.0000    0.0000    0.0000    0.0000   -0.0000   -0.0000    0.0000    0.0056   -0.0000
       52 O2     3d2+       0.0001   -0.0000   -0.0006   -0.0059   -0.0000    0.0028    0.0238   -0.0000    0.0000    0.0394
       53 O2     4d2+      -0.0000   -0.0000   -0.0003   -0.0003   -0.0000   -0.0002    0.0030    0.0000   -0.0000    0.0087
       54 O2     4f3-      -0.0000   -0.0001    0.0000   -0.0000   -0.0014   -0.0000    0.0000   -0.0024   -0.0000   -0.0000
       55 O2     4f2-       0.0000   -0.0000    0.0000    0.0000    0.0000   -0.0000    0.0000    0.0000    0.0000   -0.0000
       56 O2     4f1-       0.0000    0.0001   -0.0000    0.0000    0.0049    0.0000   -0.0000   -0.0040    0.0000    0.0000
       57 O2     4f0       -0.0000   -0.0000   -0.0000    0.0000   -0.0000   -0.0000    0.0000   -0.0000   -0.0065    0.0000
       58 O2     4f1+       0.0002   -0.0000   -0.0001   -0.0038   -0.0000   -0.0008   -0.0028   -0.0000    0.0000   -0.0001
       59 O2     4f2+       0.0000   -0.0000    0.0000    0.0000   -0.0000    0.0000    0.0000   -0.0000   -0.0036   -0.0000
       60 O2     4f3+       0.0001   -0.0000   -0.0002   -0.0087   -0.0000   -0.0004   -0.0020   -0.0000    0.0000    0.0071
       61 O3     1s         0.0022    0.7064    0.7063   -0.0140   -0.0113    0.0085   -0.0142    0.0232   -0.0000    0.0051
       62 O3     2s         0.0039   -0.0049   -0.0052    0.3324    0.5796    0.5708   -0.2986    0.4273   -0.0000    0.0360
       63 O3     3s         0.0023   -0.0036   -0.0036   -0.0115   -0.0183    0.0145   -0.0302    0.0524   -0.0000    0.0155
       64 O3     4s         0.0004   -0.0007   -0.0007   -0.0009   -0.0041    0.0022   -0.0057    0.0112   -0.0000    0.0041
       65 O3     2px       -0.0012    0.0014    0.0014   -0.0612   -0.0688    0.1094    0.0938    0.3448   -0.0000    0.6216
       66 O3     3px       -0.0008    0.0015    0.0014    0.0124    0.0095   -0.0180   -0.0013   -0.0320    0.0000   -0.0003
       67 O3     4px        0.0001   -0.0008   -0.0009    0.0026    0.0002    0.0009    0.0001   -0.0025    0.0000   -0.0061
       68 O3     2py        0.0022   -0.0020   -0.0021    0.1052    0.0573   -0.0615    0.3720   -0.2240    0.0000    0.1848
       69 O3     3py        0.0012   -0.0021   -0.0021   -0.0165   -0.0124    0.0103   -0.0384    0.0331   -0.0000    0.0130
       70 O3     4py       -0.0005    0.0012    0.0012   -0.0004   -0.0035   -0.0011   -0.0030    0.0026    0.0000   -0.0005
       71 O3     2pz        0.0000    0.0000   -0.0000    0.0000    0.0000    0.0000   -0.0000    0.0000    0.3671    0.0000
       72 O3     3pz        0.0000    0.0000    0.0000    0.0000    0.0000    0.0000    0.0000   -0.0000   -0.0197   -0.0000
       73 O3     4pz        0.0000   -0.0000   -0.0000   -0.0000    0.0000    0.0000    0.0000    0.0000   -0.0067   -0.0000
       74 O3     3d2-      -0.0005    0.0011    0.0011   -0.0190   -0.0154    0.0116   -0.0122    0.0289   -0.0000    0.0149
       75 O3     4d2-      -0.0002    0.0005    0.0006   -0.0023   -0.0019    0.0009   -0.0015    0.0026   -0.0000    0.0016
       76 O3     3d1-      -0.0000    0.0000    0.0000    0.0000    0.0000    0.0000   -0.0000    0.0000    0.0252    0.0000
       77 O3     4d1-       0.0000    0.0000   -0.0000    0.0000    0.0000   -0.0000   -0.0000    0.0000    0.0033    0.0000
       78 O3     3d0       -0.0003    0.0005    0.0005   -0.0104   -0.0087    0.0029   -0.0099    0.0147   -0.0000    0.0054
       79 O3     4d0       -0.0002    0.0004    0.0004   -0.0001   -0.0010   -0.0002   -0.0004    0.0011    0.0000    0.0002
       80 O3     3d1+       0.0000   -0.0000   -0.0000    0.0000    0.0000   -0.0000    0.0000   -0.0000   -0.0193   -0.0000
       81 O3     4d1+      -0.0000   -0.0000   -0.0000    0.0000    0.0000   -0.0000    0.0000   -0.0000   -0.0037   -0.0000
       82 O3     3d2+      -0.0004    0.0004    0.0004   -0.0084   -0.0018   -0.0016   -0.0226   -0.0002   -0.0000   -0.0036
       83 O3     4d2+      -0.0002    0.0002    0.0002   -0.0004   -0.0006    0.0003   -0.0015   -0.0005   -0.0000   -0.0015
       84 O3     4f3-      -0.0001   -0.0001   -0.0001    0.0009    0.0025   -0.0025   -0.0043   -0.0047   -0.0000   -0.0035
       85 O3     4f2-       0.0000    0.0000    0.0000   -0.0000    0.0000   -0.0000    0.0000   -0.0000   -0.0067   -0.0000
       86 O3     4f1-      -0.0000    0.0001    0.0001   -0.0029   -0.0023    0.0004   -0.0023    0.0028   -0.0000    0.0015
       87 O3     4f0        0.0000   -0.0000   -0.0000    0.0000    0.0000   -0.0000    0.0000   -0.0000   -0.0038   -0.0000
       88 O3     4f1+       0.0000   -0.0001   -0.0001    0.0019    0.0020   -0.0008    0.0010   -0.0022    0.0000   -0.0002
       89 O3     4f2+      -0.0000   -0.0000   -0.0000   -0.0000   -0.0000   -0.0000    0.0000   -0.0000   -0.0023   -0.0000
       90 O3     4f3+       0.0001   -0.0002   -0.0002    0.0061    0.0044   -0.0014    0.0057   -0.0053    0.0000   -0.0022
 
          Orbital           11        12        13        14        15        16        17        18        19        20    
          Energy           -0.5512   -0.4824   -0.0517    0.1726    0.1750    0.2368    0.3005    0.3414    0.3811    0.3901
          Occ. No.          2.0000    2.0000    0.0000    0.0000    0.0000    0.0000    0.0000    0.0000    0.0000    0.0000
 
        1 O1     1s         0.0048   -0.0000    0.0000   -0.1479   -0.1835   -0.0000   -0.0049   -0.0177    0.0723   -0.0000
        2 O1     2s         0.0272   -0.0000    0.0000   -1.0619   -1.3736   -0.0000    0.0684   -0.0130    0.4003   -0.0000
        3 O1     3s         0.0156   -0.0000    0.0000   -0.6229   -0.7954   -0.0000   -0.1015   -0.0429    0.4787   -0.0000
        4 O1     4s         0.0039    0.0000    0.0000   -0.1322   -0.1806   -0.0000   -0.0366   -0.0056    0.1413   -0.0000
        5 O1     2px       -0.4943   -0.0000    0.0000    0.3069    0.5280   -0.0000   -0.3060   -0.3045    0.2422   -0.0000
        6 O1     3px       -0.0185   -0.0000    0.0000    0.3864    0.4442   -0.0000    0.0752   -0.7280    0.7770   -0.0000
        7 O1     4px        0.0023    0.0000   -0.0000    0.0747    0.0363   -0.0000    0.0896   -0.2852    0.2837   -0.0000
        8 O1     2py        0.5548    0.0000   -0.0000    0.7123    0.4944    0.0000   -0.4434   -0.3157   -0.0964   -0.0000
        9 O1     3py        0.0007    0.0000   -0.0000    0.5920    0.6633   -0.0000   -0.5227   -0.1819   -0.1298   -0.0000
       10 O1     4py       -0.0037    0.0000   -0.0000    0.0416    0.1171   -0.0000   -0.1975   -0.0343    0.0157   -0.0000
       11 O1     2pz        0.0000   -0.7132    0.6600   -0.0000    0.0000   -0.1743    0.0000    0.0000   -0.0000   -0.1960
       12 O1     3pz       -0.0000   -0.0395    0.1600    0.0000   -0.0000    0.2786    0.0000    0.0000   -0.0000   -0.9718
       13 O1     4pz       -0.0000    0.0062    0.0244    0.0000   -0.0000    0.1790    0.0000    0.0000   -0.0000   -0.3858
       14 O1     3d2-      -0.0054    0.0000    0.0000   -0.0607   -0.0796    0.0000    0.0011   -0.0039   -0.0281    0.0000
       15 O1     4d2-       0.0001    0.0000    0.0000   -0.0410   -0.0493   -0.0000    0.0097    0.0144   -0.0264    0.0000
       16 O1     3d1-      -0.0000    0.0203    0.0061    0.0000   -0.0000    0.0218   -0.0000   -0.0000    0.0000    0.0026
       17 O1     4d1-      -0.0000    0.0052   -0.0002    0.0000   -0.0000    0.0111   -0.0000   -0.0000    0.0000    0.0109
       18 O1     3d0        0.0034    0.0000   -0.0000    0.0436    0.0551    0.0000    0.0134   -0.0018    0.0003   -0.0000
       19 O1     4d0       -0.0001    0.0000    0.0000    0.0270    0.0366    0.0000    0.0027   -0.0090    0.0093   -0.0000
       20 O1     3d1+      -0.0000    0.0153    0.0054    0.0000   -0.0000    0.0065    0.0000   -0.0000    0.0000    0.0165
       21 O1     4d1+      -0.0000    0.0037   -0.0004    0.0000    0.0000    0.0009    0.0000   -0.0000    0.0000    0.0147
       22 O1     3d2+       0.0168    0.0000   -0.0000    0.0449    0.0295    0.0000    0.0375   -0.0040   -0.0567    0.0000
       23 O1     4d2+       0.0031    0.0000   -0.0000    0.0291    0.0180    0.0000    0.0124   -0.0014   -0.0349    0.0000
       24 O1     4f3-      -0.0043   -0.0000    0.0000   -0.0003    0.0017   -0.0000   -0.0005   -0.0053    0.0133   -0.0000
       25 O1     4f2-       0.0000   -0.0051    0.0004   -0.0000   -0.0000    0.0021   -0.0000    0.0000   -0.0000   -0.0048
       26 O1     4f1-      -0.0004    0.0000   -0.0000   -0.0031   -0.0065   -0.0000    0.0012    0.0044   -0.0023    0.0000
       27 O1     4f0        0.0000    0.0014    0.0014   -0.0000    0.0000   -0.0009    0.0000   -0.0000    0.0000    0.0065
       28 O1     4f1+      -0.0013   -0.0000    0.0000   -0.0031   -0.0027   -0.0000    0.0005    0.0053   -0.0033    0.0000
       29 O1     4f2+      -0.0000    0.0015   -0.0005    0.0000    0.0000    0.0006   -0.0000    0.0000    0.0000    0.0018
       30 O1     4f3+      -0.0040    0.0000   -0.0000   -0.0050   -0.0081   -0.0000    0.0053    0.0080   -0.0007    0.0000
       31 O2     1s        -0.0000   -0.0000   -0.0000    0.3117    0.0000   -0.0000   -0.0909   -0.0000   -0.0226   -0.0000
       32 O2     2s        -0.0000   -0.0000   -0.0000    2.2576    0.0000   -0.0000   -0.7216   -0.0000   -0.2141   -0.0000
       33 O2     3s        -0.0000    0.0000   -0.0000    1.2713    0.0000   -0.0000   -0.2155   -0.0000   -0.0343   -0.0000
       34 O2     4s        -0.0000    0.0000   -0.0000    0.2723    0.0000   -0.0000   -0.0433   -0.0000    0.0242   -0.0000
       35 O2     2px        0.0000    0.0000   -0.0000    0.8693    0.0000   -0.0000   -0.3381   -0.0000   -0.6936    0.0000
       36 O2     3px        0.0000    0.0000    0.0000    0.9784    0.0000    0.0000    0.2765   -0.0000   -1.5557    0.0000
       37 O2     4px       -0.0000   -0.0000    0.0000    0.1506    0.0000    0.0000    0.1527   -0.0000   -0.4082    0.0000
       38 O2     2py       -0.1495    0.0000   -0.0000   -0.0000    1.2689    0.0000   -0.0000   -0.2003   -0.0000   -0.0000
       39 O2     3py       -0.0102    0.0000   -0.0000   -0.0000    1.1927    0.0000   -0.0000    0.5125   -0.0000    0.0000
       40 O2     4py       -0.0015    0.0000   -0.0000   -0.0000    0.1263    0.0000   -0.0000    0.2414   -0.0000    0.0000
       41 O2     2pz       -0.0000    0.0000   -0.8487   -0.0000   -0.0000    0.0532   -0.0000   -0.0000    0.0000   -0.0000
       42 O2     3pz       -0.0000    0.0000   -0.1817    0.0000   -0.0000    0.4480   -0.0000   -0.0000    0.0000   -0.0000
       43 O2     4pz       -0.0000   -0.0000   -0.0218    0.0000   -0.0000    0.2221   -0.0000   -0.0000    0.0000   -0.0000
       44 O2     3d2-      -0.0387   -0.0000   -0.0000   -0.0000    0.1410    0.0000   -0.0000    0.0903    0.0000    0.0000
       45 O2     4d2-      -0.0070   -0.0000   -0.0000   -0.0000    0.0892    0.0000   -0.0000    0.0659    0.0000    0.0000
       46 O2     3d1-       0.0000   -0.0558   -0.0000    0.0000    0.0000    0.0000   -0.0000   -0.0000    0.0000    0.0883
       47 O2     4d1-       0.0000   -0.0133    0.0000    0.0000    0.0000    0.0000   -0.0000   -0.0000    0.0000    0.0531
       48 O2     3d0       -0.0000   -0.0000    0.0000   -0.0914   -0.0000   -0.0000   -0.0552    0.0000    0.0833   -0.0000
       49 O2     4d0       -0.0000    0.0000    0.0000   -0.0598   -0.0000   -0.0000   -0.0313    0.0000    0.0602   -0.0000
       50 O2     3d1+       0.0000    0.0000    0.0096    0.0000    0.0000   -0.0267    0.0000   -0.0000   -0.0000   -0.0000
       51 O2     4d1+       0.0000   -0.0000    0.0020    0.0000    0.0000   -0.0085    0.0000   -0.0000    0.0000   -0.0000
       52 O2     3d2+      -0.0000   -0.0000    0.0000   -0.0283   -0.0000   -0.0000   -0.0565   -0.0000   -0.0699    0.0000
       53 O2     4d2+      -0.0000   -0.0000    0.0000   -0.0118   -0.0000    0.0000   -0.0213   -0.0000   -0.0524    0.0000
       54 O2     4f3-      -0.0097   -0.0000    0.0000    0.0000   -0.0018   -0.0000   -0.0000    0.0083   -0.0000    0.0000
       55 O2     4f2-       0.0000   -0.0090   -0.0000    0.0000    0.0000    0.0000   -0.0000   -0.0000    0.0000    0.0090
       56 O2     4f1-       0.0010    0.0000   -0.0000    0.0000   -0.0070   -0.0000    0.0000   -0.0131    0.0000   -0.0000
       57 O2     4f0       -0.0000    0.0000   -0.0019   -0.0000   -0.0000   -0.0039    0.0000    0.0000   -0.0000    0.0000
       58 O2     4f1+       0.0000   -0.0000   -0.0000   -0.0089   -0.0000   -0.0000   -0.0080    0.0000    0.0157   -0.0000
       59 O2     4f2+       0.0000   -0.0000    0.0009    0.0000   -0.0000   -0.0010    0.0000   -0.0000   -0.0000    0.0000
       60 O2     4f3+      -0.0000   -0.0000   -0.0000   -0.0121   -0.0000   -0.0000   -0.0076    0.0000    0.0132   -0.0000
       61 O3     1s        -0.0048    0.0000   -0.0000   -0.1479    0.1835    0.0000   -0.0049    0.0177    0.0723   -0.0000
       62 O3     2s        -0.0272    0.0000   -0.0000   -1.0619    1.3736    0.0000    0.0684    0.0130    0.4003   -0.0000
       63 O3     3s        -0.0156   -0.0000   -0.0000   -0.6229    0.7954    0.0000   -0.1015    0.0429    0.4787   -0.0000
       64 O3     4s        -0.0039   -0.0000   -0.0000   -0.1322    0.1806    0.0000   -0.0366    0.0056    0.1413   -0.0000
       65 O3     2px        0.4943    0.0000    0.0000    0.3069   -0.5280   -0.0000   -0.3060    0.3045    0.2422   -0.0000
       66 O3     3px        0.0185   -0.0000   -0.0000    0.3864   -0.4442   -0.0000    0.0752    0.7280    0.7770   -0.0000
       67 O3     4px       -0.0023   -0.0000   -0.0000    0.0747   -0.0363   -0.0000    0.0896    0.2852    0.2837   -0.0000
       68 O3     2py        0.5548    0.0000   -0.0000   -0.7123    0.4944    0.0000    0.4434   -0.3157    0.0964   -0.0000
       69 O3     3py        0.0007   -0.0000   -0.0000   -0.5920    0.6633    0.0000    0.5227   -0.1819    0.1298   -0.0000
       70 O3     4py       -0.0037   -0.0000    0.0000   -0.0416    0.1171    0.0000    0.1975   -0.0343   -0.0157    0.0000
       71 O3     2pz       -0.0000    0.7132    0.6600   -0.0000    0.0000   -0.1743    0.0000    0.0000    0.0000    0.1960
       72 O3     3pz       -0.0000    0.0395    0.1600    0.0000    0.0000    0.2786   -0.0000   -0.0000    0.0000    0.9718
       73 O3     4pz        0.0000   -0.0062    0.0244    0.0000   -0.0000    0.1790   -0.0000   -0.0000    0.0000    0.3858
       74 O3     3d2-      -0.0054   -0.0000    0.0000    0.0607   -0.0796   -0.0000   -0.0011   -0.0039    0.0281   -0.0000
       75 O3     4d2-       0.0001    0.0000   -0.0000    0.0410   -0.0493   -0.0000   -0.0097    0.0144    0.0264   -0.0000
       76 O3     3d1-      -0.0000    0.0203   -0.0061   -0.0000    0.0000   -0.0218    0.0000    0.0000   -0.0000    0.0026
       77 O3     4d1-      -0.0000    0.0052    0.0002    0.0000    0.0000   -0.0111    0.0000   -0.0000    0.0000    0.0109
       78 O3     3d0       -0.0034    0.0000    0.0000    0.0436   -0.0551   -0.0000    0.0134    0.0018    0.0003   -0.0000
       79 O3     4d0        0.0001    0.0000    0.0000    0.0270   -0.0366   -0.0000    0.0027    0.0090    0.0093   -0.0000
       80 O3     3d1+       0.0000   -0.0153    0.0054    0.0000   -0.0000    0.0065   -0.0000    0.0000   -0.0000   -0.0165
       81 O3     4d1+       0.0000   -0.0037   -0.0004    0.0000   -0.0000    0.0009    0.0000    0.0000   -0.0000   -0.0147
       82 O3     3d2+      -0.0168   -0.0000    0.0000    0.0449   -0.0295   -0.0000    0.0375    0.0040   -0.0567    0.0000
       83 O3     4d2+      -0.0031   -0.0000    0.0000    0.0291   -0.0180   -0.0000    0.0124    0.0014   -0.0349    0.0000
       84 O3     4f3-      -0.0043   -0.0000   -0.0000    0.0003    0.0017    0.0000    0.0005   -0.0053   -0.0133    0.0000
       85 O3     4f2-       0.0000   -0.0051   -0.0004    0.0000    0.0000   -0.0021    0.0000    0.0000   -0.0000   -0.0048
       86 O3     4f1-      -0.0004   -0.0000    0.0000    0.0031   -0.0065   -0.0000   -0.0012    0.0044    0.0023   -0.0000
       87 O3     4f0        0.0000   -0.0014    0.0014    0.0000   -0.0000   -0.0009    0.0000    0.0000   -0.0000   -0.0065
       88 O3     4f1+       0.0013    0.0000    0.0000   -0.0031    0.0027    0.0000    0.0005   -0.0053   -0.0033    0.0000
       89 O3     4f2+       0.0000   -0.0015   -0.0005   -0.0000    0.0000    0.0006   -0.0000   -0.0000   -0.0000   -0.0018
       90 O3     4f3+       0.0040    0.0000   -0.0000   -0.0050    0.0081    0.0000    0.0053   -0.0080   -0.0007   -0.0000
 
          Orbital           21        22    
          Energy            0.4137    0.4310
          Occ. No.          0.0000    0.0000
 
        1 O1     1s         0.0022   -0.0488
        2 O1     2s         0.0712   -0.2395
        3 O1     3s        -0.1736   -0.2338
        4 O1     4s        -0.0558   -0.0346
        5 O1     2px       -0.3560    0.0621
        6 O1     3px        0.1809    0.2790
        7 O1     4px        0.0896    0.0294
        8 O1     2py       -0.0660   -0.0686
        9 O1     3py        0.5644    0.7807
       10 O1     4py        0.1874    0.2416
       11 O1     2pz       -0.0000    0.0000
       12 O1     3pz        0.0000    0.0000
       13 O1     4pz        0.0000    0.0000
       14 O1     3d2-      -0.0838   -0.1506
       15 O1     4d2-      -0.0478   -0.0923
       16 O1     3d1-      -0.0000   -0.0000
       17 O1     4d1-      -0.0000   -0.0000
       18 O1     3d0        0.0721    0.0479
       19 O1     4d0        0.0451    0.0272
       20 O1     3d1+      -0.0000   -0.0000
       21 O1     4d1+      -0.0000   -0.0000
       22 O1     3d2+       0.0091    0.0625
       23 O1     4d2+       0.0149    0.0336
       24 O1     4f3-       0.0031    0.0003
       25 O1     4f2-      -0.0000    0.0000
       26 O1     4f1-      -0.0097   -0.0078
       27 O1     4f0        0.0000   -0.0000
       28 O1     4f1+      -0.0065   -0.0057
       29 O1     4f2+      -0.0000   -0.0000
       30 O1     4f3+      -0.0072   -0.0175
       31 O2     1s        -0.0000    0.1834
       32 O2     2s        -0.0000    0.9703
       33 O2     3s        -0.0000    0.9695
       34 O2     4s        -0.0000    0.2141
       35 O2     2px        0.0000   -0.1803
       36 O2     3px        0.0000    0.1534
       37 O2     4px        0.0000   -0.0745
       38 O2     2py       -0.8034   -0.0000
       39 O2     3py       -0.3147   -0.0000
       40 O2     4py       -0.1359   -0.0000
       41 O2     2pz       -0.0000   -0.0000
       42 O2     3pz       -0.0000   -0.0000
       43 O2     4pz       -0.0000   -0.0000
       44 O2     3d2-       0.1617    0.0000
       45 O2     4d2-       0.0562    0.0000
       46 O2     3d1-       0.0000    0.0000
       47 O2     4d1-       0.0000    0.0000
       48 O2     3d0        0.0000   -0.1618
       49 O2     4d0        0.0000   -0.0720
       50 O2     3d1+       0.0000   -0.0000
       51 O2     4d1+       0.0000   -0.0000
       52 O2     3d2+       0.0000   -0.0533
       53 O2     4d2+       0.0000   -0.0148
       54 O2     4f3-       0.0035    0.0000
       55 O2     4f2-      -0.0000    0.0000
       56 O2     4f1-       0.0026    0.0000
       57 O2     4f0        0.0000    0.0000
       58 O2     4f1+      -0.0000   -0.0056
       59 O2     4f2+       0.0000    0.0000
       60 O2     4f3+      -0.0000   -0.0110
       61 O3     1s        -0.0022   -0.0488
       62 O3     2s        -0.0712   -0.2395
       63 O3     3s         0.1736   -0.2338
       64 O3     4s         0.0558   -0.0346
       65 O3     2px        0.3560    0.0621
       66 O3     3px       -0.1809    0.2790
       67 O3     4px       -0.0896    0.0294
       68 O3     2py       -0.0660    0.0686
       69 O3     3py        0.5644   -0.7807
       70 O3     4py        0.1874   -0.2416
       71 O3     2pz        0.0000    0.0000
       72 O3     3pz        0.0000    0.0000
       73 O3     4pz        0.0000    0.0000
       74 O3     3d2-      -0.0838    0.1506
       75 O3     4d2-      -0.0478    0.0923
       76 O3     3d1-       0.0000    0.0000
       77 O3     4d1-       0.0000    0.0000
       78 O3     3d0       -0.0721    0.0479
       79 O3     4d0       -0.0451    0.0272
       80 O3     3d1+       0.0000   -0.0000
       81 O3     4d1+      -0.0000   -0.0000
       82 O3     3d2+      -0.0091    0.0625
       83 O3     4d2+      -0.0149    0.0336
       84 O3     4f3-       0.0031   -0.0003
       85 O3     4f2-      -0.0000   -0.0000
       86 O3     4f1-      -0.0097    0.0078
       87 O3     4f0       -0.0000   -0.0000
       88 O3     4f1+       0.0065   -0.0057
       89 O3     4f2+      -0.0000   -0.0000
       90 O3     4f3+       0.0072   -0.0175
--
 
 
++    Molecular charges:
      ------------------
 
      Mulliken charges per centre and basis function type
      ---------------------------------------------------
 
                O1      O2      O3    
      1s       1.9980  1.9979  1.9980
      2s       1.9423  1.7309  1.9423
      2px      1.6008  1.4816  1.6008
      2pz      1.3633  1.1969  1.3633
      2py      1.2345  1.0720  1.2345
      3s      -0.0010 -0.0201 -0.0010
      3px     -0.0106 -0.0093 -0.0106
      3pz     -0.0134 -0.0128 -0.0134
      3py      0.0034 -0.0010  0.0034
      4s       0.0045  0.0022  0.0045
      3d2+     0.0080  0.0382  0.0080
      3d1+     0.0056  0.0110  0.0056
      3d0      0.0055  0.0074  0.0055
      3d1-     0.0094  0.0421  0.0094
      3d2-     0.0197  0.0414  0.0197
      4px      0.0010  0.0022  0.0010
      4pz      0.0012  0.0016  0.0012
      4py      0.0020  0.0029  0.0020
      4d2+    -0.0003  0.0082 -0.0003
      4d1+     0.0011  0.0016  0.0011
      4d0     -0.0001 -0.0001 -0.0001
      4d1-     0.0006  0.0109  0.0006
      4d2-     0.0008  0.0036  0.0008
      4f3+     0.0030  0.0037  0.0030
      4f2+     0.0002  0.0004  0.0002
      4f1+     0.0005  0.0007  0.0005
      4f0      0.0009  0.0016  0.0009
      4f1-     0.0008  0.0011  0.0008
      4f2-     0.0020  0.0049  0.0020
      4f3-     0.0020  0.0072  0.0020
      Total    8.1856  7.6289  8.1856
 
      N-E     -0.1856  0.3711 -0.1856
 
      Total electronic charge=   24.000000
 
      Total            charge=   -0.000000
--
 
 
  Input file to MOLDEN was generated!
 
 
++    Static properties:
      ------------------
 
 
      LoProp Charges per center
 

                   O1       O2       O3    
      Nuclear      8.0000   8.0000   8.0000
      Electronic  -8.2091  -7.5818  -8.2091
 
      Total       -0.2091   0.4182  -0.2091
--
 
 
++    Natural Bond Order analysis
      ---------------------------
      Based on LoProp computed density
      -------------------------------------------------------------------------------------
      Atom A       Atom B       Bond Order | Atom A       Atom B       Bond Order
        O1           O2             1.998  |   O2           O3             1.998
      -------------------------------------------------------------------------------------
      NBO located      9.999 core electrons.
      NBO located      5.945 lone pair electrons.
      NBO located      7.991 electrons involved in    2 bonds.
      The remaining    0.065 electrons are to be considered as diffuse
--
 
 
++    Molecular properties:
      ---------------------
 
      Charge (e):
                      =   -0.0000
      Dipole Moment (Debye):
      Origin of the operator (Ang)=    0.0000    0.0000    0.0000
                   X= -9.3294E-01               Y= -9.5543E-11               Z=  7.8498E-14           Total=  9.3294E-01
      Quadrupole Moment (Debye*Ang):
      Origin of the operator (Ang)=    0.4932    0.0000    0.0000
                  XX= -1.5511E+01              XY= -4.3417E-11              XZ=  7.6684E-14              YY= -1.7463E+01
                  YZ=  1.4892E-13              ZZ= -1.4887E+01
      In traceless form (Debye*Ang)
                  XX=  6.6417E-01              XY= -6.5126E-11              XZ=  1.1503E-13              YY= -2.2638E+00
                  YZ=  2.2338E-13              ZZ=  1.5996E+00
--
 
 
  Input file to MOLDEN was generated!
 
 ###############################################################################
 ###############################################################################
 ###                                                                         ###
 ###                                                                         ###
 ###    RunFile label nBas                                                   ###
 ###    was used       78 times                                              ###
 ###                                                                         ###
 ###                                                                         ###
 ###############################################################################
 ###############################################################################
--- Stop Module: scf at Thu Dec 19 19:35:22 2024 /rc=_RC_ALL_IS_WELL_ ---
*** files: ozone_109.25.LprOrb ozone_109.25.LoProp.molden ozone_109.25.scf.molden ozone_109.25.ScfOrb ozone_109.25.scf.h5 xmldump
    saved to directory /home/grierjones/DDCASPT2/ozone/ANO-RCC-VTZP/ozone_109.25

>>> COPY /tmp/ozone_109.25/ozone_109.25.scf.h5 /home/grierjones/DDCASPT2/ozone/ANO-RCC-VTZP/ozone_109.25/

*** symbolic link created: INPORB -> ozone_109.25.ScfOrb
--- Start Module: rasscf at Thu Dec 19 19:35:22 2024 ---
 
()()()()()()()()()()()()()()()()()()()()()()()()()()()()()()()()()()()()()()()()()()()()()()()()()()

                                              &RASSCF

                                   only a single process is used
                       available to each process: 2.0 GB of memory, 1 thread?
()()()()()()()()()()()()()()()()()()()()()()()()()()()()()()()()()()()()()()()()()()()()()()()()()()
 
 
 *************** WARNING ****************
 ###############################################################################
 ###############################################################################
 ###                                                                         ###
 ###                                                                         ###
 ###    Too many macro-iterations.                                           ###
 ###                                                                         ###
 ###                                                                         ###
 ###############################################################################
 ###############################################################################
 Too many macro-iterations requested.
 Reset to maximum, new MAXIT=     200
 ****************************************
 
 *************** WARNING ****************
 ###############################################################################
 ###############################################################################
 ###                                                                         ###
 ###                                                                         ###
 ###    Too many SX-iterations.                                              ###
 ###                                                                         ###
 ###                                                                         ###
 ###############################################################################
 ###############################################################################
 Too many SX-iterations requested.
 Reset to maximum, new ITMAX=     100
 ****************************************
 
      Header of the ONEINT file:
      --------------------------
      
      Integrals generated by seward 4.2.0  , Thu Dec 19 19:35:18 2024
 
 
      OrdInt status: non-squared
 
 
      Cartesian coordinates in Angstrom:
      -----------------------------------------------------
      No.  Label        X            Y            Z        
      -----------------------------------------------------
       1   O1         0.73986700   1.04205600   0.00000000
       2   O2         0.00000000   0.00000000   0.00000000
       3   O3         0.73986700  -1.04205600   0.00000000
      -----------------------------------------------------
      Nuclear repulsion energy =   69.25078649
 
++    Wave function specifications:
      -----------------------------
 
      Number of closed shell electrons          20
      Number of electrons in active shells       4
      Max number of holes in RAS1 space          0
      Max nr of electrons in RAS3 space          0
      Number of inactive orbitals               10
      Number of active orbitals                  3
      Number of secondary orbitals              77
      Spin quantum number                      0.0
      State symmetry                             1
--
 
++    Orbital specifications:
      -----------------------
 
      Symmetry species                           1
                                                 a
      Frozen orbitals                            0
      Inactive orbitals                         10
      Active orbitals                            3
      RAS1 orbitals                              0
      RAS2 orbitals                              3
      RAS3 orbitals                              0
      Secondary orbitals                        77
      Deleted orbitals                           0
      Number of basis functions                 90
--
 
++    CI expansion specifications:
      ----------------------------
 
      Number of CSFs                             6
      Number of determinants                     6
      Number of root(s) required                 1
      Root chosen for geometry opt.              1
      CI root used                               1
         
      highest root included in the CI            1
      max. size of the explicit Hamiltonian      6
--
 
++    Optimization specifications:
      ----------------------------
 
      RASSCF algorithm: Conventional
      Maximum number of macro iterations       200
      Maximum number of SX iterations          100
      Threshold for RASSCF energy            0.100E-07
      Threshold for max MO rotation          0.100E+00
      Threshold for max BLB element          0.100E-03
      Level shift parameter                  0.500E+00
      Make Quasi-Newton update
--
 
      The MO-coefficients are taken from the file:
      /home/grierjones/DDCASPT2/ozone/ANO-RCC-VTZP/ozone_109.00/ozone_109.00.RasOrb                                                   
      Title: RASSCF average (pseudo-natural) orbitals                                      
 
      Total molecular charge    0.00
 
      ************************************************************************************************************************
      *                                                                                                                      *
      *                                            Wave function control section                                             *
      *                                                                                                                      *
      ************************************************************************************************************************
 
 
                                         RASSCF iterations: Energy and convergence statistics
                                         ----------------------------------------------------
 
      Iter CI   SX   CI       RASSCF       Energy    max ROT     max BLB   max BLB  Level Ln srch  Step   QN   Walltime
          iter iter root      energy       change     param      element    value   shift minimum  type update hh:mm:ss
 Nr of preliminary CI iterations:   1
        1   1    3    1  -224.60884963    0.00E+00   0.40E-03    7  22 1  0.11E-02*  0.17   0.00    SX    NO    0:00:00
        2   1    3    1  -224.60885469   -0.51E-05* -0.23E-03   10  21 1 -0.54E-03*  0.17   0.00    SX    NO    0:00:00
        3   1    3    1  -224.60885587   -0.12E-05* -0.16E-03   10  21 1 -0.36E-03*  0.17   0.00    SX    NO    0:00:00
        4   1    3    1  -224.60885626   -0.40E-06* -0.96E-04   10  21 1 -0.22E-03*  0.17   0.00    SX    NO    0:00:00
        5   1    3    1  -224.60885640   -0.14E-06* -0.14E-03   10  21 1 -0.14E-03*  0.17   2.50    LS   YES    0:00:00
        6   1    3    1  -224.60885646   -0.67E-07*  0.29E-04    8  21 1 -0.86E-04   0.17   0.90    QN   YES    0:00:00
        7   1    3    1  -224.60885648   -0.11E-07*  0.10E-04    8  21 1  0.47E-04   0.17   0.73    QN   YES    0:00:00
        8   1    2    1  -224.60885648   -0.43E-09   0.49E-05    8  21 1 -0.30E-04   0.17   0.48    QN   YES    0:00:00
      Convergence after  8 iterations
 
  Dmat in MO in SXCTL bf call to SXHAM                                                                                    
  mat. size =     3x    3
 
        1.9936407829126876
        0.0000000000014383      1.5768078342977523
       -0.0006407040651753     -0.0000000000019642      0.4295513827895565
        9   1    2    1  -224.60885648   -0.40E-09   0.49E-05    7  17 1 -0.19E-05   0.17   0.48    QN   YES    0:00:00
 
      ************************************************************************************************************************
                                                      Wave function printout:
                       occupation of active orbitals, and spin coupling of open shells (u,d: Spin up or down)
      ************************************************************************************************************************
 
      Note: transformation to natural orbitals
      has been made, which may change the order of the CSFs.
 
      printout of CI-coefficients larger than  0.05 for root  1
      energy=    -224.608856
      conf/sym  111     Coeff  Weight
             1  220  -0.88613 0.78522
             3  202   0.46000 0.21160
             6  022   0.05639 0.00318
 
      Natural orbitals and occupation numbers for root  1
      sym 1:   1.993641   1.576808   0.429551
 
      ************************************************************************************************************************
      *                                                                                                                      *
      *                                                    Final results                                                     *
      *                                                                                                                      *
      ************************************************************************************************************************
 
 
++    Wave function specifications:
      -----------------------------
 
      Number of closed shell electrons          20
      Number of electrons in active shells       4
      Max number of holes in RAS1 space          0
      Max nr of electrons in RAS3 space          0
      Number of inactive orbitals               10
      Number of active orbitals                  3
      Number of secondary orbitals              77
      Spin quantum number                      0.0
      State symmetry                             1
--
 
++    Orbital specifications:
      -----------------------
 
      Symmetry species                           1
                                                 a
      Frozen orbitals                            0
      Inactive orbitals                         10
      Active orbitals                            3
      RAS1 orbitals                              0
      RAS2 orbitals                              3
      RAS3 orbitals                              0
      Secondary orbitals                        77
      Deleted orbitals                           0
      Number of basis functions                 90
--
 
++    CI expansion specifications:
      ----------------------------
 
      Number of CSFs                             6
      Number of determinants                     6
      Number of root(s) required                 1
      CI root used                               1
      highest root included in the CI            1
      Root passed to geometry opt.               1
--
 
++    Final optimization conditions:
      ------------------------------
 
      Average CI energy                            -224.60885648
      RASSCF energy for state  1                   -224.60885648
      Super-CI energy                                -0.00000000
      RASSCF energy change                           -0.00000000
      Max change in MO coefficients              -0.584E-05
      Max non-diagonal density matrix element     0.493E-05
      Maximum BLB matrix element                 -0.191E-05
      (orbital pair   7,  17 in symmetry   1)
      Norm of electronic gradient            0.128E-04
--
 
 
      Final state energy(ies):
      ------------------------
 
::    RASSCF root number  1 Total energy:   -224.60885648
 
++    Molecular orbitals:
      -------------------
 
      Pseudonatural active orbitals and approximate occupation numbers
 
 
 
 
      Molecular orbitals for symmetry species 1: a  
 
 
      Orbital                1         2         3         4         5         6         7         8         9        10
      Energy          -20.8307  -20.7144  -20.7144   -1.7198   -1.4013   -1.0825   -0.7975   -0.7763   -0.5535   -0.5532
      Occ. No.          2.0000    2.0000    2.0000    2.0000    2.0000    2.0000    2.0000    2.0000    2.0000    2.0000
 
    1 O1     1s         0.0035   -0.7064    0.7064   -0.0141    0.0102    0.0109   -0.0121    0.0220    0.0047    0.0048
    2 O1     2s         0.0047    0.0046   -0.0050    0.3505   -0.5986    0.5867   -0.2381    0.3898    0.0268    0.0260
    3 O1     3s         0.0027    0.0035   -0.0036   -0.0137    0.0174    0.0195   -0.0265    0.0501    0.0179    0.0151
    4 O1     4s         0.0004    0.0006   -0.0006   -0.0016    0.0043    0.0027   -0.0052    0.0107    0.0051    0.0038
    5 O1     2px       -0.0014   -0.0014    0.0014   -0.0619    0.0666    0.1224    0.1449    0.3765    0.6213   -0.4841
    6 O1     3px       -0.0009   -0.0014    0.0013    0.0134   -0.0091   -0.0194   -0.0056   -0.0305    0.0037   -0.0184
    7 O1     4px        0.0002    0.0008   -0.0009    0.0024   -0.0002    0.0004   -0.0008   -0.0035   -0.0065    0.0026
    8 O1     2py       -0.0026   -0.0019    0.0020   -0.1084    0.0557    0.0897   -0.4027    0.2423   -0.1324    0.5653
    9 O1     3py       -0.0015   -0.0020    0.0020    0.0179   -0.0121   -0.0149    0.0355   -0.0314   -0.0158    0.0019
   10 O1     4py        0.0007    0.0012   -0.0012    0.0003   -0.0036    0.0012    0.0045   -0.0033   -0.0004   -0.0043
   11 O1     2pz       -0.0000    0.0000    0.0000   -0.0000    0.0000    0.0000   -0.0000   -0.0000   -0.0000    0.0000
   12 O1     3pz        0.0000    0.0000   -0.0000    0.0000   -0.0000    0.0000    0.0000    0.0000   -0.0000   -0.0000
   13 O1     4pz        0.0000   -0.0000    0.0000   -0.0000   -0.0000    0.0000    0.0000    0.0000    0.0000   -0.0000
   14 O1     3d2-       0.0006    0.0010   -0.0011    0.0185   -0.0145   -0.0134    0.0094   -0.0291   -0.0150   -0.0056
   15 O1     4d2-       0.0003    0.0005   -0.0006    0.0021   -0.0018   -0.0011    0.0012   -0.0028   -0.0016    0.0000
   16 O1     3d1-      -0.0000   -0.0000    0.0000   -0.0000   -0.0000    0.0000    0.0000    0.0000    0.0000   -0.0000
   17 O1     4d1-      -0.0000    0.0000   -0.0000   -0.0000   -0.0000    0.0000   -0.0000    0.0000    0.0000   -0.0000
   18 O1     3d0       -0.0004   -0.0005    0.0004   -0.0115    0.0096    0.0038   -0.0092    0.0149    0.0059    0.0040
   19 O1     4d0       -0.0002   -0.0004    0.0003   -0.0004    0.0015   -0.0005   -0.0005    0.0010    0.0002    0.0002
   20 O1     3d1+       0.0000    0.0000   -0.0000   -0.0000    0.0000   -0.0000    0.0000    0.0000    0.0000   -0.0000
   21 O1     4d1+       0.0000   -0.0000    0.0000   -0.0000    0.0000   -0.0000   -0.0000   -0.0000    0.0000   -0.0000
   22 O1     3d2+      -0.0005   -0.0004    0.0004   -0.0086    0.0019   -0.0001   -0.0232    0.0002   -0.0006    0.0160
   23 O1     4d2+      -0.0003   -0.0002    0.0002   -0.0004    0.0005    0.0002   -0.0017   -0.0004   -0.0009    0.0028
   24 O1     4f3-       0.0001   -0.0001    0.0000   -0.0007    0.0023    0.0022    0.0047    0.0045    0.0026   -0.0039
   25 O1     4f2-      -0.0000    0.0000   -0.0000   -0.0000    0.0000    0.0000   -0.0000   -0.0000   -0.0000    0.0000
   26 O1     4f1-       0.0001    0.0001   -0.0001    0.0030   -0.0024   -0.0004    0.0016   -0.0025   -0.0016   -0.0001
   27 O1     4f0       -0.0000   -0.0000    0.0000   -0.0000   -0.0000   -0.0000   -0.0000   -0.0000   -0.0000    0.0000
   28 O1     4f1+       0.0000    0.0001   -0.0001    0.0020   -0.0020   -0.0007    0.0009   -0.0018    0.0003   -0.0017
   29 O1     4f2+      -0.0000   -0.0000    0.0000   -0.0000    0.0000    0.0000   -0.0000    0.0000    0.0000   -0.0000
   30 O1     4f3+       0.0001    0.0002   -0.0002    0.0059   -0.0042   -0.0020    0.0050   -0.0052   -0.0026   -0.0038
   31 O2     1s         0.9987   -0.0000   -0.0025   -0.0276    0.0000   -0.0155   -0.0108   -0.0000    0.0230    0.0000
   32 O2     2s        -0.0088    0.0000    0.0102    0.5891    0.0000   -0.6895   -0.1481   -0.0000    0.2954    0.0000
   33 O2     3s        -0.0063    0.0000    0.0058   -0.0552    0.0000   -0.0231   -0.0177    0.0000    0.0576    0.0000
   34 O2     4s        -0.0012    0.0000    0.0009   -0.0107    0.0000   -0.0045   -0.0048    0.0000    0.0140    0.0000
   35 O2     2px       -0.0026    0.0000    0.0038    0.1189    0.0000    0.1945    0.5906    0.0000   -0.5038   -0.0000
   36 O2     3px       -0.0031    0.0000    0.0024   -0.0377   -0.0000   -0.0270   -0.0519   -0.0000   -0.0037   -0.0000
   37 O2     4px        0.0021   -0.0000   -0.0008   -0.0035   -0.0000    0.0017   -0.0101    0.0000    0.0010    0.0000
   38 O2     2py        0.0000   -0.0050    0.0000    0.0000   -0.2930   -0.0000    0.0000   -0.5345    0.0000   -0.1468
   39 O2     3py        0.0000   -0.0030    0.0000   -0.0000    0.0561   -0.0000   -0.0000    0.0500    0.0000   -0.0143
   40 O2     4py       -0.0000    0.0011   -0.0000    0.0000   -0.0006    0.0000   -0.0000    0.0101    0.0000   -0.0018
   41 O2     2pz        0.0000    0.0000    0.0000    0.0000    0.0000   -0.0000    0.0000   -0.0000    0.0000    0.0000
   42 O2     3pz        0.0000   -0.0000    0.0000    0.0000   -0.0000    0.0000    0.0000    0.0000    0.0000   -0.0000
   43 O2     4pz       -0.0000    0.0000   -0.0000   -0.0000   -0.0000   -0.0000   -0.0000    0.0000   -0.0000   -0.0000
   44 O2     3d2-       0.0000   -0.0015    0.0000   -0.0000   -0.0424   -0.0000    0.0000   -0.0364    0.0000   -0.0381
   45 O2     4d2-       0.0000   -0.0007    0.0000   -0.0000   -0.0045   -0.0000    0.0000   -0.0041    0.0000   -0.0066
   46 O2     3d1-      -0.0000   -0.0000    0.0000   -0.0000    0.0000    0.0000   -0.0000   -0.0000   -0.0000   -0.0000
   47 O2     4d1-      -0.0000    0.0000    0.0000   -0.0000    0.0000    0.0000    0.0000   -0.0000   -0.0000   -0.0000
   48 O2     3d0        0.0011   -0.0000   -0.0010   -0.0157   -0.0000   -0.0074   -0.0173    0.0000    0.0212    0.0000
   49 O2     4d0        0.0007   -0.0000   -0.0005    0.0003   -0.0000   -0.0008   -0.0018    0.0000    0.0026    0.0000
   50 O2     3d1+       0.0000   -0.0000    0.0000    0.0000    0.0000   -0.0000    0.0000   -0.0000    0.0000    0.0000
   51 O2     4d1+       0.0000   -0.0000    0.0000    0.0000   -0.0000    0.0000    0.0000   -0.0000   -0.0000    0.0000
   52 O2     3d2+       0.0002   -0.0000   -0.0005   -0.0053   -0.0000    0.0039    0.0281    0.0000    0.0319    0.0000
   53 O2     4d2+      -0.0000   -0.0000   -0.0003   -0.0002   -0.0000    0.0004    0.0041    0.0000    0.0063    0.0000
   54 O2     4f3-      -0.0000   -0.0001    0.0000   -0.0000   -0.0016   -0.0000    0.0000    0.0022    0.0000   -0.0093
   55 O2     4f2-       0.0000   -0.0000    0.0000    0.0000    0.0000   -0.0000   -0.0000   -0.0000   -0.0000   -0.0000
   56 O2     4f1-       0.0000    0.0001   -0.0000    0.0000    0.0059    0.0000   -0.0000    0.0055   -0.0000    0.0014
   57 O2     4f0       -0.0000    0.0000   -0.0000   -0.0000   -0.0000   -0.0000   -0.0000    0.0000    0.0000   -0.0000
   58 O2     4f1+       0.0002   -0.0000   -0.0001   -0.0043   -0.0000   -0.0011   -0.0044    0.0000    0.0013    0.0000
   59 O2     4f2+      -0.0000   -0.0000    0.0000    0.0000   -0.0000    0.0000    0.0000    0.0000    0.0000   -0.0000
   60 O2     4f3+       0.0002   -0.0000   -0.0002   -0.0087   -0.0000    0.0004   -0.0015    0.0000    0.0074    0.0000
   61 O3     1s         0.0035    0.7064    0.7064   -0.0141   -0.0102    0.0109   -0.0121   -0.0220    0.0047   -0.0048
   62 O3     2s         0.0047   -0.0046   -0.0050    0.3505    0.5986    0.5867   -0.2381   -0.3898    0.0268   -0.0260
   63 O3     3s         0.0027   -0.0035   -0.0036   -0.0137   -0.0174    0.0195   -0.0265   -0.0501    0.0179   -0.0151
   64 O3     4s         0.0004   -0.0006   -0.0006   -0.0016   -0.0043    0.0027   -0.0052   -0.0107    0.0051   -0.0038
   65 O3     2px       -0.0014    0.0014    0.0014   -0.0619   -0.0666    0.1224    0.1449   -0.3765    0.6213    0.4841
   66 O3     3px       -0.0009    0.0014    0.0013    0.0134    0.0091   -0.0194   -0.0056    0.0305    0.0037    0.0184
   67 O3     4px        0.0002   -0.0008   -0.0009    0.0024    0.0002    0.0004   -0.0008    0.0035   -0.0065   -0.0026
   68 O3     2py        0.0026   -0.0019   -0.0020    0.1084    0.0557   -0.0897    0.4027    0.2423    0.1324    0.5653
   69 O3     3py        0.0015   -0.0020   -0.0020   -0.0179   -0.0121    0.0149   -0.0355   -0.0314    0.0158    0.0019
   70 O3     4py       -0.0007    0.0012    0.0012   -0.0003   -0.0036   -0.0012   -0.0045   -0.0033    0.0004   -0.0043
   71 O3     2pz        0.0000    0.0000   -0.0000    0.0000    0.0000   -0.0000    0.0000   -0.0000    0.0000    0.0000
   72 O3     3pz       -0.0000    0.0000    0.0000   -0.0000   -0.0000   -0.0000   -0.0000    0.0000    0.0000   -0.0000
   73 O3     4pz        0.0000   -0.0000   -0.0000    0.0000   -0.0000   -0.0000   -0.0000    0.0000   -0.0000   -0.0000
   74 O3     3d2-      -0.0006    0.0010    0.0011   -0.0185   -0.0145    0.0134   -0.0094   -0.0291    0.0150   -0.0056
   75 O3     4d2-      -0.0003    0.0005    0.0006   -0.0021   -0.0018    0.0011   -0.0012   -0.0028    0.0016    0.0000
   76 O3     3d1-      -0.0000    0.0000    0.0000   -0.0000    0.0000    0.0000    0.0000   -0.0000    0.0000    0.0000
   77 O3     4d1-      -0.0000   -0.0000   -0.0000   -0.0000    0.0000    0.0000   -0.0000   -0.0000    0.0000    0.0000
   78 O3     3d0       -0.0004    0.0005    0.0004   -0.0115   -0.0096    0.0038   -0.0092   -0.0149    0.0059   -0.0040
   79 O3     4d0       -0.0002    0.0004    0.0003   -0.0004   -0.0015   -0.0005   -0.0005   -0.0010    0.0002   -0.0002
   80 O3     3d1+      -0.0000    0.0000    0.0000    0.0000    0.0000    0.0000   -0.0000    0.0000   -0.0000   -0.0000
   81 O3     4d1+      -0.0000   -0.0000   -0.0000    0.0000    0.0000    0.0000    0.0000   -0.0000   -0.0000   -0.0000
   82 O3     3d2+      -0.0005    0.0004    0.0004   -0.0086   -0.0019   -0.0001   -0.0232   -0.0002   -0.0006   -0.0160
   83 O3     4d2+      -0.0003    0.0002    0.0002   -0.0004   -0.0005    0.0002   -0.0017    0.0004   -0.0009   -0.0028
   84 O3     4f3-      -0.0001   -0.0001   -0.0000    0.0007    0.0023   -0.0022   -0.0047    0.0045   -0.0026   -0.0039
   85 O3     4f2-      -0.0000   -0.0000   -0.0000   -0.0000   -0.0000    0.0000   -0.0000    0.0000   -0.0000   -0.0000
   86 O3     4f1-      -0.0001    0.0001    0.0001   -0.0030   -0.0024    0.0004   -0.0016   -0.0025    0.0016   -0.0001
   87 O3     4f0        0.0000   -0.0000   -0.0000    0.0000   -0.0000    0.0000    0.0000   -0.0000    0.0000    0.0000
   88 O3     4f1+       0.0000   -0.0001   -0.0001    0.0020    0.0020   -0.0007    0.0009    0.0018    0.0003    0.0017
   89 O3     4f2+       0.0000   -0.0000   -0.0000    0.0000    0.0000   -0.0000    0.0000    0.0000   -0.0000   -0.0000
   90 O3     4f3+       0.0001   -0.0002   -0.0002    0.0059    0.0042   -0.0020    0.0050    0.0052   -0.0026    0.0038
 
 
      Orbital               11        12        13        14        15        16        17        18        19        20
      Energy            0.0000    0.0000    0.0000    0.1769    0.1804    0.2295    0.3054    0.3489    0.3856    0.3913
      Occ. No.          1.9936    1.5768    0.4296    0.0000    0.0000    0.0000    0.0000    0.0000    0.0000    0.0000
 
    1 O1     1s        -0.0000    0.0000   -0.0000   -0.1837   -0.1487   -0.0000    0.0074   -0.0112    0.0000    0.0774
    2 O1     2s        -0.0000    0.0000   -0.0000   -1.3717   -1.0709   -0.0000    0.1368    0.0173    0.0000    0.4416
    3 O1     3s         0.0000   -0.0000    0.0000   -0.7996   -0.6186   -0.0000   -0.0339   -0.0024    0.0000    0.5130
    4 O1     4s         0.0000   -0.0000   -0.0000   -0.1817   -0.1293   -0.0000   -0.0192    0.0041    0.0000    0.1532
    5 O1     2px       -0.0000   -0.0000    0.0000    0.5091    0.3156    0.0000   -0.2723   -0.2800    0.0000    0.2451
    6 O1     3px       -0.0000    0.0000   -0.0000    0.4522    0.4225    0.0000    0.1386   -0.7904    0.0000    0.7698
    7 O1     4px        0.0000    0.0000   -0.0000    0.0405    0.0859    0.0000    0.1168   -0.3056    0.0000    0.2715
    8 O1     2py        0.0000    0.0000   -0.0000    0.4853    0.7107    0.0000   -0.4429   -0.2791   -0.0000   -0.1115
    9 O1     3py        0.0000    0.0000    0.0000    0.6834    0.6040    0.0000   -0.5858   -0.2054   -0.0000   -0.0147
   10 O1     4py       -0.0000   -0.0000    0.0000    0.1239    0.0449    0.0000   -0.2103   -0.0393   -0.0000    0.0660
   11 O1     2pz       -0.2474   -0.7132    0.6866   -0.0000   -0.0000   -0.0183    0.0000   -0.0000   -0.2247    0.0000
   12 O1     3pz        0.0253    0.0017   -0.0531   -0.0000   -0.0000    0.3744    0.0000    0.0000   -0.9732    0.0000
   13 O1     4pz        0.0048    0.0090   -0.0031   -0.0000   -0.0000    0.2004    0.0000    0.0000   -0.3847    0.0000
   14 O1     3d2-      -0.0000    0.0000    0.0000   -0.0814   -0.0636   -0.0000    0.0053    0.0065   -0.0000   -0.0416
   15 O1     4d2-       0.0000    0.0000    0.0000   -0.0507   -0.0433   -0.0000    0.0116    0.0203   -0.0000   -0.0356
   16 O1     3d1-       0.0243    0.0143    0.0087   -0.0000    0.0000    0.0144    0.0000    0.0000    0.0048   -0.0000
   17 O1     4d1-       0.0034    0.0027    0.0044   -0.0000   -0.0000    0.0058    0.0000    0.0000    0.0116   -0.0000
   18 O1     3d0        0.0000    0.0000   -0.0000    0.0568    0.0454    0.0000    0.0104   -0.0101   -0.0000    0.0000
   19 O1     4d0       -0.0000    0.0000   -0.0000    0.0381    0.0286    0.0000    0.0015   -0.0137    0.0000    0.0097
   20 O1     3d1+       0.0170    0.0104    0.0031   -0.0000    0.0000    0.0051   -0.0000    0.0000    0.0173   -0.0000
   21 O1     4d1+       0.0027    0.0017    0.0010    0.0000    0.0000   -0.0005   -0.0000    0.0000    0.0146   -0.0000
   22 O1     3d2+       0.0000    0.0000   -0.0000    0.0307    0.0432    0.0000    0.0296   -0.0041   -0.0000   -0.0563
   23 O1     4d2+       0.0000    0.0000    0.0000    0.0190    0.0282    0.0000    0.0075   -0.0018   -0.0000   -0.0337
   24 O1     4f3-      -0.0000   -0.0000    0.0000    0.0017    0.0002    0.0000    0.0010   -0.0062    0.0000    0.0133
   25 O1     4f2-      -0.0061   -0.0043    0.0008   -0.0000    0.0000    0.0030    0.0000   -0.0000   -0.0054    0.0000
   26 O1     4f1-       0.0000    0.0000   -0.0000   -0.0069   -0.0033   -0.0000    0.0013    0.0051   -0.0000   -0.0030
   27 O1     4f0        0.0037   -0.0013    0.0093   -0.0000    0.0000   -0.0016    0.0000   -0.0000    0.0069   -0.0000
   28 O1     4f1+      -0.0000   -0.0000    0.0000   -0.0028   -0.0033   -0.0000    0.0004    0.0061   -0.0000   -0.0039
   29 O1     4f2+       0.0023    0.0014   -0.0002    0.0000    0.0000   -0.0000   -0.0000   -0.0000    0.0019   -0.0000
   30 O1     4f3+      -0.0000    0.0000    0.0000   -0.0084   -0.0052   -0.0000    0.0061    0.0086    0.0000   -0.0028
   31 O2     1s        -0.0000   -0.0000   -0.0000   -0.0000    0.3167   -0.0000   -0.1038   -0.0000   -0.0000   -0.0150
[...]

>>> COPY /tmp/ozone_109.25/GMJ_Fock_MO.csv /home/grierjones/DDCASPT2/ozone/ANO-RCC-VTZP/ozone_109.25/ozone_109.25.GMJ_Fock_MO.csv

>>> COPY /tmp/ozone_109.25/GMJ_PT2_Fock_MO.csv /home/grierjones/DDCASPT2/ozone/ANO-RCC-VTZP/ozone_109.25/ozone_109.25.GMJ_PT2_Fock_MO.csv

*** symbolic link created: INPORB -> ozone_109.25.RasOrb
--- Start Module: motra at Thu Dec 19 19:35:23 2024 ---
 
()()()()()()()()()()()()()()()()()()()()()()()()()()()()()()()()()()()()()()()()()()()()()()()()()()

                                               &MOTRA

                                   only a single process is used
                       available to each process: 2.0 GB of memory, 1 thread?
()()()()()()()()()()()()()()()()()()()()()()()()()()()()()()()()()()()()()()()()()()()()()()()()()()
 
 
      *** WARNING: Default frozen orbitals is overwritten by user input.
      *** Default values:   3
 
      Header of the integral files:
      
       Integrals generated by seward 4.2.0  , Thu Dec 19 19:35:18 2024
 
 
      Header of MO coefficients source file:
      * RASSCF average (pseudo-natural) orbitals                                      
 
 
      Cartesian coordinates in Angstrom:
      -----------------------------------------------------
      No.  Label        X            Y            Z        
      -----------------------------------------------------
       1   O1         0.73986700   1.04205600   0.00000000
       2   O2         0.00000000   0.00000000   0.00000000
       3   O3         0.73986700  -1.04205600   0.00000000
      -----------------------------------------------------
      Nuclear repulsion energy =   69.25078649
 
      Orbital specifications:
      -----------------------
 
      Symmetry species:              1
      Number of basis functions:    90
      Frozen orbitals:               0
      Deleted orbitals:              0
      Number of orbitals used:      90

       SYMMETRY  BASIS FUNCTIONS       ORBITALS      INTEGRALS   CPU(SEC)  I/O(SEC)
 
        1 1 1 1   90  90  90  90    90  90  90  90     8386560       0.00      0.00

       TOTAL CPU TIME(SEC)    4.54TOTAL I/O TIME(SEC)   11.54
 
--- Stop Module: motra at Thu Dec 19 19:35:34 2024 /rc=_RC_ALL_IS_WELL_ ---
*** files: xmldump
    saved to directory /home/grierjones/DDCASPT2/ozone/ANO-RCC-VTZP/ozone_109.25
--- Module motra spent 11 seconds ---

>>> COPY /tmp/ozone_109.25/GMJ_one_int_indx.csv /home/grierjones/DDCASPT2/ozone/ANO-RCC-VTZP/ozone_109.25/ozone_109.25.GMJ_one_int_indx.csv

>>> COPY /tmp/ozone_109.25/GMJ_one_int.csv /home/grierjones/DDCASPT2/ozone/ANO-RCC-VTZP/ozone_109.25/ozone_109.25.GMJ_one_int.csv

>>> COPY /tmp/ozone_109.25/GMJ_two_int_indx.csv /home/grierjones/DDCASPT2/ozone/ANO-RCC-VTZP/ozone_109.25/ozone_109.25.GMJ_two_int_indx.csv

>>> COPY /tmp/ozone_109.25/GMJ_two_int.csv /home/grierjones/DDCASPT2/ozone/ANO-RCC-VTZP/ozone_109.25/ozone_109.25.GMJ_two_int.csv

*** symbolic link created: INPORB -> ozone_109.25.RasOrb
--- Start Module: caspt2 at Thu Dec 19 19:35:35 2024 ---
 
()()()()()()()()()()()()()()()()()()()()()()()()()()()()()()()()()()()()()()()()()()()()()()()()()()

                                              &CASPT2

                                   only a single process is used
                       available to each process: 2.0 GB of memory, 1 thread?
()()()()()()()()()()()()()()()()()()()()()()()()()()()()()()()()()()()()()()()()()()()()()()()()()()
 
 Cholesky algorithm in CASPT2 =    1
 
 ###############################################################################
 ###############################################################################
 ###                                                                         ###
 ###                                                                         ###
 ###    User changed nr of frozen orbitals.                                  ###
 ###                                                                         ###
 ###                                                                         ###
 ###############################################################################
 ###############################################################################
 
++    Wave function specifications:
      -----------------------------
 
      Number of closed shell electrons          20
      Number of electrons in active shells       4
      Max number of holes in RAS1 space          0
      Max number of electrons in RAS3 space      0
      Number of inactive orbitals               10
      Number of active orbitals                  3
      Number of secondary orbitals              77
      Spin quantum number                      0.0
      State symmetry                             1
      Number of CSFs                             6
      Number of root(s) available                1
      Root passed to geometry opt.               1
      A file JOBMIX will be created.
      This is a CASSCF or RASSCF reference function
--
 
++    Orbital specifications:
      -----------------------
 
      Symmetry species                           1
                                                 a
      Frozen orbitals                            0
      Inactive orbitals                         10
      Active orbitals                            3
      Secondary orbitals                        77
      Deleted orbitals                           0
      Number of basis functions                 90
--
 
      Type of Fock operator: STANDARD
      Type of 0-order Hamiltonian: STANDARD WITH DEFAULT IPEA
        "IP-EA" denominator shift =      0.25
      The input orbitals and the CI vector will be transformed.
 
--------------------------------------------------------------------------------
 Estimated memory requirements:
  POLY3 :                   250202
  RHS:                      446386
  SIGMA :                   610360
  PRPCTL:                        0
 Available workspace:    230385072
 
++ CASPT2 computation for group   1
 
********************************************************************************
 Multi-State initialization phase begins for group   1
--------------------------------------------------------------------------------
********************************************************************************
 Compute H0 matrices for state    1
--------------------------------------------------------------------------------
--------------------------------------------------------------------------------
 H0 matrices have been computed.
 
********************************************************************************
  CASPT2 EQUATION SOLUTION
--------------------------------------------------------------------------------
 
  Total nr of CASPT2 parameters:
   Before reduction:      541275
   After  reduction:      532232
 
 The contributions to the second order correlation energy in atomic units.
-----------------------------------------------------------------------------------------------------------------------------
  IT.      VJTU        VJTI        ATVX        AIVX        VJAI        BVAT        BJAT        BJAI        TOTAL       RNORM  
-----------------------------------------------------------------------------------------------------------------------------
   1    -0.000000   -0.001014   -0.011621   -0.087447   -0.019154   -0.023420   -0.176884   -0.365712   -0.685253    0.002742
   2    -0.000000   -0.001031   -0.011673   -0.087795   -0.019177   -0.023427   -0.176958   -0.365717   -0.685779    0.000227
   3    -0.000000   -0.001032   -0.011674   -0.087801   -0.019178   -0.023427   -0.176959   -0.365717   -0.685787    0.000025
   4    -0.000000   -0.001032   -0.011673   -0.087799   -0.019178   -0.023427   -0.176959   -0.365717   -0.685785    0.000004
-------------------------------------------------------------------------------------------------------------------
 
  FINAL CASPT2 RESULT:
 
  Correlation energy /Case, /Symm, and sums:
 VJTU     -0.00000000 -0.00000000
 VJTIP    -0.00103174 -0.00103174
 VJTIM     0.00000000  0.00000000
 ATVX     -0.01167325 -0.01167325
 AIVX     -0.08779937 -0.08779937
 VJAIP    -0.01352630 -0.01352630
 VJAIM    -0.00565127 -0.00565127
 BVATP    -0.02188132 -0.02188132
 BVATM    -0.00154592 -0.00154592
 BJATP    -0.07244718 -0.07244718
 BJATM    -0.10451172 -0.10451172
 BJAIP    -0.25190379 -0.25190379
 BJAIM    -0.11381303 -0.11381303
 Summed:  -0.68578489 -0.68578489
 
      Reference energy:        -224.6088564763
      E2 (Non-variational):      -0.6857848948
      E2 (Variational):          -0.6857849302
      Total energy:            -225.2946414065
      Residual norm:              0.0000003771
      Reference weight:           0.85284
 
      Contributions to the CASPT2 correlation energy
      Active & Virtual Only:         -0.0351004888
      One Inactive Excited:          -0.2647582703
      Two Inactive Excited:          -0.3859261357
 
 
++ Denominators, etc.
----------------------------------------------------------------------------------------------------
 Report on small energy denominators, large coefficients, and large energy contributions.
CASE  SYMM ACTIVE-MIX  NON-ACTIVE INDICES          DENOMINATOR     RHS VALUE       COEFFICIENT     CONTRIBUTION
ATVX     1  Mu1.0005  Se1.019                       1.45605193     -0.05380578      0.03627410     -0.00195176
AIVX     1  Mu1.0002  In1.008 Se1.017               1.32176490     -0.04028818      0.02977810     -0.00119971
AIVX     1  Mu1.0004  In1.008 Se1.021               1.79633498      0.10259695     -0.05846620     -0.00599845
AIVX     1  Mu1.0006  In1.008 Se1.021               1.96831415     -0.06355192      0.03272031     -0.00207944
AIVX     1  Mu1.0002  In1.009 Se1.021               1.23060344     -0.05657062      0.04480949     -0.00253490
AIVX     1  Mu1.0003  In1.009 Se1.021               1.31141038      0.03724722     -0.02771675     -0.00103237
AIVX     1  Mu1.0004  In1.007 Se1.022               1.82084146     -0.07654598      0.04310032     -0.00329916
AIVX     1  Mu1.0002  In1.008 Se1.022               1.45662910     -0.05551566      0.03704812     -0.00205675
AIVX     1  Mu1.0002  In1.010 Se1.022               1.23355452     -0.05004043      0.03904576     -0.00195387
AIVX     1  Mu1.0003  In1.010 Se1.022               1.31436146      0.03785405     -0.02805578     -0.00106202
AIVX     1  Mu1.0004  In1.008 Se1.025               1.95922024      0.04865942     -0.02531354     -0.00123174
AIVX     1  Mu1.0004  In1.009 Se1.032               2.41833567     -0.05981211      0.02525785     -0.00151073
BJAIP    1  Se1.021 In1.007 Se1.022 In1.008         2.45116353     -0.07403612      0.03020447     -0.00223622
BJAIP    1  Se1.021 In1.008 Se1.021 In1.008         2.42665705      0.09104020     -0.03751670     -0.00341553
BJAIP    1  Se1.021 In1.008 Se1.022 In1.009         2.20708637      0.05823604     -0.02638593     -0.00153661
--
 
   (Skipping property calculation,
    use PROP keyword to activate)
--
 
  Total CASPT2 energies:
::    CASPT2 Root  1     Total energy:   -225.29464141
 
  A NEW JOBIPH FILE NAMED 'JOBMIX' IS PREPARED.
********************************************************************************
--- Stop Module: caspt2 at Thu Dec 19 19:35:36 2024 /rc=_RC_ALL_IS_WELL_ ---
*** files: xmldump
    saved to directory /home/grierjones/DDCASPT2/ozone/ANO-RCC-VTZP/ozone_109.25
--- Module caspt2 spent 1 second ---

>>> EXPORT i = B

>>> EXPORT j = P

>>> IF (-FILE GMJ_e2_${i}_${j}.csv)

>>> COPY /tmp/ozone_109.25/GMJ_RHS_B_P.csv /home/grierjones/DDCASPT2/ozone/ANO-RCC-VTZP/ozone_109.25/GMJ_RHS_B_P.csv

>>> COPY /tmp/ozone_109.25/GMJ_IVECW_B_P.csv /home/grierjones/DDCASPT2/ozone/ANO-RCC-VTZP/ozone_109.25/GMJ_IVECW_B_P.csv

>>> COPY /tmp/ozone_109.25/GMJ_IVECX_B_P.csv /home/grierjones/DDCASPT2/ozone/ANO-RCC-VTZP/ozone_109.25/GMJ_IVECX_B_P.csv

>>> COPY /tmp/ozone_109.25/GMJ_IVECC2_B_P.csv /home/grierjones/DDCASPT2/ozone/ANO-RCC-VTZP/ozone_109.25/GMJ_IVECC2_B_P.csv

>>> COPY /tmp/ozone_109.25/GMJ_e2_B_P.csv /home/grierjones/DDCASPT2/ozone/ANO-RCC-VTZP/ozone_109.25/GMJ_e2_B_P.csv

>>> END FOREACH

>>> EXPORT j = M

>>> IF (-FILE GMJ_e2_${i}_${j}.csv)
(Skipped)

>>> END FOREACH

>>> END FOREACH

>>> EXPORT i = E

>>> EXPORT j = P

>>> IF (-FILE GMJ_e2_${i}_${j}.csv)

>>> COPY /tmp/ozone_109.25/GMJ_RHS_E_P.csv /home/grierjones/DDCASPT2/ozone/ANO-RCC-VTZP/ozone_109.25/GMJ_RHS_E_P.csv

>>> COPY /tmp/ozone_109.25/GMJ_IVECW_E_P.csv /home/grierjones/DDCASPT2/ozone/ANO-RCC-VTZP/ozone_109.25/GMJ_IVECW_E_P.csv

>>> COPY /tmp/ozone_109.25/GMJ_IVECX_E_P.csv /home/grierjones/DDCASPT2/ozone/ANO-RCC-VTZP/ozone_109.25/GMJ_IVECX_E_P.csv

>>> COPY /tmp/ozone_109.25/GMJ_IVECC2_E_P.csv /home/grierjones/DDCASPT2/ozone/ANO-RCC-VTZP/ozone_109.25/GMJ_IVECC2_E_P.csv

>>> COPY /tmp/ozone_109.25/GMJ_e2_E_P.csv /home/grierjones/DDCASPT2/ozone/ANO-RCC-VTZP/ozone_109.25/GMJ_e2_E_P.csv

>>> END FOREACH

>>> EXPORT j = M

>>> IF (-FILE GMJ_e2_${i}_${j}.csv)

>>> COPY /tmp/ozone_109.25/GMJ_RHS_E_M.csv /home/grierjones/DDCASPT2/ozone/ANO-RCC-VTZP/ozone_109.25/GMJ_RHS_E_M.csv

>>> COPY /tmp/ozone_109.25/GMJ_IVECW_E_M.csv /home/grierjones/DDCASPT2/ozone/ANO-RCC-VTZP/ozone_109.25/GMJ_IVECW_E_M.csv

>>> COPY /tmp/ozone_109.25/GMJ_IVECX_E_M.csv /home/grierjones/DDCASPT2/ozone/ANO-RCC-VTZP/ozone_109.25/GMJ_IVECX_E_M.csv

>>> COPY /tmp/ozone_109.25/GMJ_IVECC2_E_M.csv /home/grierjones/DDCASPT2/ozone/ANO-RCC-VTZP/ozone_109.25/GMJ_IVECC2_E_M.csv

>>> COPY /tmp/ozone_109.25/GMJ_e2_E_M.csv /home/grierjones/DDCASPT2/ozone/ANO-RCC-VTZP/ozone_109.25/GMJ_e2_E_M.csv

>>> END FOREACH

>>> END FOREACH

>>> EXPORT i = F

>>> EXPORT j = P

>>> IF (-FILE GMJ_e2_${i}_${j}.csv)

>>> COPY /tmp/ozone_109.25/GMJ_RHS_F_P.csv /home/grierjones/DDCASPT2/ozone/ANO-RCC-VTZP/ozone_109.25/GMJ_RHS_F_P.csv

>>> COPY /tmp/ozone_109.25/GMJ_IVECW_F_P.csv /home/grierjones/DDCASPT2/ozone/ANO-RCC-VTZP/ozone_109.25/GMJ_IVECW_F_P.csv

>>> COPY /tmp/ozone_109.25/GMJ_IVECX_F_P.csv /home/grierjones/DDCASPT2/ozone/ANO-RCC-VTZP/ozone_109.25/GMJ_IVECX_F_P.csv

>>> COPY /tmp/ozone_109.25/GMJ_IVECC2_F_P.csv /home/grierjones/DDCASPT2/ozone/ANO-RCC-VTZP/ozone_109.25/GMJ_IVECC2_F_P.csv

>>> COPY /tmp/ozone_109.25/GMJ_e2_F_P.csv /home/grierjones/DDCASPT2/ozone/ANO-RCC-VTZP/ozone_109.25/GMJ_e2_F_P.csv

>>> END FOREACH

>>> EXPORT j = M

>>> IF (-FILE GMJ_e2_${i}_${j}.csv)

>>> COPY /tmp/ozone_109.25/GMJ_RHS_F_M.csv /home/grierjones/DDCASPT2/ozone/ANO-RCC-VTZP/ozone_109.25/GMJ_RHS_F_M.csv

>>> COPY /tmp/ozone_109.25/GMJ_IVECW_F_M.csv /home/grierjones/DDCASPT2/ozone/ANO-RCC-VTZP/ozone_109.25/GMJ_IVECW_F_M.csv

>>> COPY /tmp/ozone_109.25/GMJ_IVECX_F_M.csv /home/grierjones/DDCASPT2/ozone/ANO-RCC-VTZP/ozone_109.25/GMJ_IVECX_F_M.csv

>>> COPY /tmp/ozone_109.25/GMJ_IVECC2_F_M.csv /home/grierjones/DDCASPT2/ozone/ANO-RCC-VTZP/ozone_109.25/GMJ_IVECC2_F_M.csv

>>> COPY /tmp/ozone_109.25/GMJ_e2_F_M.csv /home/grierjones/DDCASPT2/ozone/ANO-RCC-VTZP/ozone_109.25/GMJ_e2_F_M.csv

>>> END FOREACH

>>> END FOREACH

>>> EXPORT i = G

>>> EXPORT j = P

>>> IF (-FILE GMJ_e2_${i}_${j}.csv)

>>> COPY /tmp/ozone_109.25/GMJ_RHS_G_P.csv /home/grierjones/DDCASPT2/ozone/ANO-RCC-VTZP/ozone_109.25/GMJ_RHS_G_P.csv

>>> COPY /tmp/ozone_109.25/GMJ_IVECW_G_P.csv /home/grierjones/DDCASPT2/ozone/ANO-RCC-VTZP/ozone_109.25/GMJ_IVECW_G_P.csv

>>> COPY /tmp/ozone_109.25/GMJ_IVECX_G_P.csv /home/grierjones/DDCASPT2/ozone/ANO-RCC-VTZP/ozone_109.25/GMJ_IVECX_G_P.csv

>>> COPY /tmp/ozone_109.25/GMJ_IVECC2_G_P.csv /home/grierjones/DDCASPT2/ozone/ANO-RCC-VTZP/ozone_109.25/GMJ_IVECC2_G_P.csv

>>> COPY /tmp/ozone_109.25/GMJ_e2_G_P.csv /home/grierjones/DDCASPT2/ozone/ANO-RCC-VTZP/ozone_109.25/GMJ_e2_G_P.csv

>>> END FOREACH

>>> EXPORT j = M

>>> IF (-FILE GMJ_e2_${i}_${j}.csv)

>>> COPY /tmp/ozone_109.25/GMJ_RHS_G_M.csv /home/grierjones/DDCASPT2/ozone/ANO-RCC-VTZP/ozone_109.25/GMJ_RHS_G_M.csv

>>> COPY /tmp/ozone_109.25/GMJ_IVECW_G_M.csv /home/grierjones/DDCASPT2/ozone/ANO-RCC-VTZP/ozone_109.25/GMJ_IVECW_G_M.csv

>>> COPY /tmp/ozone_109.25/GMJ_IVECX_G_M.csv /home/grierjones/DDCASPT2/ozone/ANO-RCC-VTZP/ozone_109.25/GMJ_IVECX_G_M.csv

>>> COPY /tmp/ozone_109.25/GMJ_IVECC2_G_M.csv /home/grierjones/DDCASPT2/ozone/ANO-RCC-VTZP/ozone_109.25/GMJ_IVECC2_G_M.csv

>>> COPY /tmp/ozone_109.25/GMJ_e2_G_M.csv /home/grierjones/DDCASPT2/ozone/ANO-RCC-VTZP/ozone_109.25/GMJ_e2_G_M.csv

>>> END FOREACH

>>> END FOREACH

>>> EXPORT i = H

>>> EXPORT j = P

>>> IF (-FILE GMJ_e2_${i}_${j}.csv)

>>> COPY /tmp/ozone_109.25/GMJ_RHS_H_P.csv /home/grierjones/DDCASPT2/ozone/ANO-RCC-VTZP/ozone_109.25/GMJ_RHS_H_P.csv

>>> COPY /tmp/ozone_109.25/GMJ_IVECW_H_P.csv /home/grierjones/DDCASPT2/ozone/ANO-RCC-VTZP/ozone_109.25/GMJ_IVECW_H_P.csv

>>> COPY /tmp/ozone_109.25/GMJ_IVECX_H_P.csv /home/grierjones/DDCASPT2/ozone/ANO-RCC-VTZP/ozone_109.25/GMJ_IVECX_H_P.csv

>>> COPY /tmp/ozone_109.25/GMJ_IVECC2_H_P.csv /home/grierjones/DDCASPT2/ozone/ANO-RCC-VTZP/ozone_109.25/GMJ_IVECC2_H_P.csv

>>> COPY /tmp/ozone_109.25/GMJ_e2_H_P.csv /home/grierjones/DDCASPT2/ozone/ANO-RCC-VTZP/ozone_109.25/GMJ_e2_H_P.csv

>>> END FOREACH

>>> EXPORT j = M

>>> IF (-FILE GMJ_e2_${i}_${j}.csv)

>>> COPY /tmp/ozone_109.25/GMJ_RHS_H_M.csv /home/grierjones/DDCASPT2/ozone/ANO-RCC-VTZP/ozone_109.25/GMJ_RHS_H_M.csv

>>> COPY /tmp/ozone_109.25/GMJ_IVECW_H_M.csv /home/grierjones/DDCASPT2/ozone/ANO-RCC-VTZP/ozone_109.25/GMJ_IVECW_H_M.csv

>>> COPY /tmp/ozone_109.25/GMJ_IVECX_H_M.csv /home/grierjones/DDCASPT2/ozone/ANO-RCC-VTZP/ozone_109.25/GMJ_IVECX_H_M.csv

>>> COPY /tmp/ozone_109.25/GMJ_IVECC2_H_M.csv /home/grierjones/DDCASPT2/ozone/ANO-RCC-VTZP/ozone_109.25/GMJ_IVECC2_H_M.csv

>>> COPY /tmp/ozone_109.25/GMJ_e2_H_M.csv /home/grierjones/DDCASPT2/ozone/ANO-RCC-VTZP/ozone_109.25/GMJ_e2_H_M.csv

>>> END FOREACH

>>> END FOREACH

>>> EXPORT i = A

>>> IF (-FILE GMJ_e2_$i.csv)

>>> COPY /tmp/ozone_109.25/GMJ_RHS_A.csv /home/grierjones/DDCASPT2/ozone/ANO-RCC-VTZP/ozone_109.25/GMJ_RHS_A.csv

>>> COPY /tmp/ozone_109.25/GMJ_IVECW_A.csv /home/grierjones/DDCASPT2/ozone/ANO-RCC-VTZP/ozone_109.25/GMJ_IVECW_A.csv

>>> COPY /tmp/ozone_109.25/GMJ_IVECX_A.csv /home/grierjones/DDCASPT2/ozone/ANO-RCC-VTZP/ozone_109.25/GMJ_IVECX_A.csv

>>> COPY /tmp/ozone_109.25/GMJ_IVECC2_A.csv /home/grierjones/DDCASPT2/ozone/ANO-RCC-VTZP/ozone_109.25/GMJ_IVECC2_A.csv

>>> COPY /tmp/ozone_109.25/GMJ_e2_A.csv /home/grierjones/DDCASPT2/ozone/ANO-RCC-VTZP/ozone_109.25/GMJ_e2_A.csv

>>> END FOREACH

>>> EXPORT i = C

>>> IF (-FILE GMJ_e2_$i.csv)

>>> COPY /tmp/ozone_109.25/GMJ_RHS_C.csv /home/grierjones/DDCASPT2/ozone/ANO-RCC-VTZP/ozone_109.25/GMJ_RHS_C.csv

>>> COPY /tmp/ozone_109.25/GMJ_IVECW_C.csv /home/grierjones/DDCASPT2/ozone/ANO-RCC-VTZP/ozone_109.25/GMJ_IVECW_C.csv

>>> COPY /tmp/ozone_109.25/GMJ_IVECX_C.csv /home/grierjones/DDCASPT2/ozone/ANO-RCC-VTZP/ozone_109.25/GMJ_IVECX_C.csv

>>> COPY /tmp/ozone_109.25/GMJ_IVECC2_C.csv /home/grierjones/DDCASPT2/ozone/ANO-RCC-VTZP/ozone_109.25/GMJ_IVECC2_C.csv

>>> COPY /tmp/ozone_109.25/GMJ_e2_C.csv /home/grierjones/DDCASPT2/ozone/ANO-RCC-VTZP/ozone_109.25/GMJ_e2_C.csv

>>> END FOREACH

>>> EXPORT i = D

>>> IF (-FILE GMJ_e2_$i.csv)

>>> COPY /tmp/ozone_109.25/GMJ_RHS_D.csv /home/grierjones/DDCASPT2/ozone/ANO-RCC-VTZP/ozone_109.25/GMJ_RHS_D.csv

>>> COPY /tmp/ozone_109.25/GMJ_IVECW_D.csv /home/grierjones/DDCASPT2/ozone/ANO-RCC-VTZP/ozone_109.25/GMJ_IVECW_D.csv

>>> COPY /tmp/ozone_109.25/GMJ_IVECX_D.csv /home/grierjones/DDCASPT2/ozone/ANO-RCC-VTZP/ozone_109.25/GMJ_IVECX_D.csv

>>> COPY /tmp/ozone_109.25/GMJ_IVECC2_D.csv /home/grierjones/DDCASPT2/ozone/ANO-RCC-VTZP/ozone_109.25/GMJ_IVECC2_D.csv

>>> COPY /tmp/ozone_109.25/GMJ_e2_D.csv /home/grierjones/DDCASPT2/ozone/ANO-RCC-VTZP/ozone_109.25/GMJ_e2_D.csv

>>> END FOREACH

.########################.
.# Non-zero return code #.
.########################.

    Timing: Wall=17.74 User=9.49 System=8.23
********************************************
*** WorkDir at /tmp/ozone_109.25 cleaned ***
********************************************
