****************************************************************************************************
*** WorkDir at /lustre/isaac/scratch/gjones39/scpfiles/ANO-RCC-VTZP/ozone_119.00/3252711 cleaned ***
****************************************************************************************************
   This run of MOLCAS is using the pymolcas driver

                             OPE
                             OPE          NMOL  CASOP  ENMOLC A   SO
                 OPE        NMOLC        AS  OP EN  MO LC     AS  OP
                OPENM       OL CA        SO  PE NM  OL CA     SOP EN
                OP EN      MO   LC       AS  OP ENMOL  CASO   PENMOL
                OP  EN     MO   LC       AS  OP EN     MO     LC ASO
               OP   E  NMOL  C  AS       OP  EN MO     LC     AS  OP
               OP  E   NMO   LC AS        OPEN  MO     LCASOP EN   M
               O  PEN   MO  LCA  SO
            OPE   NMO   L   CAS    OP
        OPENMOL  CASOP     ENMOL   CASOPE
     OPENMOLCA   SOPENMOLCASOPEN   MOLCASOPE
    OPENMOLCAS   OP           EN   MOL    CAS
    OPENMOLCAS       OP  ENM        O     LCA
    OPENMOLCAS    OPEN  MOLCASO     P  E  NMO
    OPENMOLCAS     OP               E  N  MOL
    OPENMOLCA   SO           PENM   O  L  CAS    OPEN    MO    LCAS
    OPENMOLCA   SOP           ENM   O  L  CAS   OP  EN  MOLC  AS   O
    OPENMOLCA   SOPE           NM      O  LCA   S      OP  EN MO
    OPENMOLC                AS         O  PEN   M      OL  CA  SOPE
    OPENMO        LCASOPE  NMOL        C  ASO   P      ENMOLC     AS
    OPE     NMO      LCA  SO     P     E   NM   OL  CA SO  PE N   MO
          OPENMOLCA            SOPE   NMO        LCAS  O    P  ENMO
     OPENMOLCASOPENMOLCASOPENMOLCASOPENMOLCA
        OPENMOLCASOPENMOLCASOPENMOLCASOPE
            OPENMOLCASOPENMOLCASOPENM
               OPENMOLCASOPENMOLCA        version: f37762c57-dirty
                   OPENMOLCASO
                       OPE                tag:

 OpenMolcas is free software; you can redistribute it and/or modify it
 under the terms of the GNU Lesser General Public License version 2.1.
 OpenMolcas is distributed in the hope that it will be useful, but it
 is provided "as is" and without any express or implied warranties.
 For more details see the full text of the license in the file
 LICENSE or in <http://www.gnu.org/licenses/>.

                 Copyright (C) The OpenMolcas Authors
           For the author list and the recommended citation,
                   consult the file CONTRIBUTORS.md

           *************************************************
           * pymolcas version py2.05                       *
           *   build c53fbf9a0f911de0c7c16766b0715e61      *
           *   (after the EMIL interpreter by V. Veryazov) *
           *************************************************

configuration info
------------------
C Compiler ID: GNU
C flags: -std=gnu99
Fortran Compiler ID: Intel
Fortran flags: -fpp -i8 -r8 -heap-arrays
Definitions: _MOLCAS_;_I8_;_LINUX_
Parallel: OFF (GA=OFF)


   ------------------------------------------------------------------------------------------------
  |
  |              Project: ozone_119.00
  |       Submitted from: /lustre/isaac/scratch/gjones39/scpfiles/ANO-RCC-VTZP/ozone_119.00
  |         Scratch area: /lustre/isaac/scratch/gjones39/scpfiles/ANO-RCC-VTZP/ozone_119.00/3252711
  |      Save outputs to: /lustre/isaac/scratch/gjones39/scpfiles/ANO-RCC-VTZP/ozone_119.00
  |               Molcas: /lustre/isaac/proj/UTK0022/Grier2025/Test/build
  |
  | Scratch area is empty
  |
  |       MOLCAS_DRIVER = /nfs/home/gjones39/bin/pymolcas
  | MOLCAS_KEEP_WORKDIR = NO
  |      MOLCAS_MAXITER = 100
  |  MOLCAS_NEW_WORKDIR = YES
  |       MOLCAS_NPROCS = 1
  |       MOLCAS_SOURCE = /lustre/isaac/proj/UTK0022/Grier2025/Test
  |    MOLCAS_STRUCTURE = 0
  |
   ------------------------------------------------------------------------------------------------

++ ---------   Input file   ---------

&GATEWAY
coord=ozone_119.00.xyz
Basis = ANO-RCC-VTZP
Group = nosymm
End of Input

&SEWARD
End of Input

&SCF
FileOrb
/lustre/isaac/scratch/gjones39/scpfiles/ANO-RCC-VTZP/ozone_118.75/ozone_118.75.ScfOrb

>>> COPY $WorkDir/ozone_119.00.scf.h5 $CurrDir/

&RASSCF
Title= RASSCF
ITERation
200 100
CIMX
200
SDAV
500
FileOrb
/lustre/isaac/scratch/gjones39/scpfiles/ANO-RCC-VTZP/ozone_118.75/ozone_118.75.RasOrb
CIROOT
3 3 1
NACTEL
12 0 0
Inactive
6
RAS2
9
Symmetry
1
Spin
1
orblisting
all

>>> COPY $WorkDir/ozone_119.00.rasscf.h5 $CurrDir/

>>> COPY $WorkDir/GMJ_Fock_MO.csv $CurrDir/ozone_119.00.GMJ_Fock_MO.csv

&MOTRA
Frozen=0
LUMORB

>>> COPY $WorkDir/GMJ_one_int_indx.csv $CurrDir/ozone_119.00.GMJ_one_int_indx.csv

>>> COPY $WorkDir/GMJ_one_int.csv $CurrDir/ozone_119.00.GMJ_one_int.csv

>>> COPY $WorkDir/GMJ_two_int_indx.csv $CurrDir/ozone_119.00.GMJ_two_int_indx.csv

>>> COPY $WorkDir/GMJ_two_int.csv $CurrDir/ozone_119.00.GMJ_two_int.csv

&CASPT2

Multistate
ALL

Frozen
0

MAXITER
50

>>> FOREACH k IN (1,2,3)

  >>> FOREACH i IN (B,E,F,G,H)

    >>> FOREACH j IN (P,M)

      >>> IF (-FILE GMJ_e2_${i}_${j}_${k}_.csv)

        >>> COPY $WorkDir/GMJ_RHS_${i}_${j}_${k}_.csv $CurrDir/GMJ_RHS_${i}_${j}_${k}_.csv

        >>> COPY $WorkDir/GMJ_IVECW_${i}_${j}_${k}_.csv $CurrDir/GMJ_IVECW_${i}_${j}_${k}_.csv

        >>> COPY $WorkDir/GMJ_IVECX_${i}_${j}_${k}_.csv $CurrDir/GMJ_IVECX_${i}_${j}_${k}_.csv

        >>> COPY $WorkDir/GMJ_IVECC2_${i}_${j}_${k}_.csv $CurrDir/GMJ_IVECC2_${i}_${j}_${k}_.csv

        >>> COPY $WorkDir/GMJ_e2_${i}_${j}_${k}_.csv $CurrDir/GMJ_e2_${i}_${j}_${k}_.csv

      >>> END IF

    >>> END FOREACH

  >>> END FOREACH

>>> END FOREACH

>>> FOREACH j IN (1,2,3)

  >>> FOREACH i IN (A,C,D)

    >>> IF (-FILE GMJ_e2_${i}_${j}_.csv)

      >>> COPY $WorkDir/GMJ_RHS_${i}_${j}_.csv $CurrDir/GMJ_RHS_${i}_${j}_.csv

      >>> COPY $WorkDir/GMJ_IVECW_${i}_${j}_.csv $CurrDir/GMJ_IVECW_${i}_${j}_.csv

      >>> COPY $WorkDir/GMJ_IVECX_${i}_${j}_.csv $CurrDir/GMJ_IVECX_${i}_${j}_.csv

      >>> COPY $WorkDir/GMJ_IVECC2_${i}_${j}_.csv $CurrDir/GMJ_IVECC2_${i}_${j}_.csv

      >>> COPY $WorkDir/GMJ_e2_${i}_${j}_.csv $CurrDir/GMJ_e2_${i}_${j}_.csv

    >>> END IF

  >>> END FOREACH

>>> END FOREACH

-- ----------------------------------

--- Start Module: gateway at Mon May 12 21:42:50 2025 ---
 
()()()()()()()()()()()()()()()()()()()()()()()()()()()()()()()()()()()()()()()()()()()()()()()()()()

                                              &GATEWAY

                                   only a single process is used
                       available to each process: 62 GB of memory, 1 thread?
()()()()()()()()()()()()()()()()()()()()()()()()()()()()()()()()()()()()()()()()()()()()()()()()()()
 
 
++    Symmetry information:
      ---------------------
 
                    Character Table for C1 
 
                             E  
                    a        1  x, y, xy, Rz, z, xz, Ry, yz, Rx, I
--
 
 
++    Basis set information:
      ----------------------
 
 
      Basis set label: O.ANO-RCC...4S3P2D1F.
 
      Electronic valence basis set:
      ------------------
      Associated Effective Charge   8.000000 au
      Associated Actual Charge      8.000000 au
      Nuclear Model: Point charge
 
      Shell  nPrim  nBasis  Cartesian Spherical Contaminant
         s      14       4        X                  
         p       9       3        X                  
         d       4       2                 X         
         f       3       1                 X         
--
 
 
++    Molecular structure info:
      -------------------------
 
                    ************************************************ 
                    **** Cartesian Coordinates / Bohr, Angstrom **** 
                    ************************************************ 
 
     Center  Label                x              y              z                     x              y              z
        1      O1               1.225741       2.080895       0.000000              0.648634       1.101162       0.000000
        2      O2               0.000000       0.000000       0.000000              0.000000       0.000000       0.000000
        3      O3               1.225741      -2.080895       0.000000              0.648634      -1.101162       0.000000
 
                    *************************************** 
                    *    InterNuclear Distances / Bohr    * 
                    *************************************** 
 
               1 O1            2 O2            3 O3    
    1 O1       0.000000
    2 O2       2.415070        0.000000
    3 O3       4.161789        2.415070        0.000000
 
                    ******************************************* 
                    *    InterNuclear Distances / Angstrom    * 
                    ******************************************* 
 
               1 O1            2 O2            3 O3    
    1 O1       0.000000
    2 O2       1.278000        0.000000
    3 O3       2.202324        1.278000        0.000000
 
                    ************************************** 
                    *    Valence Bond Angles / Degree    * 
                    ************************************** 
                          Atom centers                 Phi
                      1 O1       2 O2       3 O3       119.00
--
 
 
            Nuclear Potential Energy             68.37853875 au
 
--- Stop Module: gateway at Mon May 12 21:42:54 2025 /rc=_RC_ALL_IS_WELL_ ---
*** files: xmldump
    saved to directory /lustre/isaac/scratch/gjones39/scpfiles/ANO-RCC-VTZP/ozone_119.00
--- Module gateway spent 3 seconds ---

--- Start Module: seward at Mon May 12 21:42:54 2025 ---
 
()()()()()()()()()()()()()()()()()()()()()()()()()()()()()()()()()()()()()()()()()()()()()()()()()()

                                              &SEWARD

                                   only a single process is used
                       available to each process: 62 GB of memory, 1 thread?
()()()()()()()()()()()()()()()()()()()()()()()()()()()()()()()()()()()()()()()()()()()()()()()()()()
 
               SEWARD will generate:
                  Multipole Moment integrals up to order  2
                  Kinetic Energy integrals
                  Nuclear Attraction integrals (point charge)
                  One-Electron Hamiltonian integrals
                  Velocity integrals
                  Relativistic Douglas-Kroll-Hess integrals:
                    - Parametrization         : EXP
                    - DKH order of Hamiltonian: 2
                    - DKH order of Properties : 0
                         - multipole moment operators
                         - electric potential operators
                         - contact operators
                  Atomic mean-field integrals
                  Two-Electron Repulsion integrals
 
                   Integrals are discarded if absolute value <: 0.10E-13
                   Integral cutoff threshold is set to       <: 0.10E-15
 
            Nuclear Potential Energy             68.37853875 au
 
 
      Basis set specifications :
      Symmetry species         a  
      Basis functions           90
 
 
  Input file to MOLDEN was generated!
 
--- Stop Module: seward at Mon May 12 21:43:03 2025 /rc=_RC_ALL_IS_WELL_ ---
*** files: ozone_119.00.GssOrb ozone_119.00.guessorb.h5 ozone_119.00.guessorb.molden xmldump
    saved to directory /lustre/isaac/scratch/gjones39/scpfiles/ANO-RCC-VTZP/ozone_119.00
--- Module seward spent 9 seconds ---

*** symbolic link created: INPORB -> ozone_119.00.GssOrb
--- Start Module: scf at Mon May 12 21:43:03 2025 ---
 
()()()()()()()()()()()()()()()()()()()()()()()()()()()()()()()()()()()()()()()()()()()()()()()()()()

                                                &SCF

                                   only a single process is used
                       available to each process: 62 GB of memory, 1 thread?
()()()()()()()()()()()()()()()()()()()()()()()()()()()()()()()()()()()()()()()()()()()()()()()()()()
 
++    Input section:
      --------------
 
      Header of the integral files:
      
       Integrals generated by seward 4.2.0  , Mon May 12 21:42:54 2025
 
 
      Cartesian coordinates in Angstrom:
      -----------------------------------------------------
      No.  Label        X            Y            Z        
      -----------------------------------------------------
       1   O1         0.64863400   1.10116200   0.00000000
       2   O2         0.00000000   0.00000000   0.00000000
       3   O3         0.64863400  -1.10116200   0.00000000
      -----------------------------------------------------
      Nuclear repulsion energy =   68.37853875
--
 
++    Orbital specifications:
      -----------------------
 
      Symmetry species               1
                                     a
      Frozen orbitals                0
      Occupied orbitals             12
      Secondary orbitals            78
      Deleted orbitals               0
      Total number of orbitals      90
      Number of basis functions     90
--
 
      Molecular charge                           0.000
 
++    Optimization specifications:
      ----------------------------
 
      SCF Algorithm: Conventional
      Minimized density differences are used
      Number of density matrices in core                5
      Maximum number of NDDO SCF iterations           400
      Maximum number of HF SCF iterations             400
      Threshold for SCF energy change            0.10E-08
      Threshold for density matrix               0.10E-03
      Threshold for Fock matrix                  0.15E-03
      Threshold for linear dependence            0.10E-08
      Threshold at which DIIS is turned on       0.15E+00
      Threshold at which QNR/C2DIIS is turned on 0.75E-01
      Threshold for Norm(delta) (QNR/C2DIIS)     0.20E-04
      DIIS extrapolation of the SCF procedure
      All orbitals punched on: SCFORB
--
 
      Input vectors read from INPORB
      Orbital file label: * SCF orbitals
 
 
++ Convergence information
                                   SCF        iterations: Energy and convergence statistics
 
Iter     Tot. SCF        One-elec.       Two-elec.     Energy      Max Dij or  Max Fij      DNorm      TNorm      AccCon     Time
         Energy          Energy          Energy        Change      Delta Norm                                                in Sec.
   1  -224.513428948  -444.405778276   151.513810576   0.00E+00    0.98E-03*   0.50E-03*    0.75E+01   0.11E+03   None         0.
   2  -224.513434278  -444.405474677   151.513501647  -0.53E-05*   0.57E-03*   0.29E-03*    0.71E-02   0.11E+03   EDIIS        0.
   3  -224.513435365  -444.406174326   151.514200210  -0.11E-05*   0.50E-03*   0.28E-03*    0.13E-02   0.11E+03   c2DIIS       0.
   4  -224.513435671  -444.405141652   151.513167230  -0.31E-06*   0.37E-03*   0.17E-03*    0.14E-02   0.11E+03   QNRc2DIIS    0.
   5  -224.513435678  -444.406691109   151.514716679  -0.73E-08*   0.19E-03*   0.19E-03*    0.48E-03   0.11E+03   QNRc2DIIS    0.
   6  -224.513435849  -444.405922952   151.513948351  -0.17E-06*   0.78E-04*   0.17E-04     0.46E-04   0.11E+03   QNRc2DIIS    0.
   7  -224.513435854  -444.405897793   151.513923187  -0.53E-08*   0.36E-05    0.85E-06     0.37E-04   0.11E+03   QNRc2DIIS    0.
   8  -224.513435854  -444.405912326   151.513937720  -0.84E-11    0.14E-05    0.11E-05     0.28E-03   0.11E+03   QNRc2DIIS    0.
 
       Convergence after  8 Macro Iterations
--
 
 *****************************************************************************************************************************
 *                                                                                                                           *
 *                                             SCF/KS-DFT Program, Final results                                             *
 *                                                                                                                           *
 *                                                                                                                           *
 *                                                                                                                           *
 *                                                       Final Results                                                       *
 *                                                                                                                           *
 *****************************************************************************************************************************
 
::    Total SCF energy                               -224.5134358544
      One-electron energy                            -444.4059123259
      Two-electron energy                             151.5139377201
      Nuclear repulsion energy                         68.3785387513
      Kinetic energy (interpolated)                   225.0399070570
      Virial theorem                                    0.9976605429
      Total spin, S(S+1)                                0.0000000000
      Total spin, S                                     0.0000000000
      Max non-diagonal density matrix element           0.0000021730
      Max non-diagonal Fock matrix element              0.0000005720
 
 
      All orbitals with orbital energies smaller than  E(LUMO)+0.5 are printed
 
++    Molecular orbitals:
      -------------------
 
      Title: SCF orbitals

      Molecular orbitals for symmetry species 1: a  
 
          Orbital            1         2         3         4         5         6         7         8         9        10    
          Energy          -20.9339  -20.7275  -20.7274   -1.7470   -1.4349   -1.0961   -0.8317   -0.8009   -0.7795   -0.5690
          Occ. No.          2.0000    2.0000    2.0000    2.0000    2.0000    2.0000    2.0000    2.0000    2.0000    2.0000
 
        1 O1     1s         0.0023   -0.7436    0.6670   -0.0134    0.0118    0.0098   -0.0122   -0.0230   -0.0000    0.0064
        2 O1     2s         0.0036    0.0053   -0.0050    0.3352   -0.5723    0.5922   -0.2612   -0.4281   -0.0000    0.0511
        3 O1     3s         0.0021    0.0038   -0.0035   -0.0099    0.0191    0.0166   -0.0246   -0.0515   -0.0000    0.0173
        4 O1     4s         0.0004    0.0008   -0.0006   -0.0007    0.0041    0.0026   -0.0048   -0.0110   -0.0000    0.0041
        5 O1     2px       -0.0010   -0.0014    0.0012   -0.0527    0.0626    0.1047    0.1483   -0.3268   -0.0000   -0.5368
        6 O1     3px       -0.0006   -0.0015    0.0011    0.0121   -0.0087   -0.0174   -0.0066    0.0298    0.0000   -0.0125
        7 O1     4px        0.0001    0.0007   -0.0007    0.0025   -0.0001    0.0008   -0.0002    0.0021   -0.0000    0.0034
        8 O1     2py       -0.0021   -0.0022    0.0022   -0.1092    0.0677    0.0868   -0.3471   -0.2587   -0.0000    0.4919
        9 O1     3py       -0.0012   -0.0022    0.0022    0.0150   -0.0145   -0.0147    0.0347    0.0369   -0.0000   -0.0030
       10 O1     4py        0.0005    0.0014   -0.0013    0.0009   -0.0036    0.0011    0.0036    0.0031   -0.0000   -0.0034
       11 O1     2pz       -0.0000   -0.0000   -0.0000    0.0000    0.0000   -0.0000    0.0000   -0.0000    0.3743   -0.0000
       12 O1     3pz        0.0000    0.0000    0.0000    0.0000    0.0000    0.0000   -0.0000    0.0000   -0.0185    0.0000
       13 O1     4pz       -0.0000   -0.0000   -0.0000    0.0000    0.0000   -0.0000   -0.0000   -0.0000   -0.0068    0.0000
       14 O1     3d2-       0.0004    0.0011   -0.0010    0.0167   -0.0149   -0.0120    0.0056    0.0281    0.0000   -0.0013
       15 O1     4d2-       0.0001    0.0006   -0.0005    0.0019   -0.0018   -0.0008    0.0009    0.0025    0.0000    0.0006
       16 O1     3d1-      -0.0000   -0.0000   -0.0000   -0.0000   -0.0000   -0.0000    0.0000    0.0000   -0.0272    0.0000
       17 O1     4d1-      -0.0000   -0.0000   -0.0000   -0.0000   -0.0000   -0.0000    0.0000   -0.0000   -0.0040   -0.0000
       18 O1     3d0       -0.0003   -0.0005    0.0005   -0.0104    0.0090    0.0037   -0.0093   -0.0146   -0.0000    0.0043
       19 O1     4d0       -0.0002   -0.0004    0.0004   -0.0003    0.0010   -0.0001   -0.0005   -0.0010   -0.0000    0.0003
       20 O1     3d1+      -0.0000   -0.0000   -0.0000   -0.0000   -0.0000   -0.0000   -0.0000    0.0000   -0.0168   -0.0000
       21 O1     4d1+       0.0000   -0.0000   -0.0000    0.0000    0.0000   -0.0000   -0.0000    0.0000   -0.0033   -0.0000
       22 O1     3d2+      -0.0005   -0.0006    0.0006   -0.0120    0.0052    0.0018   -0.0253   -0.0064   -0.0000    0.0180
       23 O1     4d2+      -0.0003   -0.0003    0.0003   -0.0013    0.0008    0.0006   -0.0021   -0.0002    0.0000    0.0031
       24 O1     4f3-       0.0001   -0.0000    0.0000    0.0008    0.0010    0.0018    0.0063   -0.0026    0.0000   -0.0052
       25 O1     4f2-       0.0000    0.0000    0.0000    0.0000    0.0000   -0.0000   -0.0000   -0.0000    0.0061   -0.0000
       26 O1     4f1-       0.0000    0.0002   -0.0001    0.0030   -0.0026   -0.0007    0.0022    0.0031    0.0000   -0.0007
       27 O1     4f0        0.0000   -0.0000   -0.0000   -0.0000   -0.0000    0.0000    0.0000    0.0000   -0.0038   -0.0000
       28 O1     4f1+       0.0000    0.0001   -0.0001    0.0016   -0.0017   -0.0008    0.0007    0.0019    0.0000   -0.0012
       29 O1     4f2+      -0.0000   -0.0000   -0.0000   -0.0000   -0.0000    0.0000    0.0000    0.0000   -0.0036   -0.0000
       30 O1     4f3+       0.0000    0.0002   -0.0002    0.0058   -0.0051   -0.0022    0.0038    0.0065    0.0000   -0.0023
       31 O2     1s         0.9990    0.0000   -0.0008   -0.0272   -0.0000   -0.0170   -0.0080    0.0000   -0.0000   -0.0000
       32 O2     2s        -0.0070   -0.0006    0.0109    0.6180    0.0000   -0.6688   -0.0862   -0.0000   -0.0000   -0.0000
       33 O2     3s        -0.0049   -0.0003    0.0062   -0.0676   -0.0000   -0.0146   -0.0137    0.0000   -0.0000   -0.0000
       34 O2     4s        -0.0011   -0.0001    0.0010   -0.0120   -0.0000   -0.0039   -0.0041    0.0000   -0.0000   -0.0000
       35 O2     2px       -0.0016   -0.0002    0.0036    0.1028   -0.0000    0.2420    0.6605   -0.0000   -0.0000    0.0000
       36 O2     3px       -0.0023   -0.0001    0.0023   -0.0388   -0.0000   -0.0332   -0.0687    0.0000   -0.0000   -0.0000
       37 O2     4px        0.0017    0.0000   -0.0008   -0.0025   -0.0000    0.0010   -0.0091    0.0000    0.0000    0.0000
       38 O2     2py        0.0000   -0.0056   -0.0003    0.0000   -0.3302   -0.0000    0.0000    0.5605    0.0000   -0.1455
       39 O2     3py       -0.0000   -0.0035   -0.0002   -0.0000    0.0626    0.0000   -0.0000   -0.0569    0.0000   -0.0088
       40 O2     4py        0.0000    0.0012    0.0001    0.0000   -0.0017    0.0000   -0.0000   -0.0092    0.0000   -0.0010
       41 O2     2pz       -0.0000   -0.0000   -0.0000   -0.0000   -0.0000   -0.0000    0.0000   -0.0000    0.6876    0.0000
       42 O2     3pz       -0.0000   -0.0000   -0.0000   -0.0000   -0.0000   -0.0000    0.0000    0.0000   -0.0463    0.0000
       43 O2     4pz       -0.0000   -0.0000    0.0000   -0.0000   -0.0000   -0.0000    0.0000    0.0000   -0.0161    0.0000
       44 O2     3d2-       0.0000   -0.0015   -0.0001    0.0000   -0.0409   -0.0000    0.0000    0.0293    0.0000   -0.0412
       45 O2     4d2-      -0.0000   -0.0007   -0.0000    0.0000   -0.0045   -0.0000    0.0000    0.0027   -0.0000   -0.0073
       46 O2     3d1-       0.0000   -0.0000   -0.0000   -0.0000   -0.0000   -0.0000   -0.0000    0.0000    0.0000   -0.0000
       47 O2     4d1-      -0.0000   -0.0000   -0.0000   -0.0000   -0.0000   -0.0000    0.0000   -0.0000    0.0000   -0.0000
       48 O2     3d0        0.0006    0.0001   -0.0010   -0.0152   -0.0000   -0.0068   -0.0147    0.0000    0.0000   -0.0000
       49 O2     4d0        0.0006    0.0000   -0.0005    0.0008    0.0000   -0.0004   -0.0009    0.0000    0.0000   -0.0000
       50 O2     3d1+      -0.0000    0.0000   -0.0000   -0.0000   -0.0000   -0.0000    0.0000   -0.0000    0.0322   -0.0000
       51 O2     4d1+      -0.0000   -0.0000   -0.0000   -0.0000   -0.0000   -0.0000   -0.0000   -0.0000    0.0048   -0.0000
       52 O2     3d2+       0.0003    0.0000   -0.0008   -0.0112   -0.0000    0.0004    0.0211   -0.0000    0.0000   -0.0000
       53 O2     4d2+       0.0001    0.0000   -0.0004   -0.0012    0.0000   -0.0004    0.0023   -0.0000    0.0000   -0.0000
       54 O2     4f3-      -0.0000   -0.0000   -0.0000   -0.0000    0.0007    0.0000   -0.0000   -0.0040   -0.0000   -0.0093
       55 O2     4f2-       0.0000    0.0000    0.0000    0.0000    0.0000   -0.0000   -0.0000   -0.0000    0.0000   -0.0000
       56 O2     4f1-      -0.0000    0.0001    0.0000   -0.0000    0.0051    0.0000   -0.0000   -0.0042   -0.0000    0.0010
       57 O2     4f0        0.0000   -0.0000    0.0000    0.0000   -0.0000   -0.0000   -0.0000    0.0000   -0.0063    0.0000
       58 O2     4f1+       0.0001    0.0000   -0.0001   -0.0032   -0.0000   -0.0005   -0.0023    0.0000    0.0000    0.0000
       59 O2     4f2+       0.0000   -0.0000   -0.0000   -0.0000    0.0000   -0.0000    0.0000    0.0000   -0.0053    0.0000
       60 O2     4f3+       0.0001    0.0000   -0.0002   -0.0095   -0.0000   -0.0009   -0.0040    0.0000    0.0000   -0.0000
       61 O3     1s         0.0023    0.6671    0.7436   -0.0134   -0.0118    0.0098   -0.0122    0.0230    0.0000   -0.0064
       62 O3     2s         0.0036   -0.0047   -0.0056    0.3352    0.5723    0.5922   -0.2612    0.4281    0.0000   -0.0511
       63 O3     3s         0.0021   -0.0034   -0.0039   -0.0099   -0.0191    0.0166   -0.0246    0.0515    0.0000   -0.0173
       64 O3     4s         0.0004   -0.0007   -0.0007   -0.0007   -0.0041    0.0026   -0.0048    0.0110    0.0000   -0.0041
       65 O3     2px       -0.0010    0.0013    0.0013   -0.0527   -0.0626    0.1047    0.1483    0.3268    0.0000    0.5367
       66 O3     3px       -0.0006    0.0013    0.0013    0.0121    0.0087   -0.0174   -0.0066   -0.0298   -0.0000    0.0125
       67 O3     4px        0.0001   -0.0006   -0.0008    0.0025    0.0001    0.0008   -0.0002   -0.0021    0.0000   -0.0034
       68 O3     2py        0.0021   -0.0019   -0.0024    0.1092    0.0677   -0.0868    0.3471   -0.2587   -0.0000    0.4919
       69 O3     3py        0.0012   -0.0020   -0.0024   -0.0150   -0.0145    0.0147   -0.0347    0.0369    0.0000   -0.0030
       70 O3     4py       -0.0005    0.0012    0.0014   -0.0009   -0.0036   -0.0011   -0.0036    0.0031   -0.0000   -0.0034
       71 O3     2pz        0.0000   -0.0000    0.0000    0.0000    0.0000   -0.0000    0.0000   -0.0000    0.3743    0.0000
       72 O3     3pz        0.0000    0.0000    0.0000    0.0000    0.0000    0.0000   -0.0000    0.0000   -0.0185   -0.0000
       73 O3     4pz        0.0000    0.0000   -0.0000    0.0000    0.0000    0.0000   -0.0000    0.0000   -0.0068   -0.0000
       74 O3     3d2-      -0.0004    0.0010    0.0011   -0.0167   -0.0149    0.0120   -0.0056    0.0281    0.0000   -0.0013
       75 O3     4d2-      -0.0001    0.0005    0.0006   -0.0019   -0.0018    0.0008   -0.0009    0.0025    0.0000    0.0006
       76 O3     3d1-       0.0000   -0.0000    0.0000    0.0000    0.0000   -0.0000   -0.0000   -0.0000    0.0272   -0.0000
       77 O3     4d1-       0.0000   -0.0000    0.0000    0.0000    0.0000    0.0000   -0.0000    0.0000    0.0040    0.0000
       78 O3     3d0       -0.0003    0.0005    0.0005   -0.0104   -0.0090    0.0037   -0.0093    0.0146    0.0000   -0.0043
       79 O3     4d0       -0.0002    0.0004    0.0004   -0.0003   -0.0010   -0.0001   -0.0005    0.0010    0.0000   -0.0003
       80 O3     3d1+      -0.0000    0.0000   -0.0000    0.0000    0.0000    0.0000   -0.0000    0.0000   -0.0168    0.0000
       81 O3     4d1+      -0.0000   -0.0000   -0.0000    0.0000   -0.0000   -0.0000   -0.0000    0.0000   -0.0033   -0.0000
       82 O3     3d2+      -0.0005    0.0005    0.0006   -0.0120   -0.0052    0.0018   -0.0253    0.0064    0.0000   -0.0180
       83 O3     4d2+      -0.0003    0.0003    0.0003   -0.0013   -0.0008    0.0006   -0.0021    0.0002   -0.0000   -0.0031
       84 O3     4f3-      -0.0001   -0.0000   -0.0000   -0.0008    0.0010   -0.0018   -0.0063   -0.0026   -0.0000   -0.0052
       85 O3     4f2-      -0.0000    0.0000   -0.0000   -0.0000   -0.0000    0.0000    0.0000    0.0000   -0.0061   -0.0000
       86 O3     4f1-      -0.0000    0.0001    0.0001   -0.0030   -0.0026    0.0007   -0.0022    0.0031    0.0000   -0.0007
       87 O3     4f0       -0.0000    0.0000   -0.0000    0.0000   -0.0000    0.0000   -0.0000    0.0000   -0.0038   -0.0000
       88 O3     4f1+       0.0000   -0.0001   -0.0001    0.0016    0.0017   -0.0008    0.0007   -0.0019   -0.0000    0.0012
       89 O3     4f2+      -0.0000    0.0000   -0.0000   -0.0000    0.0000    0.0000    0.0000    0.0000   -0.0036   -0.0000
       90 O3     4f3+       0.0000   -0.0002   -0.0002    0.0058    0.0051   -0.0022    0.0038   -0.0065   -0.0000    0.0023
 
          Orbital           11        12        13        14        15        16        17        18        19        20    
          Energy           -0.5512   -0.4899   -0.0488    0.1753    0.1791    0.2365    0.2766    0.3450    0.3805    0.3840
          Occ. No.          2.0000    2.0000    0.0000    0.0000    0.0000    0.0000    0.0000    0.0000    0.0000    0.0000
 
        1 O1     1s         0.0050   -0.0000    0.0000   -0.1922   -0.1398    0.0000   -0.0016   -0.0192    0.0758    0.0000
        2 O1     2s         0.0328   -0.0000    0.0000   -1.4239   -1.0243    0.0000    0.0870   -0.0348    0.4137    0.0000
        3 O1     3s         0.0171    0.0000    0.0000   -0.8252   -0.5892    0.0000   -0.0860   -0.0380    0.5872    0.0000
        4 O1     4s         0.0047    0.0000    0.0000   -0.1863   -0.1248    0.0000   -0.0322   -0.0032    0.1717    0.0000
        5 O1     2px        0.6462    0.0000   -0.0000    0.4765    0.2503   -0.0000   -0.2225   -0.2585    0.1446    0.0000
        6 O1     3px        0.0056    0.0000   -0.0000    0.4260    0.3450   -0.0000    0.1823   -0.7473    0.5212    0.0000
        7 O1     4px       -0.0053    0.0000   -0.0000    0.0395    0.0768    0.0000    0.1193   -0.2957    0.2136    0.0000
        8 O1     2py       -0.1171    0.0000   -0.0000    0.5269    0.7884   -0.0000   -0.4498   -0.2932   -0.0655   -0.0000
        9 O1     3py       -0.0149    0.0000   -0.0000    0.6907    0.6598   -0.0000   -0.4086   -0.1858   -0.4823   -0.0000
       10 O1     4py       -0.0003    0.0000   -0.0000    0.1146    0.0627   -0.0000   -0.1498   -0.0376   -0.0946   -0.0000
       11 O1     2pz        0.0000   -0.7069    0.6656    0.0000    0.0000   -0.1616    0.0000   -0.0000    0.0000   -0.1783
       12 O1     3pz       -0.0000   -0.0357    0.1635    0.0000   -0.0000    0.3077    0.0000   -0.0000    0.0000   -0.9399
       13 O1     4pz        0.0000    0.0065    0.0252    0.0000   -0.0000    0.1861   -0.0000   -0.0000    0.0000   -0.3764
       14 O1     3d2-      -0.0135    0.0000    0.0000   -0.0792   -0.0517    0.0000   -0.0039   -0.0022    0.0125    0.0000
       15 O1     4d2-      -0.0014    0.0000    0.0000   -0.0501   -0.0349    0.0000    0.0026    0.0143    0.0027   -0.0000
       16 O1     3d1-       0.0000    0.0220    0.0075    0.0000    0.0000    0.0162   -0.0000    0.0000   -0.0000    0.0015
       17 O1     4d1-       0.0000    0.0055   -0.0000    0.0000    0.0000    0.0070   -0.0000    0.0000   -0.0000    0.0097
       18 O1     3d0        0.0054    0.0000   -0.0000    0.0535    0.0450   -0.0000    0.0144   -0.0050   -0.0247   -0.0000
       19 O1     4d0        0.0003    0.0000   -0.0000    0.0350    0.0291   -0.0000    0.0048   -0.0105   -0.0091   -0.0000
       20 O1     3d1+       0.0000    0.0130    0.0053   -0.0000    0.0000    0.0045   -0.0000    0.0000   -0.0000    0.0158
       21 O1     4d1+       0.0000    0.0031   -0.0001   -0.0000    0.0000   -0.0001   -0.0000    0.0000   -0.0000    0.0138
       22 O1     3d2+       0.0000   -0.0000    0.0000    0.0409    0.0513   -0.0000    0.0360    0.0002   -0.0883   -0.0000
       23 O1     4d2+      -0.0011   -0.0000    0.0000    0.0241    0.0354   -0.0000    0.0116   -0.0008   -0.0525   -0.0000
       24 O1     4f3-       0.0025   -0.0000   -0.0000   -0.0008   -0.0006    0.0000    0.0017   -0.0045    0.0120    0.0000
       25 O1     4f2-       0.0000   -0.0046    0.0002   -0.0000   -0.0000    0.0022    0.0000   -0.0000    0.0000   -0.0054
       26 O1     4f1-      -0.0015   -0.0000    0.0000   -0.0060   -0.0042    0.0000    0.0004    0.0050    0.0038    0.0000
       27 O1     4f0       -0.0000    0.0015    0.0014    0.0000    0.0000   -0.0013    0.0000    0.0000   -0.0000    0.0060
       28 O1     4f1+       0.0001    0.0000   -0.0000   -0.0022   -0.0030    0.0000   -0.0002    0.0051   -0.0000   -0.0000
       29 O1     4f2+      -0.0000    0.0026   -0.0005    0.0000   -0.0000   -0.0004    0.0000    0.0000   -0.0000    0.0021
       30 O1     4f3+      -0.0029   -0.0000    0.0000   -0.0091   -0.0048    0.0000    0.0035    0.0087    0.0040    0.0000
       31 O2     1s         0.0201    0.0000   -0.0000    0.0000    0.3154   -0.0000   -0.0712    0.0000   -0.1227   -0.0000
       32 O2     2s         0.2457    0.0000   -0.0000    0.0001    2.2872   -0.0000   -0.6182    0.0000   -0.7307   -0.0000
       33 O2     3s         0.0482    0.0000   -0.0000    0.0000    1.2652   -0.0000   -0.1560    0.0000   -0.4499   -0.0000
       34 O2     4s         0.0120    0.0000   -0.0000    0.0000    0.2700   -0.0000   -0.0326    0.0000   -0.0569   -0.0000
       35 O2     2px       -0.4849   -0.0000    0.0000    0.0000    0.8037    0.0000   -0.3714    0.0000   -0.4693   -0.0000
       36 O2     3px       -0.0024   -0.0000    0.0000    0.0000    0.8732    0.0000    0.2169    0.0000   -1.2947   -0.0000
       37 O2     4px       -0.0012   -0.0000    0.0000    0.0000    0.1422    0.0000    0.1365    0.0000   -0.2821   -0.0000
       38 O2     2py       -0.0000    0.0000   -0.0000    1.3436   -0.0000   -0.0000    0.0000   -0.1510    0.0000   -0.0000
       39 O2     3py       -0.0000    0.0000   -0.0000    1.2965   -0.0000   -0.0000    0.0000    0.4865    0.0000   -0.0000
       40 O2     4py       -0.0000    0.0000   -0.0000    0.1338   -0.0000    0.0000    0.0000    0.2295    0.0000   -0.0000
       41 O2     2pz       -0.0000    0.0000   -0.8573   -0.0000    0.0000    0.0279   -0.0000    0.0000   -0.0000    0.0000
       42 O2     3pz        0.0000   -0.0000   -0.1840   -0.0000    0.0000    0.3987   -0.0000    0.0000   -0.0000    0.0000
       43 O2     4pz        0.0000   -0.0000   -0.0215    0.0000    0.0000    0.2089   -0.0000    0.0000   -0.0000    0.0000
       44 O2     3d2-      -0.0000    0.0000   -0.0000    0.1403   -0.0000   -0.0000    0.0000    0.0861   -0.0000    0.0000
       45 O2     4d2-      -0.0000    0.0000   -0.0000    0.0873   -0.0000   -0.0000    0.0000    0.0641    0.0000   -0.0000
       46 O2     3d1-       0.0000   -0.0579   -0.0000    0.0000    0.0000   -0.0000    0.0000    0.0000   -0.0000    0.0947
       47 O2     4d1-      -0.0000   -0.0137   -0.0000    0.0000    0.0000   -0.0000    0.0000    0.0000   -0.0000    0.0568
       48 O2     3d0        0.0182    0.0000   -0.0000   -0.0000   -0.0805    0.0000   -0.0542   -0.0000    0.1463    0.0000
       49 O2     4d0        0.0021    0.0000   -0.0000   -0.0000   -0.0529    0.0000   -0.0278   -0.0000    0.0824    0.0000
       50 O2     3d1+      -0.0000    0.0000    0.0067   -0.0000    0.0000   -0.0278   -0.0000   -0.0000   -0.0000    0.0000
       51 O2     4d1+       0.0000    0.0000    0.0015    0.0000    0.0000   -0.0106   -0.0000    0.0000   -0.0000    0.0000
       52 O2     3d2+       0.0403    0.0000    0.0000   -0.0000   -0.0467    0.0000   -0.0741   -0.0000   -0.0003    0.0000
       53 O2     4d2+       0.0086    0.0000    0.0000   -0.0000   -0.0245    0.0000   -0.0303    0.0000   -0.0214   -0.0000
       54 O2     4f3-      -0.0000    0.0000    0.0000   -0.0051    0.0000   -0.0000   -0.0000    0.0045    0.0000   -0.0000
       55 O2     4f2-       0.0000   -0.0085   -0.0000    0.0000    0.0000   -0.0000    0.0000   -0.0000   -0.0000    0.0077
       56 O2     4f1-       0.0000    0.0000   -0.0000   -0.0080    0.0000    0.0000   -0.0000   -0.0123   -0.0000    0.0000
       57 O2     4f0        0.0000   -0.0000   -0.0020   -0.0000   -0.0000   -0.0027    0.0000    0.0000    0.0000   -0.0000
       58 O2     4f1+      -0.0003    0.0000   -0.0000   -0.0000   -0.0069   -0.0000   -0.0058   -0.0000    0.0141    0.0000
       59 O2     4f2+      -0.0000   -0.0000    0.0009    0.0000   -0.0000   -0.0016   -0.0000   -0.0000    0.0000   -0.0000
       60 O2     4f3+       0.0061    0.0000   -0.0000   -0.0000   -0.0120    0.0000   -0.0078   -0.0000    0.0167    0.0000
       61 O3     1s         0.0050    0.0000   -0.0000    0.1922   -0.1399   -0.0000   -0.0016    0.0192    0.0758    0.0000
       62 O3     2s         0.0328    0.0000   -0.0000    1.4238   -1.0244   -0.0000    0.0870    0.0348    0.4137    0.0000
       63 O3     3s         0.0171    0.0000   -0.0000    0.8252   -0.5893   -0.0000   -0.0859    0.0380    0.5872    0.0000
       64 O3     4s         0.0047    0.0000   -0.0000    0.1863   -0.1248   -0.0000   -0.0322    0.0032    0.1717    0.0000
       65 O3     2px        0.6463    0.0000    0.0000   -0.4764    0.2504   -0.0000   -0.2225    0.2585    0.1446    0.0000
       66 O3     3px        0.0056   -0.0000    0.0000   -0.4260    0.3451   -0.0000    0.1823    0.7473    0.5212    0.0000
       67 O3     4px       -0.0053   -0.0000   -0.0000   -0.0395    0.0768   -0.0000    0.1193    0.2957    0.2136    0.0000
       68 O3     2py        0.1171    0.0000   -0.0000    0.5268   -0.7885   -0.0000    0.4498   -0.2932    0.0655    0.0000
       69 O3     3py        0.0149    0.0000   -0.0000    0.6907   -0.6598   -0.0000    0.4087   -0.1858    0.4823    0.0000
       70 O3     4py        0.0003    0.0000   -0.0000    0.1146   -0.0627    0.0000    0.1498   -0.0376    0.0946    0.0000
       71 O3     2pz       -0.0000    0.7069    0.6656    0.0000   -0.0000   -0.1616    0.0000   -0.0000   -0.0000    0.1783
       72 O3     3pz        0.0000    0.0357    0.1635    0.0000   -0.0000    0.3077    0.0000    0.0000   -0.0000    0.9399
       73 O3     4pz        0.0000   -0.0065    0.0252    0.0000    0.0000    0.1861    0.0000    0.0000   -0.0000    0.3764
       74 O3     3d2-       0.0135   -0.0000    0.0000   -0.0792    0.0517    0.0000    0.0039   -0.0022   -0.0125   -0.0000
       75 O3     4d2-       0.0014   -0.0000    0.0000   -0.0501    0.0349    0.0000   -0.0026    0.0143   -0.0027   -0.0000
       76 O3     3d1-      -0.0000    0.0220   -0.0075   -0.0000   -0.0000   -0.0162    0.0000   -0.0000    0.0000    0.0015
       77 O3     4d1-       0.0000    0.0055    0.0000   -0.0000   -0.0000   -0.0070    0.0000   -0.0000   -0.0000    0.0097
       78 O3     3d0        0.0054    0.0000    0.0000   -0.0535    0.0450    0.0000    0.0144    0.0050   -0.0247   -0.0000
       79 O3     4d0        0.0003    0.0000    0.0000   -0.0350    0.0291    0.0000    0.0048    0.0105   -0.0091   -0.0000
       80 O3     3d1+       0.0000   -0.0130    0.0053    0.0000    0.0000    0.0045    0.0000   -0.0000    0.0000   -0.0158
       81 O3     4d1+       0.0000   -0.0031   -0.0001   -0.0000    0.0000   -0.0001    0.0000   -0.0000    0.0000   -0.0138
       82 O3     3d2+       0.0000    0.0000    0.0000   -0.0409    0.0513    0.0000    0.0360   -0.0002   -0.0883   -0.0000
       83 O3     4d2+      -0.0011    0.0000    0.0000   -0.0241    0.0354    0.0000    0.0116    0.0008   -0.0525   -0.0000
       84 O3     4f3-      -0.0025    0.0000   -0.0000   -0.0008    0.0006   -0.0000   -0.0017   -0.0045   -0.0120   -0.0000
       85 O3     4f2-       0.0000   -0.0046   -0.0002   -0.0000   -0.0000   -0.0022    0.0000   -0.0000    0.0000   -0.0054
       86 O3     4f1-       0.0015    0.0000    0.0000   -0.0060    0.0042   -0.0000   -0.0004    0.0050   -0.0038   -0.0000
       87 O3     4f0        0.0000   -0.0015    0.0014    0.0000   -0.0000   -0.0013   -0.0000   -0.0000    0.0000   -0.0060
       88 O3     4f1+       0.0001    0.0000   -0.0000    0.0022   -0.0030   -0.0000   -0.0002   -0.0051   -0.0000    0.0000
       89 O3     4f2+       0.0000   -0.0026   -0.0005   -0.0000    0.0000   -0.0004   -0.0000    0.0000    0.0000   -0.0021
       90 O3     4f3+      -0.0029    0.0000   -0.0000    0.0091   -0.0048   -0.0000    0.0035   -0.0087    0.0040    0.0000
 
          Orbital           21    
          Energy            0.4178
          Occ. No.          0.0000
 
        1 O1     1s        -0.0154
        2 O1     2s        -0.0649
        3 O1     3s        -0.0014
        4 O1     4s         0.0335
        5 O1     2px        0.2586
        6 O1     3px        0.6217
        7 O1     4px        0.1517
        8 O1     2py       -0.0762
        9 O1     3py        0.6789
       10 O1     4py        0.2267
       11 O1     2pz        0.0000
       12 O1     3pz        0.0000
       13 O1     4pz        0.0000
       14 O1     3d2-      -0.1311
       15 O1     4d2-      -0.0878
       16 O1     3d1-      -0.0000
       17 O1     4d1-      -0.0000
       18 O1     3d0        0.0403
       19 O1     4d0        0.0269
       20 O1     3d1+      -0.0000
       21 O1     4d1+      -0.0000
       22 O1     3d2+       0.0461
       23 O1     4d2+       0.0249
       24 O1     4f3-       0.0027
       25 O1     4f2-       0.0000
       26 O1     4f1-      -0.0081
       27 O1     4f0       -0.0000
       28 O1     4f1+      -0.0061
       29 O1     4f2+       0.0000
       30 O1     4f3+      -0.0165
       31 O2     1s         0.1632
       32 O2     2s         0.8501
       33 O2     3s         0.8770
       34 O2     4s         0.2088
       35 O2     2px       -0.4897
       36 O2     3px       -0.7122
       37 O2     4px       -0.2937
       38 O2     2py       -0.0000
       39 O2     3py       -0.0000
       40 O2     4py       -0.0000
       41 O2     2pz       -0.0000
       42 O2     3pz       -0.0000
       43 O2     4pz       -0.0000
       44 O2     3d2-       0.0000
       45 O2     4d2-       0.0000
       46 O2     3d1-       0.0000
       47 O2     4d1-       0.0000
       48 O2     3d0       -0.1033
       49 O2     4d0       -0.0358
       50 O2     3d1+       0.0000
       51 O2     4d1+      -0.0000
       52 O2     3d2+      -0.0915
       53 O2     4d2+      -0.0391
       54 O2     4f3-       0.0000
       55 O2     4f2-       0.0000
       56 O2     4f1-       0.0000
       57 O2     4f0       -0.0000
       58 O2     4f1+       0.0020
       59 O2     4f2+       0.0000
       60 O2     4f3+      -0.0016
       61 O3     1s        -0.0154
       62 O3     2s        -0.0649
       63 O3     3s        -0.0014
       64 O3     4s         0.0335
       65 O3     2px        0.2586
       66 O3     3px        0.6217
       67 O3     4px        0.1517
       68 O3     2py        0.0762
       69 O3     3py       -0.6789
       70 O3     4py       -0.2267
       71 O3     2pz        0.0000
       72 O3     3pz        0.0000
       73 O3     4pz        0.0000
       74 O3     3d2-       0.1311
       75 O3     4d2-       0.0878
       76 O3     3d1-      -0.0000
       77 O3     4d1-      -0.0000
       78 O3     3d0        0.0403
       79 O3     4d0        0.0269
       80 O3     3d1+      -0.0000
       81 O3     4d1+      -0.0000
       82 O3     3d2+       0.0461
       83 O3     4d2+       0.0249
       84 O3     4f3-      -0.0027
       85 O3     4f2-      -0.0000
       86 O3     4f1-       0.0081
       87 O3     4f0        0.0000
       88 O3     4f1+      -0.0061
       89 O3     4f2+       0.0000
       90 O3     4f3+      -0.0165
--
 
 
++    Molecular charges:
      ------------------
 
      Mulliken charges per centre and basis function type
      ---------------------------------------------------
 
                O1      O2      O3    
      1s       1.9979  1.9980  1.9979
      2s       1.9441  1.7157  1.9441
      2px      1.7160  1.5272  1.7160
      2pz      1.3683  1.1808  1.3683
      2py      1.1146  1.0505  1.1146
      3s      -0.0010 -0.0226 -0.0010
      3px     -0.0113 -0.0142 -0.0113
      3pz     -0.0113 -0.0134 -0.0113
      3py      0.0040  0.0017  0.0040
      4s       0.0045  0.0023  0.0045
      3d2+     0.0112  0.0386  0.0112
      3d1+     0.0042  0.0091  0.0042
      3d0      0.0056  0.0075  0.0056
      3d1-     0.0109  0.0456  0.0109
      3d2-     0.0168  0.0417  0.0168
      4px      0.0007  0.0018  0.0007
      4pz      0.0012  0.0016  0.0012
      4py      0.0025  0.0030  0.0025
      4d2+     0.0003  0.0076  0.0003
      4d1+     0.0008  0.0013  0.0008
      4d0     -0.0001 -0.0001 -0.0001
      4d1-     0.0011  0.0117  0.0011
      4d2-     0.0006  0.0043  0.0006
      4f3+     0.0029  0.0032  0.0029
      4f2+     0.0005  0.0009  0.0005
      4f1+     0.0004  0.0005  0.0004
      4f0      0.0009  0.0016  0.0009
      4f1-     0.0009  0.0012  0.0009
      4f2-     0.0017  0.0042  0.0017
      4f3-     0.0020  0.0071  0.0020
      Total    8.1909  7.6183  8.1909
 
      N-E     -0.1909  0.3817 -0.1909
 
      Total electronic charge=   24.000000
 
      Total            charge=   -0.000000
--
 
 
  Input file to MOLDEN was generated!
 
 
++    Static properties:
      ------------------
 
 
      LoProp Charges per center
 

                   O1       O2       O3    
      Nuclear      8.0000   8.0000   8.0000
      Electronic  -8.2084  -7.5833  -8.2084
 
      Total       -0.2084   0.4167  -0.2084
--
 
 
++    Natural Bond Order analysis
      ---------------------------
      Based on LoProp computed density
      -------------------------------------------------------------------------------------
      Atom A       Atom B       Bond Order | Atom A       Atom B       Bond Order
        O1           O2             1.997  |   O2           O3             1.997
      -------------------------------------------------------------------------------------
      NBO located      9.999 core electrons.
      NBO located      5.936 lone pair electrons.
      NBO located      7.989 electrons involved in    2 bonds.
      The remaining    0.076 electrons are to be considered as diffuse
--
 
 
++    Molecular properties:
      ---------------------
 
      Charge (e):
                      =   -0.0000
      Dipole Moment (Debye):
      Origin of the operator (Ang)=    0.0000    0.0000    0.0000
                   X= -7.6180E-01               Y= -6.7239E-07               Z=  3.4249E-14           Total=  7.6180E-01
      Quadrupole Moment (Debye*Ang):
      Origin of the operator (Ang)=    0.4324    0.0000    0.0000
                  XX= -1.5808E+01              XY= -1.6096E-07              XZ=  2.4599E-14              YY= -1.7309E+01
                  YZ=  8.7063E-14              ZZ= -1.4904E+01
      In traceless form (Debye*Ang)
                  XX=  2.9827E-01              XY= -2.4145E-07              XZ=  3.6898E-14              YY= -1.9534E+00
                  YZ=  1.3059E-13              ZZ=  1.6551E+00
--
 
 
  Input file to MOLDEN was generated!
 
 ###############################################################################
 ###############################################################################
 ###                                                                         ###
 ###                                                                         ###
 ###    RunFile label nBas                                                   ###
 ###    was used       78 times                                              ###
 ###                                                                         ###
 ###                                                                         ###
 ###############################################################################
 ###############################################################################
--- Stop Module: scf at Mon May 12 21:43:05 2025 /rc=_RC_ALL_IS_WELL_ ---
*** files: ozone_119.00.LprOrb ozone_119.00.LoProp.molden ozone_119.00.scf.molden ozone_119.00.ScfOrb ozone_119.00.scf.h5 xmldump
    saved to directory /lustre/isaac/scratch/gjones39/scpfiles/ANO-RCC-VTZP/ozone_119.00
--- Module scf spent 2 seconds ---

>>> COPY /lustre/isaac/scratch/gjones39/scpfiles/ANO-RCC-VTZP/ozone_119.00/3252711/ozone_119.00.scf.h5 /lustre/isaac/scratch/gjones39/scpfiles/ANO-RCC-VTZP/ozone_119.00/

*** symbolic link created: INPORB -> ozone_119.00.ScfOrb
--- Start Module: rasscf at Mon May 12 21:43:05 2025 ---
 
()()()()()()()()()()()()()()()()()()()()()()()()()()()()()()()()()()()()()()()()()()()()()()()()()()

                                              &RASSCF

                                   only a single process is used
                       available to each process: 62 GB of memory, 1 thread?
()()()()()()()()()()()()()()()()()()()()()()()()()()()()()()()()()()()()()()()()()()()()()()()()()()
 
 
      Header of the ONEINT file:
      --------------------------
      
      Integrals generated by seward 4.2.0  , Mon May 12 21:42:54 2025
 
 
      OrdInt status: non-squared
 
 
      Cartesian coordinates in Angstrom:
      -----------------------------------------------------
      No.  Label        X            Y            Z        
      -----------------------------------------------------
       1   O1         0.64863400   1.10116200   0.00000000
       2   O2         0.00000000   0.00000000   0.00000000
       3   O3         0.64863400  -1.10116200   0.00000000
      -----------------------------------------------------
      Nuclear repulsion energy =   68.37853875
 
++    Wave function specifications:
      -----------------------------
 
      Number of closed shell electrons          12
      Number of electrons in active shells      12
      Max number of holes in RAS1 space          0
      Max nr of electrons in RAS3 space          0
      Number of inactive orbitals                6
      Number of active orbitals                  9
      Number of secondary orbitals              75
      Spin quantum number                      0.0
      State symmetry                             1
--
 
++    Orbital specifications:
      -----------------------
 
      Symmetry species                           1
                                                 a
      Frozen orbitals                            0
      Inactive orbitals                          6
      Active orbitals                            9
      RAS1 orbitals                              0
      RAS2 orbitals                              9
      RAS3 orbitals                              0
      Secondary orbitals                        75
      Deleted orbitals                           0
      Number of basis functions                 90
--
 
++    CI expansion specifications:
      ----------------------------
 
      Number of CSFs                          2520
      Number of determinants                  3570
      Number of root(s) required                 3
      Root chosen for geometry opt.              3
      CI roots used                              1     2     3
      weights                                0.333 0.333 0.333
      highest root included in the CI            3
      max. size of the explicit Hamiltonian    500
--
 
++    Optimization specifications:
      ----------------------------
 
      RASSCF algorithm: Conventional
      Maximum number of macro iterations       200
      Maximum number of SX iterations          100
      Threshold for RASSCF energy            0.100E-07
      Threshold for max MO rotation          0.100E+00
      Threshold for max BLB element          0.100E-03
      Level shift parameter                  0.500E+00
      Make Quasi-Newton update
--
 
      The MO-coefficients are taken from the file:
      /lustre/isaac/scratch/gjones39/scpfiles/ANO-RCC-VTZP/ozone_118.75/ozone_118.75.RasOrb                                           
      Title: RASSCF average (pseudo-natural) orbitals                                      
 
      Total molecular charge    0.00
 
      ************************************************************************************************************************
      *                                                                                                                      *
      *                                            Wave function control section                                             *
      *                                                                                                                      *
      ************************************************************************************************************************
 
 
                                         RASSCF iterations: Energy and convergence statistics
                                         ----------------------------------------------------
 
      Iter CI   SX   CI       RASSCF       Energy    max ROT     max BLB   max BLB  Level Ln srch  Step   QN   Walltime
          iter iter root      energy       change     param      element    value   shift minimum  type update hh:mm:ss
 Nr of preliminary CI iterations:   5
        1   1    6    0  -224.68005765    0.00E+00  -0.44E-03    8  79 1 -0.11E-02*  0.00   0.00    SX    NO    0:00:01
        2   2    6    0  -224.68006746   -0.98E-05* -0.14E-03    4  14 1  0.19E-03*  0.00   0.00    SX    NO    0:00:00
        3   1    5    0  -224.68006756   -0.98E-07* -0.76E-04    4  14 1  0.44E-04   0.00   0.00    SX    NO    0:00:00
        4   6    5    0  -224.68007016   -0.26E-05* -0.11E-03   12  29 1 -0.15E-03*  0.00   0.00    SX    NO    0:00:00
        5   3    5    0  -224.68007029   -0.12E-06* -0.77E-04    6  22 1  0.75E-04   0.00   1.22    QN   YES    0:00:00
        6   4    5    0  -224.68007032   -0.28E-07*  0.14E-04   12  29 1  0.18E-04   0.00   0.92    QN   YES    0:00:00
        7   1    5    0  -224.68007032   -0.26E-08   0.37E-04    6  22 1  0.31E-04   0.00   1.21    QN   YES    0:00:00
      Convergence after  7 iterations
 
  Dmat in MO in SXCTL bf call to SXHAM                                                                                    
  mat. size =     9x    9
 
        1.9619653362792995
       -0.0000000000000755      1.9515778830485326
        0.0000000000000000     -0.0000000000000036      1.9746455763376691
        0.0006369828658113     -0.0000000000000813      0.0000000000000585      1.6558298051994689
        0.0000000000001770     -0.0004942057755569     -0.0000000000001236     -0.0000000000000490      1.6593823537636467
       -0.0000000000000152      0.0000000000000051      0.0000000000002153     -0.0000000000001004      0.0000000000000105
        1.7915894382431865
        0.0000000000000104      0.0000000000000231      0.0002729670864367     -0.0000000000000230      0.0000000000001811
        0.0000000000005613      0.8987226752854041
        0.0011120867980602      0.0000000000007797      0.0000000000000082      0.0026779693876562      0.0000000000004787
       -0.0000000000000472      0.0000000000000050      0.0591572988446841
        0.0000000000002836     -0.0000630697734770     -0.0000000000000654      0.0000000000012670     -0.0020414283737478
        0.0000000000000079     -0.0000000000000143      0.0000000000001132      0.0471296329981102
        8   1    5    0  -224.68007032   -0.70E-09   0.37E-04   10  65 1 -0.14E-04   0.00   1.21    QN   YES    0:00:00
 
      ************************************************************************************************************************
                                                      Wave function printout:
                       occupation of active orbitals, and spin coupling of open shells (u,d: Spin up or down)
      ************************************************************************************************************************
 
      Note: transformation to natural orbitals
      has been made, which may change the order of the CSFs.
 
      printout of CI-coefficients larger than  0.05 for root  1
      energy=    -224.737666
      conf/sym  111111111     Coeff  Weight
             1  222222000   0.89873 0.80771
             4  222220200  -0.31906 0.10180
            10  2222udud0  -0.05334 0.00285
            12  2222uudd0  -0.05266 0.00277
            72  222u2du0d   0.05598 0.00313
            74  222u2ud0d   0.05562 0.00309
           126  22u222d00   0.06799 0.00462
           205  2u222dud0  -0.06576 0.00432
           207  2u222udd0  -0.05893 0.00347
           551  220222200  -0.07139 0.00510
           611  2ud222u0d  -0.06444 0.00415
           652  u2d222ud0   0.06123 0.00375
           731  202222002  -0.06346 0.00403
           764  ud22220ud   0.07279 0.00530
           805  022222020  -0.06538 0.00427
           992  2uu222d0d  -0.06663 0.00444
          1031  u2u222dd0   0.05517 0.00304
 
      printout of CI-coefficients larger than  0.05 for root  2
      energy=    -224.653495
      conf/sym  111111111     Coeff  Weight
             3  2222u2d00   0.86810 0.75360
            52  222u2d200  -0.41433 0.17167
           128  22u2d2200  -0.05102 0.00260
           277  u2222d200   0.05759 0.00332
           361  222022u0d   0.05734 0.00329
           654  u2d2u22d0   0.05400 0.00292
           733  2022u2d02  -0.06443 0.00415
           766  ud22u2dud   0.07602 0.00578
           807  0222u2d20  -0.06990 0.00489
           994  2uu2d220d  -0.05865 0.00344
          1033  u2u2d22d0   0.05270 0.00278
 
      printout of CI-coefficients larger than  0.05 for root  3
      energy=    -224.649050
      conf/sym  111111111     Coeff  Weight
             5  2222ud200   0.41318 0.17072
            51  222u22d00  -0.87041 0.75761
           202  2u222d200  -0.06640 0.00441
          1285  2udu2220d   0.05163 0.00267
          1381  202u22d02   0.06425 0.00413
          1406  ud2u22dud  -0.07641 0.00584
          1442  022u22d20   0.06921 0.00479
          1485  2uud2220d   0.05950 0.00354
          1521  u2ud222d0  -0.05283 0.00279
 
      Natural orbitals and occupation numbers for root  1
      sym 1:   1.955655   1.947448   1.962753   1.991560   1.991562   1.755069   0.282163   0.062934   0.050857
 
      Natural orbitals and occupation numbers for root  2
      sym 1:   1.959578   1.955356   1.983708   1.789490   1.195688   1.810637   1.203183   0.056807   0.045553
 
      Natural orbitals and occupation numbers for root  3
      sym 1:   1.964750   1.952203   1.984337   1.193263   1.791675   1.809062   1.203961   0.056821   0.043928
 
      ************************************************************************************************************************
      *                                                                                                                      *
      *                                                    Final results                                                     *
      *                                                                                                                      *
      ************************************************************************************************************************
 
 
++    Wave function specifications:
      -----------------------------
 
      Number of closed shell electrons          12
      Number of electrons in active shells      12
      Max number of holes in RAS1 space          0
      Max nr of electrons in RAS3 space          0
      Number of inactive orbitals                6
      Number of active orbitals                  9
      Number of secondary orbitals              75
      Spin quantum number                      0.0
      State symmetry                             1
--
 
++    Orbital specifications:
      -----------------------
 
      Symmetry species                           1
                                                 a
      Frozen orbitals                            0
      Inactive orbitals                          6
      Active orbitals                            9
      RAS1 orbitals                              0
      RAS2 orbitals                              9
      RAS3 orbitals                              0
      Secondary orbitals                        75
      Deleted orbitals                           0
      Number of basis functions                 90
--
 
++    CI expansion specifications:
      ----------------------------
 
      Number of CSFs                          2520
      Number of determinants                  3570
      Number of root(s) required                 3
      CI roots used                              1     2     3
      weights                                0.333 0.333 0.333
      highest root included in the CI            3
      Root passed to geometry opt.               3
--
 
++    Final optimization conditions:
      ------------------------------
 
      Average CI energy                            -224.68007032
      RASSCF energy for state  3                   -224.64904981
      Super-CI energy                                -0.00000000
      RASSCF energy change                            0.00000000
      Max change in MO coefficients              -0.279E-04
      Max non-diagonal density matrix element     0.375E-04
      Maximum BLB matrix element                 -0.140E-04
      (orbital pair  10,  65 in symmetry   1)
      Norm of electronic gradient            0.649E-01
--
 
 
      Final state energy(ies):
      ------------------------
 
::    RASSCF root number  1 Total energy:   -224.73766594
::    RASSCF root number  2 Total energy:   -224.65349521
::    RASSCF root number  3 Total energy:   -224.64904981
 
++    Molecular orbitals:
      -------------------
 
      Pseudonatural active orbitals and approximate occupation numbers
 
 
 
 
      Molecular orbitals for symmetry species 1: a  
 
 
      Orbital                1         2         3         4         5         6         7         8         9        10
      Energy          -20.7988  -20.6992  -20.6991   -1.5135   -1.2968   -1.0566    0.0000    0.0000    0.0000    0.0000
      Occ. No.          2.0000    2.0000    2.0000    2.0000    2.0000    2.0000    1.9620    1.9516    1.9746    1.6558
 
    1 O1     1s         0.0037   -0.7065    0.7064   -0.0059   -0.0002    0.0106   -0.0170   -0.0245    0.0000    0.0005
    2 O1     2s         0.0041    0.0044   -0.0048    0.4787   -0.7064    0.5424   -0.1041   -0.1097    0.0000   -0.0390
    3 O1     3s         0.0023    0.0033   -0.0035    0.0033   -0.0076    0.0182   -0.0302   -0.0549    0.0000    0.0115
    4 O1     4s         0.0004    0.0006   -0.0006    0.0015   -0.0009    0.0020   -0.0052   -0.0112    0.0000    0.0038
    5 O1     2px       -0.0010   -0.0011    0.0011   -0.0262   -0.0535    0.0856   -0.0120   -0.2698    0.0000    0.6838
    6 O1     3px       -0.0007   -0.0013    0.0010    0.0131    0.0048   -0.0202    0.0021    0.0317    0.0000    0.0026
    7 O1     4px        0.0001    0.0006   -0.0007    0.0017    0.0008    0.0004    0.0002    0.0012    0.0000   -0.0068
    8 O1     2py       -0.0024   -0.0016    0.0019    0.0580   -0.0834    0.0510   -0.3735   -0.3452   -0.0000   -0.1302
    9 O1     3py       -0.0013   -0.0019    0.0021   -0.0022    0.0030   -0.0127    0.0421    0.0435    0.0000   -0.0101
   10 O1     4py        0.0006    0.0012   -0.0012   -0.0016   -0.0016    0.0025    0.0034    0.0037    0.0000    0.0009
   11 O1     2pz       -0.0000   -0.0000   -0.0000   -0.0000    0.0000   -0.0000    0.0000    0.0000    0.3393   -0.0000
   12 O1     3pz       -0.0000   -0.0000   -0.0000   -0.0000   -0.0000    0.0000    0.0000    0.0000   -0.0263    0.0000
   13 O1     4pz        0.0000   -0.0000    0.0000   -0.0000    0.0000   -0.0000    0.0000   -0.0000   -0.0048    0.0000
   14 O1     3d2-       0.0005    0.0008   -0.0008    0.0099   -0.0015   -0.0115    0.0123    0.0293   -0.0000   -0.0124
   15 O1     4d2-       0.0002    0.0005   -0.0005    0.0011   -0.0005   -0.0008    0.0009    0.0024    0.0000   -0.0012
   16 O1     3d1-       0.0000    0.0000    0.0000   -0.0000    0.0000   -0.0000   -0.0000   -0.0000   -0.0235    0.0000
   17 O1     4d1-       0.0000    0.0000    0.0000   -0.0000   -0.0000    0.0000    0.0000   -0.0000   -0.0028    0.0000
   18 O1     3d0       -0.0004   -0.0005    0.0005   -0.0045    0.0015    0.0040   -0.0136   -0.0169   -0.0000    0.0028
   19 O1     4d0       -0.0002   -0.0004    0.0003   -0.0001    0.0007   -0.0000   -0.0005   -0.0012   -0.0000   -0.0005
   20 O1     3d1+       0.0000    0.0000   -0.0000    0.0000   -0.0000   -0.0000   -0.0000   -0.0000   -0.0130   -0.0000
   21 O1     4d1+       0.0000   -0.0000    0.0000    0.0000   -0.0000    0.0000   -0.0000   -0.0000   -0.0018   -0.0000
   22 O1     3d2+      -0.0005   -0.0005    0.0005    0.0005    0.0012   -0.0012   -0.0272   -0.0095    0.0000   -0.0056
   23 O1     4d2+      -0.0003   -0.0003    0.0003   -0.0001    0.0005    0.0000   -0.0024   -0.0006    0.0000   -0.0017
   24 O1     4f3-       0.0001   -0.0000    0.0000   -0.0013    0.0001    0.0022    0.0050   -0.0018    0.0000    0.0026
   25 O1     4f2-      -0.0000   -0.0000   -0.0000   -0.0000    0.0000    0.0000   -0.0000    0.0000    0.0049    0.0000
   26 O1     4f1-       0.0001    0.0001   -0.0001    0.0016   -0.0011   -0.0006    0.0041    0.0042    0.0000   -0.0008
   27 O1     4f0        0.0000    0.0000    0.0000    0.0000    0.0000    0.0000   -0.0000    0.0000   -0.0043   -0.0000
   28 O1     4f1+       0.0000    0.0001   -0.0001    0.0014   -0.0007   -0.0010    0.0011    0.0029   -0.0000   -0.0012
   29 O1     4f2+      -0.0000    0.0000    0.0000   -0.0000   -0.0000    0.0000    0.0000   -0.0000   -0.0032   -0.0000
   30 O1     4f3+       0.0000    0.0002   -0.0002    0.0028   -0.0017   -0.0019    0.0055    0.0071   -0.0000   -0.0019
   31 O2     1s         0.9989    0.0000   -0.0029   -0.0191    0.0000   -0.0190   -0.0242   -0.0000   -0.0000    0.0237
   32 O2     2s        -0.0076   -0.0000    0.0099    0.5446    0.0000   -0.7561    0.1745   -0.0000   -0.0000    0.2478
   33 O2     3s        -0.0056   -0.0000    0.0056   -0.0369    0.0000   -0.0336   -0.0579   -0.0000   -0.0000    0.0634
   34 O2     4s        -0.0009   -0.0000    0.0009   -0.0067   -0.0000   -0.0063   -0.0116   -0.0000   -0.0000    0.0140
   35 O2     2px       -0.0020   -0.0000    0.0037   -0.2070   -0.0000    0.3120    0.6498    0.0000   -0.0000   -0.3072
   36 O2     3px       -0.0024   -0.0000    0.0020   -0.0138    0.0000   -0.0280   -0.0638   -0.0000   -0.0000   -0.0211
   37 O2     4px        0.0019    0.0000   -0.0007    0.0021   -0.0000   -0.0007   -0.0089    0.0000    0.0000   -0.0029
   38 O2     2py        0.0000   -0.0053   -0.0000    0.0000   -0.0355    0.0000   -0.0000    0.6155    0.0000   -0.0000
   39 O2     3py        0.0000   -0.0031   -0.0000   -0.0000    0.0320    0.0000    0.0000   -0.0767    0.0000   -0.0000
   40 O2     4py       -0.0000    0.0010    0.0000    0.0000   -0.0053    0.0000    0.0000   -0.0043   -0.0000   -0.0000
   41 O2     2pz        0.0000    0.0000    0.0000   -0.0000    0.0000    0.0000    0.0000    0.0000    0.7376   -0.0000
   42 O2     3pz        0.0000    0.0000    0.0000    0.0000   -0.0000    0.0000   -0.0000   -0.0000   -0.0496    0.0000
   43 O2     4pz       -0.0000    0.0000   -0.0000    0.0000    0.0000   -0.0000    0.0000    0.0000   -0.0126   -0.0000
   44 O2     3d2-       0.0000   -0.0013   -0.0000    0.0000   -0.0193   -0.0000   -0.0000    0.0465    0.0000   -0.0000
   45 O2     4d2-       0.0000   -0.0006   -0.0000   -0.0000   -0.0017   -0.0000   -0.0000    0.0041   -0.0000   -0.0000
   46 O2     3d1-       0.0000    0.0000    0.0000    0.0000    0.0000   -0.0000   -0.0000   -0.0000   -0.0000   -0.0000
   47 O2     4d1-       0.0000    0.0000   -0.0000    0.0000    0.0000   -0.0000   -0.0000   -0.0000   -0.0000   -0.0000
   48 O2     3d0        0.0010    0.0000   -0.0010   -0.0055   -0.0000   -0.0104   -0.0233    0.0000    0.0000    0.0164
   49 O2     4d0        0.0006    0.0000   -0.0005    0.0009   -0.0000   -0.0010   -0.0011    0.0000    0.0000    0.0019
   50 O2     3d1+       0.0000    0.0000    0.0000   -0.0000   -0.0000   -0.0000    0.0000   -0.0000    0.0286    0.0000
   51 O2     4d1+      -0.0000   -0.0000    0.0000   -0.0000   -0.0000   -0.0000    0.0000   -0.0000    0.0033    0.0000
   52 O2     3d2+       0.0004    0.0000   -0.0007   -0.0154   -0.0000    0.0046    0.0122    0.0000    0.0000    0.0395
   53 O2     4d2+       0.0002    0.0000   -0.0003   -0.0015   -0.0000    0.0008    0.0016    0.0000    0.0000    0.0070
   54 O2     4f3-      -0.0000   -0.0000   -0.0000    0.0000   -0.0007   -0.0000   -0.0000   -0.0024    0.0000   -0.0000
   55 O2     4f2-       0.0000    0.0000    0.0000    0.0000    0.0000   -0.0000    0.0000   -0.0000    0.0000   -0.0000
   56 O2     4f1-      -0.0000    0.0001    0.0000   -0.0000    0.0032    0.0000    0.0000   -0.0079    0.0000    0.0000
   57 O2     4f0       -0.0000    0.0000   -0.0000    0.0000    0.0000    0.0000   -0.0000   -0.0000   -0.0078    0.0000
   58 O2     4f1+       0.0002    0.0000   -0.0001   -0.0016   -0.0000   -0.0016   -0.0056    0.0000   -0.0000    0.0005
   59 O2     4f2+      -0.0000    0.0000    0.0000    0.0000   -0.0000    0.0000   -0.0000   -0.0000   -0.0043   -0.0000
   60 O2     4f3+       0.0002    0.0000   -0.0002   -0.0056   -0.0000   -0.0010   -0.0080    0.0000    0.0000    0.0060
   61 O3     1s         0.0037    0.7065    0.7064   -0.0059    0.0002    0.0106   -0.0170    0.0245    0.0000    0.0005
   62 O3     2s         0.0041   -0.0044   -0.0048    0.4787    0.7064    0.5424   -0.1041    0.1097    0.0000   -0.0390
   63 O3     3s         0.0023   -0.0033   -0.0035    0.0033    0.0076    0.0182   -0.0302    0.0549    0.0000    0.0115
   64 O3     4s         0.0004   -0.0006   -0.0006    0.0015    0.0009    0.0020   -0.0052    0.0112    0.0000    0.0038
   65 O3     2px       -0.0010    0.0011    0.0011   -0.0262    0.0535    0.0856   -0.0120    0.2698   -0.0000    0.6838
   66 O3     3px       -0.0007    0.0013    0.0010    0.0131   -0.0048   -0.0202    0.0021   -0.0317   -0.0000    0.0026
   67 O3     4px        0.0001   -0.0006   -0.0007    0.0017   -0.0008    0.0004    0.0002   -0.0012    0.0000   -0.0068
   68 O3     2py        0.0024   -0.0016   -0.0019   -0.0580   -0.0834   -0.0510    0.3735   -0.3452    0.0000    0.1302
   69 O3     3py        0.0013   -0.0019   -0.0021    0.0022    0.0030    0.0127   -0.0421    0.0435    0.0000    0.0101
   70 O3     4py       -0.0006    0.0012    0.0012    0.0016   -0.0016   -0.0025   -0.0034    0.0037   -0.0000   -0.0009
   71 O3     2pz       -0.0000    0.0000   -0.0000    0.0000    0.0000    0.0000    0.0000    0.0000    0.3393    0.0000
   72 O3     3pz       -0.0000    0.0000   -0.0000   -0.0000    0.0000   -0.0000    0.0000   -0.0000   -0.0263    0.0000
   73 O3     4pz       -0.0000    0.0000    0.0000   -0.0000   -0.0000   -0.0000   -0.0000   -0.0000   -0.0048    0.0000
   74 O3     3d2-      -0.0005    0.0008    0.0008   -0.0099   -0.0015    0.0115   -0.0123    0.0293   -0.0000    0.0124
   75 O3     4d2-      -0.0002    0.0005    0.0005   -0.0011   -0.0005    0.0008   -0.0009    0.0024   -0.0000    0.0012
   76 O3     3d1-       0.0000    0.0000   -0.0000    0.0000    0.0000   -0.0000    0.0000   -0.0000    0.0235   -0.0000
   77 O3     4d1-      -0.0000    0.0000    0.0000    0.0000    0.0000    0.0000    0.0000    0.0000    0.0028   -0.0000
   78 O3     3d0       -0.0004    0.0005    0.0005   -0.0045   -0.0015    0.0040   -0.0136    0.0169   -0.0000    0.0028
   79 O3     4d0       -0.0002    0.0004    0.0003   -0.0001   -0.0007   -0.0000   -0.0005    0.0012   -0.0000   -0.0005
   80 O3     3d1+       0.0000   -0.0000   -0.0000   -0.0000   -0.0000    0.0000   -0.0000    0.0000   -0.0130    0.0000
   81 O3     4d1+      -0.0000    0.0000    0.0000    0.0000   -0.0000    0.0000   -0.0000   -0.0000   -0.0018    0.0000
   82 O3     3d2+      -0.0005    0.0005    0.0005    0.0005   -0.0012   -0.0012   -0.0272    0.0095   -0.0000   -0.0056
   83 O3     4d2+      -0.0003    0.0003    0.0003   -0.0001   -0.0005    0.0000   -0.0024    0.0006   -0.0000   -0.0017
   84 O3     4f3-      -0.0001   -0.0000   -0.0000    0.0013    0.0001   -0.0022   -0.0050   -0.0018    0.0000   -0.0026
   85 O3     4f2-       0.0000   -0.0000    0.0000   -0.0000   -0.0000    0.0000   -0.0000    0.0000   -0.0049    0.0000
   86 O3     4f1-      -0.0001    0.0001    0.0001   -0.0016   -0.0011    0.0006   -0.0041    0.0042   -0.0000    0.0008
   87 O3     4f0        0.0000    0.0000    0.0000    0.0000    0.0000    0.0000   -0.0000    0.0000   -0.0043    0.0000
   88 O3     4f1+       0.0000   -0.0001   -0.0001    0.0014    0.0007   -0.0010    0.0011   -0.0029    0.0000   -0.0012
   89 O3     4f2+       0.0000   -0.0000   -0.0000   -0.0000   -0.0000    0.0000    0.0000   -0.0000   -0.0032    0.0000
   90 O3     4f3+       0.0000   -0.0002   -0.0002    0.0028    0.0017   -0.0019    0.0055   -0.0071    0.0000   -0.0019
 
 
      Orbital               11        12        13        14        15        16        17        18        19        20
      Energy            0.0000    0.0000    0.0000    0.0000    0.0000    0.1892    0.2039    0.2377    0.3240    0.3550
      Occ. No.          1.6594    1.7916    0.8987    0.0592    0.0471    0.0000    0.0000    0.0000    0.0000    0.0000
 
    1 O1     1s         0.0013   -0.0000   -0.0000   -0.0304   -0.0415   -0.1915   -0.1405   -0.0000    0.0734   -0.0077
    2 O1     2s        -0.0267   -0.0000   -0.0000   -0.3561   -0.4260   -1.3879   -0.9740    0.0000    0.5090    0.0158
    3 O1     3s         0.0054   -0.0000   -0.0000   -0.0536   -0.0841   -0.8494   -0.6279    0.0000    0.3474    0.0427
    4 O1     4s         0.0016   -0.0000    0.0000   -0.0056   -0.0127   -0.1930   -0.1357    0.0000    0.0719    0.0165
    5 O1     2px       -0.5622   -0.0000    0.0000    0.2145    0.4207    0.3880    0.1711   -0.0000   -0.1946   -0.2050
    6 O1     3px       -0.0068    0.0000    0.0000    0.0116   -0.0751    0.4313    0.4127   -0.0000    0.1645   -0.8297
    7 O1     4px        0.0054   -0.0000   -0.0000   -0.0063    0.0043    0.0420    0.1119    0.0000    0.1489   -0.3238
    8 O1     2py        0.4688    0.0000    0.0000    0.6568    0.5180    0.4377    0.5646    0.0000   -0.4650   -0.2237
    9 O1     3py        0.0013    0.0000    0.0000   -0.0804   -0.0108    0.7264    0.6110   -0.0000   -0.9324   -0.2554
   10 O1     4py       -0.0045    0.0000   -0.0000   -0.0055   -0.0127    0.1305    0.0438   -0.0000   -0.2544   -0.0554
   11 O1     2pz        0.0000   -0.7102    0.6514   -0.0000    0.0000   -0.0000    0.0000   -0.0661   -0.0000    0.0000
   12 O1     3pz       -0.0000   -0.0021    0.0101   -0.0000   -0.0000    0.0000   -0.0000    0.3740   -0.0000    0.0000
   13 O1     4pz       -0.0000    0.0086   -0.0044    0.0000    0.0000    0.0000   -0.0000    0.2019   -0.0000    0.0000
   14 O1     3d2-       0.0043    0.0000   -0.0000   -0.0200   -0.0070   -0.0967   -0.0664    0.0000    0.0570    0.0244
   15 O1     4d2-       0.0013   -0.0000    0.0000   -0.0064   -0.0055   -0.0580   -0.0424    0.0000    0.0383    0.0277
   16 O1     3d1-       0.0000    0.0155    0.0040    0.0000    0.0000    0.0000    0.0000    0.0110   -0.0000   -0.0000
   17 O1     4d1-      -0.0000    0.0028    0.0006    0.0000   -0.0000    0.0000    0.0000    0.0033   -0.0000   -0.0000
   18 O1     3d0        0.0025   -0.0000    0.0000    0.0098    0.0116    0.0644    0.0567   -0.0000   -0.0305   -0.0240
   19 O1     4d0        0.0002   -0.0000    0.0000    0.0020    0.0061    0.0403    0.0345   -0.0000   -0.0194   -0.0209
   20 O1     3d1+      -0.0000    0.0087    0.0031   -0.0000    0.0000    0.0000    0.0000    0.0037   -0.0000   -0.0000
   21 O1     4d1+      -0.0000    0.0012    0.0003    0.0000    0.0000   -0.0000    0.0000   -0.0007    0.0000   -0.0000
   22 O1     3d2+       0.0170   -0.0000    0.0000    0.0125    0.0220    0.0443    0.0726    0.0000   -0.0456   -0.0047
   23 O1     4d2+       0.0030   -0.0000    0.0000    0.0055    0.0082    0.0268    0.0440    0.0000   -0.0342   -0.0041
   24 O1     4f3-      -0.0043    0.0000   -0.0000    0.0000   -0.0037   -0.0005   -0.0006    0.0000    0.0077   -0.0057
   25 O1     4f2-      -0.0000   -0.0030   -0.0006   -0.0000   -0.0000   -0.0000   -0.0000    0.0029   -0.0000   -0.0000
   26 O1     4f1-      -0.0013   -0.0000   -0.0000   -0.0025   -0.0039   -0.0069   -0.0053    0.0000    0.0060    0.0069
   27 O1     4f0        0.0000    0.0024    0.0017    0.0000    0.0000    0.0000   -0.0000   -0.0016    0.0000   -0.0000
   28 O1     4f1+       0.0002   -0.0000   -0.0000   -0.0018   -0.0012   -0.0029   -0.0035    0.0000    0.0026    0.0062
   29 O1     4f2+       0.0000    0.0017   -0.0000    0.0000    0.0000   -0.0000   -0.0000   -0.0010    0.0000    0.0000
   30 O1     4f3+      -0.0010   -0.0000   -0.0000   -0.0035   -0.0037   -0.0101   -0.0056    0.0000    0.0110    0.0105
   31 O2     1s        -0.0000    0.0000    0.0000    0.0827   -0.0000    0.0000    0.3002   -0.0000   -0.2289    0.0000
   32 O2     2s        -0.0000    0.0000    0.0000    0.8355   -0.0000    0.0000    2.0895    0.0000   -1.5347    0.0000
   33 O2     3s        -0.0000    0.0000    0.0000    0.0889   -0.0000    0.0000    1.2978    0.0000   -0.9241    0.0000
   34 O2     4s        -0.0000    0.0000    0.0000    0.0292   -0.0000    0.0000    0.2784    0.0000   -0.1882    0.0000
   35 O2     2px        0.0000    0.0000    0.0000    0.6934   -0.0000    0.0000    0.5898    0.0000   -0.5216    0.0000
   36 O2     3px        0.0000    0.0000    0.0000   -0.1410    0.0000    0.0000    0.9232    0.0000   -0.5097    0.0000
   37 O2     4px        0.0000    0.0000   -0.0000    0.0240   -0.0000    0.0000    0.1706    0.0000    0.0113    0.0000
   38 O2     2py       -0.0287   -0.0000   -0.0000    0.0000    1.0291    1.1619   -0.0000   -0.0000    0.0000   -0.0478
   39 O2     3py       -0.0160   -0.0000   -0.0000   -0.0000   -0.1140    1.3372   -0.0000   -0.0000    0.0000    0.3541
   40 O2     4py       -0.0032    0.0000   -0.0000   -0.0000    0.0049    0.1436   -0.0000   -0.0000    0.0000    0.2156
   41 O2     2pz        0.0000   -0.0000   -0.7321    0.0000    0.0000   -0.0000    0.0000   -0.0961   -0.0000   -0.0000
   42 O2     3pz        0.0000    0.0000   -0.0268   -0.0000   -0.0000    0.0000    0.0000    0.2835   -0.0000   -0.0000
   43 O2     4pz       -0.0000   -0.0000    0.0028    0.0000    0.0000    0.0000   -0.0000    0.1792   -0.0000   -0.0000
   44 O2     3d2-      -0.0353   -0.0000   -0.0000    0.0000    0.0303    0.1748   -0.0000   -0.0000    0.0000    0.0408
   45 O2     4d2-      -0.0063   -0.0000   -0.0000   -0.0000    0.0005    0.1024   -0.0000   -0.0000    0.0000    0.0441
   46 O2     3d1-       0.0000   -0.0395    0.0000    0.0000    0.0000    0.0000    0.0000   -0.0000   -0.0000   -0.0000
   47 O2     4d1-       0.0000   -0.0069    0.0000    0.0000    0.0000    0.0000    0.0000   -0.0000    0.0000   -0.0000
   48 O2     3d0       -0.0000   -0.0000   -0.0000   -0.0018   -0.0000   -0.0000   -0.1152   -0.0000    0.0792   -0.0000
   49 O2     4d0        0.0000   -0.0000   -0.0000   -0.0028   -0.0000   -0.0000   -0.0679   -0.0000    0.0400   -0.0000
   50 O2     3d1+       0.0000   -0.0000   -0.0017    0.0000    0.0000   -0.0000    0.0000   -0.0263   -0.0000   -0.0000
[...]

>>> EXPORT i = B

>>> EXPORT j = P

>>> IF (-FILE GMJ_e2_${i}_${j}_${k}_.csv)

>>> COPY /lustre/isaac/scratch/gjones39/scpfiles/ANO-RCC-VTZP/ozone_119.00/3252711/GMJ_RHS_B_P_3_.csv /lustre/isaac/scratch/gjones39/scpfiles/ANO-RCC-VTZP/ozone_119.00/GMJ_RHS_B_P_3_.csv

>>> COPY /lustre/isaac/scratch/gjones39/scpfiles/ANO-RCC-VTZP/ozone_119.00/3252711/GMJ_IVECW_B_P_3_.csv /lustre/isaac/scratch/gjones39/scpfiles/ANO-RCC-VTZP/ozone_119.00/GMJ_IVECW_B_P_3_.csv

>>> COPY /lustre/isaac/scratch/gjones39/scpfiles/ANO-RCC-VTZP/ozone_119.00/3252711/GMJ_IVECX_B_P_3_.csv /lustre/isaac/scratch/gjones39/scpfiles/ANO-RCC-VTZP/ozone_119.00/GMJ_IVECX_B_P_3_.csv

>>> COPY /lustre/isaac/scratch/gjones39/scpfiles/ANO-RCC-VTZP/ozone_119.00/3252711/GMJ_IVECC2_B_P_3_.csv /lustre/isaac/scratch/gjones39/scpfiles/ANO-RCC-VTZP/ozone_119.00/GMJ_IVECC2_B_P_3_.csv

>>> COPY /lustre/isaac/scratch/gjones39/scpfiles/ANO-RCC-VTZP/ozone_119.00/3252711/GMJ_e2_B_P_3_.csv /lustre/isaac/scratch/gjones39/scpfiles/ANO-RCC-VTZP/ozone_119.00/GMJ_e2_B_P_3_.csv

>>> END FOREACH

>>> EXPORT j = M

>>> IF (-FILE GMJ_e2_${i}_${j}_${k}_.csv)

>>> COPY /lustre/isaac/scratch/gjones39/scpfiles/ANO-RCC-VTZP/ozone_119.00/3252711/GMJ_RHS_B_M_3_.csv /lustre/isaac/scratch/gjones39/scpfiles/ANO-RCC-VTZP/ozone_119.00/GMJ_RHS_B_M_3_.csv

>>> COPY /lustre/isaac/scratch/gjones39/scpfiles/ANO-RCC-VTZP/ozone_119.00/3252711/GMJ_IVECW_B_M_3_.csv /lustre/isaac/scratch/gjones39/scpfiles/ANO-RCC-VTZP/ozone_119.00/GMJ_IVECW_B_M_3_.csv

>>> COPY /lustre/isaac/scratch/gjones39/scpfiles/ANO-RCC-VTZP/ozone_119.00/3252711/GMJ_IVECX_B_M_3_.csv /lustre/isaac/scratch/gjones39/scpfiles/ANO-RCC-VTZP/ozone_119.00/GMJ_IVECX_B_M_3_.csv

>>> COPY /lustre/isaac/scratch/gjones39/scpfiles/ANO-RCC-VTZP/ozone_119.00/3252711/GMJ_IVECC2_B_M_3_.csv /lustre/isaac/scratch/gjones39/scpfiles/ANO-RCC-VTZP/ozone_119.00/GMJ_IVECC2_B_M_3_.csv

>>> COPY /lustre/isaac/scratch/gjones39/scpfiles/ANO-RCC-VTZP/ozone_119.00/3252711/GMJ_e2_B_M_3_.csv /lustre/isaac/scratch/gjones39/scpfiles/ANO-RCC-VTZP/ozone_119.00/GMJ_e2_B_M_3_.csv

>>> END FOREACH

>>> END FOREACH

>>> EXPORT i = E

>>> EXPORT j = P

>>> IF (-FILE GMJ_e2_${i}_${j}_${k}_.csv)

>>> COPY /lustre/isaac/scratch/gjones39/scpfiles/ANO-RCC-VTZP/ozone_119.00/3252711/GMJ_RHS_E_P_3_.csv /lustre/isaac/scratch/gjones39/scpfiles/ANO-RCC-VTZP/ozone_119.00/GMJ_RHS_E_P_3_.csv

>>> COPY /lustre/isaac/scratch/gjones39/scpfiles/ANO-RCC-VTZP/ozone_119.00/3252711/GMJ_IVECW_E_P_3_.csv /lustre/isaac/scratch/gjones39/scpfiles/ANO-RCC-VTZP/ozone_119.00/GMJ_IVECW_E_P_3_.csv

>>> COPY /lustre/isaac/scratch/gjones39/scpfiles/ANO-RCC-VTZP/ozone_119.00/3252711/GMJ_IVECX_E_P_3_.csv /lustre/isaac/scratch/gjones39/scpfiles/ANO-RCC-VTZP/ozone_119.00/GMJ_IVECX_E_P_3_.csv

>>> COPY /lustre/isaac/scratch/gjones39/scpfiles/ANO-RCC-VTZP/ozone_119.00/3252711/GMJ_IVECC2_E_P_3_.csv /lustre/isaac/scratch/gjones39/scpfiles/ANO-RCC-VTZP/ozone_119.00/GMJ_IVECC2_E_P_3_.csv

>>> COPY /lustre/isaac/scratch/gjones39/scpfiles/ANO-RCC-VTZP/ozone_119.00/3252711/GMJ_e2_E_P_3_.csv /lustre/isaac/scratch/gjones39/scpfiles/ANO-RCC-VTZP/ozone_119.00/GMJ_e2_E_P_3_.csv

>>> END FOREACH

>>> EXPORT j = M

>>> IF (-FILE GMJ_e2_${i}_${j}_${k}_.csv)

>>> COPY /lustre/isaac/scratch/gjones39/scpfiles/ANO-RCC-VTZP/ozone_119.00/3252711/GMJ_RHS_E_M_3_.csv /lustre/isaac/scratch/gjones39/scpfiles/ANO-RCC-VTZP/ozone_119.00/GMJ_RHS_E_M_3_.csv

>>> COPY /lustre/isaac/scratch/gjones39/scpfiles/ANO-RCC-VTZP/ozone_119.00/3252711/GMJ_IVECW_E_M_3_.csv /lustre/isaac/scratch/gjones39/scpfiles/ANO-RCC-VTZP/ozone_119.00/GMJ_IVECW_E_M_3_.csv

>>> COPY /lustre/isaac/scratch/gjones39/scpfiles/ANO-RCC-VTZP/ozone_119.00/3252711/GMJ_IVECX_E_M_3_.csv /lustre/isaac/scratch/gjones39/scpfiles/ANO-RCC-VTZP/ozone_119.00/GMJ_IVECX_E_M_3_.csv

>>> COPY /lustre/isaac/scratch/gjones39/scpfiles/ANO-RCC-VTZP/ozone_119.00/3252711/GMJ_IVECC2_E_M_3_.csv /lustre/isaac/scratch/gjones39/scpfiles/ANO-RCC-VTZP/ozone_119.00/GMJ_IVECC2_E_M_3_.csv

>>> COPY /lustre/isaac/scratch/gjones39/scpfiles/ANO-RCC-VTZP/ozone_119.00/3252711/GMJ_e2_E_M_3_.csv /lustre/isaac/scratch/gjones39/scpfiles/ANO-RCC-VTZP/ozone_119.00/GMJ_e2_E_M_3_.csv

>>> END FOREACH

>>> END FOREACH

>>> EXPORT i = F

>>> EXPORT j = P

>>> IF (-FILE GMJ_e2_${i}_${j}_${k}_.csv)

>>> COPY /lustre/isaac/scratch/gjones39/scpfiles/ANO-RCC-VTZP/ozone_119.00/3252711/GMJ_RHS_F_P_3_.csv /lustre/isaac/scratch/gjones39/scpfiles/ANO-RCC-VTZP/ozone_119.00/GMJ_RHS_F_P_3_.csv

>>> COPY /lustre/isaac/scratch/gjones39/scpfiles/ANO-RCC-VTZP/ozone_119.00/3252711/GMJ_IVECW_F_P_3_.csv /lustre/isaac/scratch/gjones39/scpfiles/ANO-RCC-VTZP/ozone_119.00/GMJ_IVECW_F_P_3_.csv

>>> COPY /lustre/isaac/scratch/gjones39/scpfiles/ANO-RCC-VTZP/ozone_119.00/3252711/GMJ_IVECX_F_P_3_.csv /lustre/isaac/scratch/gjones39/scpfiles/ANO-RCC-VTZP/ozone_119.00/GMJ_IVECX_F_P_3_.csv

>>> COPY /lustre/isaac/scratch/gjones39/scpfiles/ANO-RCC-VTZP/ozone_119.00/3252711/GMJ_IVECC2_F_P_3_.csv /lustre/isaac/scratch/gjones39/scpfiles/ANO-RCC-VTZP/ozone_119.00/GMJ_IVECC2_F_P_3_.csv

>>> COPY /lustre/isaac/scratch/gjones39/scpfiles/ANO-RCC-VTZP/ozone_119.00/3252711/GMJ_e2_F_P_3_.csv /lustre/isaac/scratch/gjones39/scpfiles/ANO-RCC-VTZP/ozone_119.00/GMJ_e2_F_P_3_.csv

>>> END FOREACH

>>> EXPORT j = M

>>> IF (-FILE GMJ_e2_${i}_${j}_${k}_.csv)

>>> COPY /lustre/isaac/scratch/gjones39/scpfiles/ANO-RCC-VTZP/ozone_119.00/3252711/GMJ_RHS_F_M_3_.csv /lustre/isaac/scratch/gjones39/scpfiles/ANO-RCC-VTZP/ozone_119.00/GMJ_RHS_F_M_3_.csv

>>> COPY /lustre/isaac/scratch/gjones39/scpfiles/ANO-RCC-VTZP/ozone_119.00/3252711/GMJ_IVECW_F_M_3_.csv /lustre/isaac/scratch/gjones39/scpfiles/ANO-RCC-VTZP/ozone_119.00/GMJ_IVECW_F_M_3_.csv

>>> COPY /lustre/isaac/scratch/gjones39/scpfiles/ANO-RCC-VTZP/ozone_119.00/3252711/GMJ_IVECX_F_M_3_.csv /lustre/isaac/scratch/gjones39/scpfiles/ANO-RCC-VTZP/ozone_119.00/GMJ_IVECX_F_M_3_.csv

>>> COPY /lustre/isaac/scratch/gjones39/scpfiles/ANO-RCC-VTZP/ozone_119.00/3252711/GMJ_IVECC2_F_M_3_.csv /lustre/isaac/scratch/gjones39/scpfiles/ANO-RCC-VTZP/ozone_119.00/GMJ_IVECC2_F_M_3_.csv

>>> COPY /lustre/isaac/scratch/gjones39/scpfiles/ANO-RCC-VTZP/ozone_119.00/3252711/GMJ_e2_F_M_3_.csv /lustre/isaac/scratch/gjones39/scpfiles/ANO-RCC-VTZP/ozone_119.00/GMJ_e2_F_M_3_.csv

>>> END FOREACH

>>> END FOREACH

>>> EXPORT i = G

>>> EXPORT j = P

>>> IF (-FILE GMJ_e2_${i}_${j}_${k}_.csv)

>>> COPY /lustre/isaac/scratch/gjones39/scpfiles/ANO-RCC-VTZP/ozone_119.00/3252711/GMJ_RHS_G_P_3_.csv /lustre/isaac/scratch/gjones39/scpfiles/ANO-RCC-VTZP/ozone_119.00/GMJ_RHS_G_P_3_.csv

>>> COPY /lustre/isaac/scratch/gjones39/scpfiles/ANO-RCC-VTZP/ozone_119.00/3252711/GMJ_IVECW_G_P_3_.csv /lustre/isaac/scratch/gjones39/scpfiles/ANO-RCC-VTZP/ozone_119.00/GMJ_IVECW_G_P_3_.csv

>>> COPY /lustre/isaac/scratch/gjones39/scpfiles/ANO-RCC-VTZP/ozone_119.00/3252711/GMJ_IVECX_G_P_3_.csv /lustre/isaac/scratch/gjones39/scpfiles/ANO-RCC-VTZP/ozone_119.00/GMJ_IVECX_G_P_3_.csv

>>> COPY /lustre/isaac/scratch/gjones39/scpfiles/ANO-RCC-VTZP/ozone_119.00/3252711/GMJ_IVECC2_G_P_3_.csv /lustre/isaac/scratch/gjones39/scpfiles/ANO-RCC-VTZP/ozone_119.00/GMJ_IVECC2_G_P_3_.csv

>>> COPY /lustre/isaac/scratch/gjones39/scpfiles/ANO-RCC-VTZP/ozone_119.00/3252711/GMJ_e2_G_P_3_.csv /lustre/isaac/scratch/gjones39/scpfiles/ANO-RCC-VTZP/ozone_119.00/GMJ_e2_G_P_3_.csv

>>> END FOREACH

>>> EXPORT j = M

>>> IF (-FILE GMJ_e2_${i}_${j}_${k}_.csv)

>>> COPY /lustre/isaac/scratch/gjones39/scpfiles/ANO-RCC-VTZP/ozone_119.00/3252711/GMJ_RHS_G_M_3_.csv /lustre/isaac/scratch/gjones39/scpfiles/ANO-RCC-VTZP/ozone_119.00/GMJ_RHS_G_M_3_.csv

>>> COPY /lustre/isaac/scratch/gjones39/scpfiles/ANO-RCC-VTZP/ozone_119.00/3252711/GMJ_IVECW_G_M_3_.csv /lustre/isaac/scratch/gjones39/scpfiles/ANO-RCC-VTZP/ozone_119.00/GMJ_IVECW_G_M_3_.csv

>>> COPY /lustre/isaac/scratch/gjones39/scpfiles/ANO-RCC-VTZP/ozone_119.00/3252711/GMJ_IVECX_G_M_3_.csv /lustre/isaac/scratch/gjones39/scpfiles/ANO-RCC-VTZP/ozone_119.00/GMJ_IVECX_G_M_3_.csv

>>> COPY /lustre/isaac/scratch/gjones39/scpfiles/ANO-RCC-VTZP/ozone_119.00/3252711/GMJ_IVECC2_G_M_3_.csv /lustre/isaac/scratch/gjones39/scpfiles/ANO-RCC-VTZP/ozone_119.00/GMJ_IVECC2_G_M_3_.csv

>>> COPY /lustre/isaac/scratch/gjones39/scpfiles/ANO-RCC-VTZP/ozone_119.00/3252711/GMJ_e2_G_M_3_.csv /lustre/isaac/scratch/gjones39/scpfiles/ANO-RCC-VTZP/ozone_119.00/GMJ_e2_G_M_3_.csv

>>> END FOREACH

>>> END FOREACH

>>> EXPORT i = H

>>> EXPORT j = P

>>> IF (-FILE GMJ_e2_${i}_${j}_${k}_.csv)

>>> COPY /lustre/isaac/scratch/gjones39/scpfiles/ANO-RCC-VTZP/ozone_119.00/3252711/GMJ_RHS_H_P_3_.csv /lustre/isaac/scratch/gjones39/scpfiles/ANO-RCC-VTZP/ozone_119.00/GMJ_RHS_H_P_3_.csv

>>> COPY /lustre/isaac/scratch/gjones39/scpfiles/ANO-RCC-VTZP/ozone_119.00/3252711/GMJ_IVECW_H_P_3_.csv /lustre/isaac/scratch/gjones39/scpfiles/ANO-RCC-VTZP/ozone_119.00/GMJ_IVECW_H_P_3_.csv

>>> COPY /lustre/isaac/scratch/gjones39/scpfiles/ANO-RCC-VTZP/ozone_119.00/3252711/GMJ_IVECX_H_P_3_.csv /lustre/isaac/scratch/gjones39/scpfiles/ANO-RCC-VTZP/ozone_119.00/GMJ_IVECX_H_P_3_.csv

>>> COPY /lustre/isaac/scratch/gjones39/scpfiles/ANO-RCC-VTZP/ozone_119.00/3252711/GMJ_IVECC2_H_P_3_.csv /lustre/isaac/scratch/gjones39/scpfiles/ANO-RCC-VTZP/ozone_119.00/GMJ_IVECC2_H_P_3_.csv

>>> COPY /lustre/isaac/scratch/gjones39/scpfiles/ANO-RCC-VTZP/ozone_119.00/3252711/GMJ_e2_H_P_3_.csv /lustre/isaac/scratch/gjones39/scpfiles/ANO-RCC-VTZP/ozone_119.00/GMJ_e2_H_P_3_.csv

>>> END FOREACH

>>> EXPORT j = M

>>> IF (-FILE GMJ_e2_${i}_${j}_${k}_.csv)

>>> COPY /lustre/isaac/scratch/gjones39/scpfiles/ANO-RCC-VTZP/ozone_119.00/3252711/GMJ_RHS_H_M_3_.csv /lustre/isaac/scratch/gjones39/scpfiles/ANO-RCC-VTZP/ozone_119.00/GMJ_RHS_H_M_3_.csv

>>> COPY /lustre/isaac/scratch/gjones39/scpfiles/ANO-RCC-VTZP/ozone_119.00/3252711/GMJ_IVECW_H_M_3_.csv /lustre/isaac/scratch/gjones39/scpfiles/ANO-RCC-VTZP/ozone_119.00/GMJ_IVECW_H_M_3_.csv

>>> COPY /lustre/isaac/scratch/gjones39/scpfiles/ANO-RCC-VTZP/ozone_119.00/3252711/GMJ_IVECX_H_M_3_.csv /lustre/isaac/scratch/gjones39/scpfiles/ANO-RCC-VTZP/ozone_119.00/GMJ_IVECX_H_M_3_.csv

>>> COPY /lustre/isaac/scratch/gjones39/scpfiles/ANO-RCC-VTZP/ozone_119.00/3252711/GMJ_IVECC2_H_M_3_.csv /lustre/isaac/scratch/gjones39/scpfiles/ANO-RCC-VTZP/ozone_119.00/GMJ_IVECC2_H_M_3_.csv

>>> COPY /lustre/isaac/scratch/gjones39/scpfiles/ANO-RCC-VTZP/ozone_119.00/3252711/GMJ_e2_H_M_3_.csv /lustre/isaac/scratch/gjones39/scpfiles/ANO-RCC-VTZP/ozone_119.00/GMJ_e2_H_M_3_.csv

>>> END FOREACH

>>> END FOREACH

>>> END FOREACH

>>> EXPORT j = 1

>>> EXPORT i = A

>>> IF (-FILE GMJ_e2_${i}_${j}_.csv)

>>> COPY /lustre/isaac/scratch/gjones39/scpfiles/ANO-RCC-VTZP/ozone_119.00/3252711/GMJ_RHS_A_1_.csv /lustre/isaac/scratch/gjones39/scpfiles/ANO-RCC-VTZP/ozone_119.00/GMJ_RHS_A_1_.csv

>>> COPY /lustre/isaac/scratch/gjones39/scpfiles/ANO-RCC-VTZP/ozone_119.00/3252711/GMJ_IVECW_A_1_.csv /lustre/isaac/scratch/gjones39/scpfiles/ANO-RCC-VTZP/ozone_119.00/GMJ_IVECW_A_1_.csv

>>> COPY /lustre/isaac/scratch/gjones39/scpfiles/ANO-RCC-VTZP/ozone_119.00/3252711/GMJ_IVECX_A_1_.csv /lustre/isaac/scratch/gjones39/scpfiles/ANO-RCC-VTZP/ozone_119.00/GMJ_IVECX_A_1_.csv

>>> COPY /lustre/isaac/scratch/gjones39/scpfiles/ANO-RCC-VTZP/ozone_119.00/3252711/GMJ_IVECC2_A_1_.csv /lustre/isaac/scratch/gjones39/scpfiles/ANO-RCC-VTZP/ozone_119.00/GMJ_IVECC2_A_1_.csv

>>> COPY /lustre/isaac/scratch/gjones39/scpfiles/ANO-RCC-VTZP/ozone_119.00/3252711/GMJ_e2_A_1_.csv /lustre/isaac/scratch/gjones39/scpfiles/ANO-RCC-VTZP/ozone_119.00/GMJ_e2_A_1_.csv

>>> END FOREACH

>>> EXPORT i = C

>>> IF (-FILE GMJ_e2_${i}_${j}_.csv)

>>> COPY /lustre/isaac/scratch/gjones39/scpfiles/ANO-RCC-VTZP/ozone_119.00/3252711/GMJ_RHS_C_1_.csv /lustre/isaac/scratch/gjones39/scpfiles/ANO-RCC-VTZP/ozone_119.00/GMJ_RHS_C_1_.csv

>>> COPY /lustre/isaac/scratch/gjones39/scpfiles/ANO-RCC-VTZP/ozone_119.00/3252711/GMJ_IVECW_C_1_.csv /lustre/isaac/scratch/gjones39/scpfiles/ANO-RCC-VTZP/ozone_119.00/GMJ_IVECW_C_1_.csv

>>> COPY /lustre/isaac/scratch/gjones39/scpfiles/ANO-RCC-VTZP/ozone_119.00/3252711/GMJ_IVECX_C_1_.csv /lustre/isaac/scratch/gjones39/scpfiles/ANO-RCC-VTZP/ozone_119.00/GMJ_IVECX_C_1_.csv

>>> COPY /lustre/isaac/scratch/gjones39/scpfiles/ANO-RCC-VTZP/ozone_119.00/3252711/GMJ_IVECC2_C_1_.csv /lustre/isaac/scratch/gjones39/scpfiles/ANO-RCC-VTZP/ozone_119.00/GMJ_IVECC2_C_1_.csv

>>> COPY /lustre/isaac/scratch/gjones39/scpfiles/ANO-RCC-VTZP/ozone_119.00/3252711/GMJ_e2_C_1_.csv /lustre/isaac/scratch/gjones39/scpfiles/ANO-RCC-VTZP/ozone_119.00/GMJ_e2_C_1_.csv

>>> END FOREACH

>>> EXPORT i = D

>>> IF (-FILE GMJ_e2_${i}_${j}_.csv)

>>> COPY /lustre/isaac/scratch/gjones39/scpfiles/ANO-RCC-VTZP/ozone_119.00/3252711/GMJ_RHS_D_1_.csv /lustre/isaac/scratch/gjones39/scpfiles/ANO-RCC-VTZP/ozone_119.00/GMJ_RHS_D_1_.csv

>>> COPY /lustre/isaac/scratch/gjones39/scpfiles/ANO-RCC-VTZP/ozone_119.00/3252711/GMJ_IVECW_D_1_.csv /lustre/isaac/scratch/gjones39/scpfiles/ANO-RCC-VTZP/ozone_119.00/GMJ_IVECW_D_1_.csv

>>> COPY /lustre/isaac/scratch/gjones39/scpfiles/ANO-RCC-VTZP/ozone_119.00/3252711/GMJ_IVECX_D_1_.csv /lustre/isaac/scratch/gjones39/scpfiles/ANO-RCC-VTZP/ozone_119.00/GMJ_IVECX_D_1_.csv

>>> COPY /lustre/isaac/scratch/gjones39/scpfiles/ANO-RCC-VTZP/ozone_119.00/3252711/GMJ_IVECC2_D_1_.csv /lustre/isaac/scratch/gjones39/scpfiles/ANO-RCC-VTZP/ozone_119.00/GMJ_IVECC2_D_1_.csv

>>> COPY /lustre/isaac/scratch/gjones39/scpfiles/ANO-RCC-VTZP/ozone_119.00/3252711/GMJ_e2_D_1_.csv /lustre/isaac/scratch/gjones39/scpfiles/ANO-RCC-VTZP/ozone_119.00/GMJ_e2_D_1_.csv

>>> END FOREACH

>>> END FOREACH

>>> EXPORT j = 2

>>> EXPORT i = A

>>> IF (-FILE GMJ_e2_${i}_${j}_.csv)

>>> COPY /lustre/isaac/scratch/gjones39/scpfiles/ANO-RCC-VTZP/ozone_119.00/3252711/GMJ_RHS_A_2_.csv /lustre/isaac/scratch/gjones39/scpfiles/ANO-RCC-VTZP/ozone_119.00/GMJ_RHS_A_2_.csv

>>> COPY /lustre/isaac/scratch/gjones39/scpfiles/ANO-RCC-VTZP/ozone_119.00/3252711/GMJ_IVECW_A_2_.csv /lustre/isaac/scratch/gjones39/scpfiles/ANO-RCC-VTZP/ozone_119.00/GMJ_IVECW_A_2_.csv

>>> COPY /lustre/isaac/scratch/gjones39/scpfiles/ANO-RCC-VTZP/ozone_119.00/3252711/GMJ_IVECX_A_2_.csv /lustre/isaac/scratch/gjones39/scpfiles/ANO-RCC-VTZP/ozone_119.00/GMJ_IVECX_A_2_.csv

>>> COPY /lustre/isaac/scratch/gjones39/scpfiles/ANO-RCC-VTZP/ozone_119.00/3252711/GMJ_IVECC2_A_2_.csv /lustre/isaac/scratch/gjones39/scpfiles/ANO-RCC-VTZP/ozone_119.00/GMJ_IVECC2_A_2_.csv

>>> COPY /lustre/isaac/scratch/gjones39/scpfiles/ANO-RCC-VTZP/ozone_119.00/3252711/GMJ_e2_A_2_.csv /lustre/isaac/scratch/gjones39/scpfiles/ANO-RCC-VTZP/ozone_119.00/GMJ_e2_A_2_.csv

>>> END FOREACH

>>> EXPORT i = C

>>> IF (-FILE GMJ_e2_${i}_${j}_.csv)

>>> COPY /lustre/isaac/scratch/gjones39/scpfiles/ANO-RCC-VTZP/ozone_119.00/3252711/GMJ_RHS_C_2_.csv /lustre/isaac/scratch/gjones39/scpfiles/ANO-RCC-VTZP/ozone_119.00/GMJ_RHS_C_2_.csv

>>> COPY /lustre/isaac/scratch/gjones39/scpfiles/ANO-RCC-VTZP/ozone_119.00/3252711/GMJ_IVECW_C_2_.csv /lustre/isaac/scratch/gjones39/scpfiles/ANO-RCC-VTZP/ozone_119.00/GMJ_IVECW_C_2_.csv

>>> COPY /lustre/isaac/scratch/gjones39/scpfiles/ANO-RCC-VTZP/ozone_119.00/3252711/GMJ_IVECX_C_2_.csv /lustre/isaac/scratch/gjones39/scpfiles/ANO-RCC-VTZP/ozone_119.00/GMJ_IVECX_C_2_.csv

>>> COPY /lustre/isaac/scratch/gjones39/scpfiles/ANO-RCC-VTZP/ozone_119.00/3252711/GMJ_IVECC2_C_2_.csv /lustre/isaac/scratch/gjones39/scpfiles/ANO-RCC-VTZP/ozone_119.00/GMJ_IVECC2_C_2_.csv

>>> COPY /lustre/isaac/scratch/gjones39/scpfiles/ANO-RCC-VTZP/ozone_119.00/3252711/GMJ_e2_C_2_.csv /lustre/isaac/scratch/gjones39/scpfiles/ANO-RCC-VTZP/ozone_119.00/GMJ_e2_C_2_.csv

>>> END FOREACH

>>> EXPORT i = D

>>> IF (-FILE GMJ_e2_${i}_${j}_.csv)

>>> COPY /lustre/isaac/scratch/gjones39/scpfiles/ANO-RCC-VTZP/ozone_119.00/3252711/GMJ_RHS_D_2_.csv /lustre/isaac/scratch/gjones39/scpfiles/ANO-RCC-VTZP/ozone_119.00/GMJ_RHS_D_2_.csv

>>> COPY /lustre/isaac/scratch/gjones39/scpfiles/ANO-RCC-VTZP/ozone_119.00/3252711/GMJ_IVECW_D_2_.csv /lustre/isaac/scratch/gjones39/scpfiles/ANO-RCC-VTZP/ozone_119.00/GMJ_IVECW_D_2_.csv

>>> COPY /lustre/isaac/scratch/gjones39/scpfiles/ANO-RCC-VTZP/ozone_119.00/3252711/GMJ_IVECX_D_2_.csv /lustre/isaac/scratch/gjones39/scpfiles/ANO-RCC-VTZP/ozone_119.00/GMJ_IVECX_D_2_.csv

>>> COPY /lustre/isaac/scratch/gjones39/scpfiles/ANO-RCC-VTZP/ozone_119.00/3252711/GMJ_IVECC2_D_2_.csv /lustre/isaac/scratch/gjones39/scpfiles/ANO-RCC-VTZP/ozone_119.00/GMJ_IVECC2_D_2_.csv

>>> COPY /lustre/isaac/scratch/gjones39/scpfiles/ANO-RCC-VTZP/ozone_119.00/3252711/GMJ_e2_D_2_.csv /lustre/isaac/scratch/gjones39/scpfiles/ANO-RCC-VTZP/ozone_119.00/GMJ_e2_D_2_.csv

>>> END FOREACH

>>> END FOREACH

>>> EXPORT j = 3

>>> EXPORT i = A

>>> IF (-FILE GMJ_e2_${i}_${j}_.csv)

>>> COPY /lustre/isaac/scratch/gjones39/scpfiles/ANO-RCC-VTZP/ozone_119.00/3252711/GMJ_RHS_A_3_.csv /lustre/isaac/scratch/gjones39/scpfiles/ANO-RCC-VTZP/ozone_119.00/GMJ_RHS_A_3_.csv

>>> COPY /lustre/isaac/scratch/gjones39/scpfiles/ANO-RCC-VTZP/ozone_119.00/3252711/GMJ_IVECW_A_3_.csv /lustre/isaac/scratch/gjones39/scpfiles/ANO-RCC-VTZP/ozone_119.00/GMJ_IVECW_A_3_.csv

>>> COPY /lustre/isaac/scratch/gjones39/scpfiles/ANO-RCC-VTZP/ozone_119.00/3252711/GMJ_IVECX_A_3_.csv /lustre/isaac/scratch/gjones39/scpfiles/ANO-RCC-VTZP/ozone_119.00/GMJ_IVECX_A_3_.csv

>>> COPY /lustre/isaac/scratch/gjones39/scpfiles/ANO-RCC-VTZP/ozone_119.00/3252711/GMJ_IVECC2_A_3_.csv /lustre/isaac/scratch/gjones39/scpfiles/ANO-RCC-VTZP/ozone_119.00/GMJ_IVECC2_A_3_.csv

>>> COPY /lustre/isaac/scratch/gjones39/scpfiles/ANO-RCC-VTZP/ozone_119.00/3252711/GMJ_e2_A_3_.csv /lustre/isaac/scratch/gjones39/scpfiles/ANO-RCC-VTZP/ozone_119.00/GMJ_e2_A_3_.csv

>>> END FOREACH

>>> EXPORT i = C

>>> IF (-FILE GMJ_e2_${i}_${j}_.csv)

>>> COPY /lustre/isaac/scratch/gjones39/scpfiles/ANO-RCC-VTZP/ozone_119.00/3252711/GMJ_RHS_C_3_.csv /lustre/isaac/scratch/gjones39/scpfiles/ANO-RCC-VTZP/ozone_119.00/GMJ_RHS_C_3_.csv

>>> COPY /lustre/isaac/scratch/gjones39/scpfiles/ANO-RCC-VTZP/ozone_119.00/3252711/GMJ_IVECW_C_3_.csv /lustre/isaac/scratch/gjones39/scpfiles/ANO-RCC-VTZP/ozone_119.00/GMJ_IVECW_C_3_.csv

>>> COPY /lustre/isaac/scratch/gjones39/scpfiles/ANO-RCC-VTZP/ozone_119.00/3252711/GMJ_IVECX_C_3_.csv /lustre/isaac/scratch/gjones39/scpfiles/ANO-RCC-VTZP/ozone_119.00/GMJ_IVECX_C_3_.csv

>>> COPY /lustre/isaac/scratch/gjones39/scpfiles/ANO-RCC-VTZP/ozone_119.00/3252711/GMJ_IVECC2_C_3_.csv /lustre/isaac/scratch/gjones39/scpfiles/ANO-RCC-VTZP/ozone_119.00/GMJ_IVECC2_C_3_.csv

>>> COPY /lustre/isaac/scratch/gjones39/scpfiles/ANO-RCC-VTZP/ozone_119.00/3252711/GMJ_e2_C_3_.csv /lustre/isaac/scratch/gjones39/scpfiles/ANO-RCC-VTZP/ozone_119.00/GMJ_e2_C_3_.csv

>>> END FOREACH

>>> EXPORT i = D

>>> IF (-FILE GMJ_e2_${i}_${j}_.csv)

>>> COPY /lustre/isaac/scratch/gjones39/scpfiles/ANO-RCC-VTZP/ozone_119.00/3252711/GMJ_RHS_D_3_.csv /lustre/isaac/scratch/gjones39/scpfiles/ANO-RCC-VTZP/ozone_119.00/GMJ_RHS_D_3_.csv

>>> COPY /lustre/isaac/scratch/gjones39/scpfiles/ANO-RCC-VTZP/ozone_119.00/3252711/GMJ_IVECW_D_3_.csv /lustre/isaac/scratch/gjones39/scpfiles/ANO-RCC-VTZP/ozone_119.00/GMJ_IVECW_D_3_.csv

>>> COPY /lustre/isaac/scratch/gjones39/scpfiles/ANO-RCC-VTZP/ozone_119.00/3252711/GMJ_IVECX_D_3_.csv /lustre/isaac/scratch/gjones39/scpfiles/ANO-RCC-VTZP/ozone_119.00/GMJ_IVECX_D_3_.csv

>>> COPY /lustre/isaac/scratch/gjones39/scpfiles/ANO-RCC-VTZP/ozone_119.00/3252711/GMJ_IVECC2_D_3_.csv /lustre/isaac/scratch/gjones39/scpfiles/ANO-RCC-VTZP/ozone_119.00/GMJ_IVECC2_D_3_.csv

>>> COPY /lustre/isaac/scratch/gjones39/scpfiles/ANO-RCC-VTZP/ozone_119.00/3252711/GMJ_e2_D_3_.csv /lustre/isaac/scratch/gjones39/scpfiles/ANO-RCC-VTZP/ozone_119.00/GMJ_e2_D_3_.csv

>>> END FOREACH

>>> END FOREACH

    Timing: Wall=65.68 User=42.25 System=20.32
****************************************************************************************************
*** WorkDir at /lustre/isaac/scratch/gjones39/scpfiles/ANO-RCC-VTZP/ozone_119.00/3252711 cleaned ***
****************************************************************************************************
