   This run of MOLCAS is using the pymolcas driver

                             OPE
                             OPE          NMOL  CASOP  ENMOLC A   SO
                 OPE        NMOLC        AS  OP EN  MO LC     AS  OP
                OPENM       OL CA        SO  PE NM  OL CA     SOP EN
                OP EN      MO   LC       AS  OP ENMOL  CASO   PENMOL
                OP  EN     MO   LC       AS  OP EN     MO     LC ASO
               OP   E  NMOL  C  AS       OP  EN MO     LC     AS  OP
               OP  E   NMO   LC AS        OPEN  MO     LCASOP EN   M
               O  PEN   MO  LCA  SO
            OPE   NMO   L   CAS    OP
        OPENMOL  CASOP     ENMOL   CASOPE
     OPENMOLCA   SOPENMOLCASOPEN   MOLCASOPE
    OPENMOLCAS   OP           EN   MOL    CAS
    OPENMOLCAS       OP  ENM        O     LCA
    OPENMOLCAS    OPEN  MOLCASO     P  E  NMO
    OPENMOLCAS     OP               E  N  MOL
    OPENMOLCA   SO           PENM   O  L  CAS    OPEN    MO    LCAS
    OPENMOLCA   SOP           ENM   O  L  CAS   OP  EN  MOLC  AS   O
    OPENMOLCA   SOPE           NM      O  LCA   S      OP  EN MO
    OPENMOLC                AS         O  PEN   M      OL  CA  SOPE
    OPENMO        LCASOPE  NMOL        C  ASO   P      ENMOLC     AS
    OPE     NMO      LCA  SO     P     E   NM   OL  CA SO  PE N   MO
          OPENMOLCA            SOPE   NMO        LCAS  O    P  ENMO
     OPENMOLCASOPENMOLCASOPENMOLCASOPENMOLCA
        OPENMOLCASOPENMOLCASOPENMOLCASOPE
            OPENMOLCASOPENMOLCASOPENM
               OPENMOLCASOPENMOLCA        version: 1d1d16313-dirty
                   OPENMOLCASO
                       OPE                tag:

 OpenMolcas is free software; you can redistribute it and/or modify it
 under the terms of the GNU Lesser General Public License version 2.1.
 OpenMolcas is distributed in the hope that it will be useful, but it
 is provided "as is" and without any express or implied warranties.
 For more details see the full text of the license in the file
 LICENSE or in <http://www.gnu.org/licenses/>.

                 Copyright (C) The OpenMolcas Authors
           For the author list and the recommended citation,
                   consult the file CONTRIBUTORS.md

           *************************************************
           * pymolcas version py2.28                       *
           *   build c4a6d18ded8cb6cad61d2372a9abd97c      *
           *   (after the EMIL interpreter by V. Veryazov) *
           *************************************************

configuration info
------------------
C Compiler ID: IntelLLVM
C flags: -std=gnu99
Fortran Compiler ID: IntelLLVM
Fortran flags: -standard-semantics -fltconsistency -fpp -i8 -heap-arrays
Definitions: _MOLCAS_;_I8_;_LINUX_
Parallel: OFF (GA=OFF)


   ------------------------------------------------------------------------------
  |
  |              Project: ozone_117.50
  |       Submitted from: /home/grierjones/DDCASPT2/ozone/ANO-RCC-MB/ozone_117.50
  |         Scratch area: /tmp/ozone_117.50
  |      Save outputs to: /home/grierjones/DDCASPT2/ozone/ANO-RCC-MB/ozone_117.50
  |               Molcas: /home/grierjones/Test/build
  |
  | Scratch area is empty
  |
  |       MOLCAS_DRIVER = /usr/local/pymolcas
  | MOLCAS_KEEP_WORKDIR = NO
  |  MOLCAS_NEW_WORKDIR = YES
  |       MOLCAS_NPROCS = 1
  |        MOLCAS_PRINT = NORMAL
  |       MOLCAS_SOURCE = /home/grierjones/Test
  |    MOLCAS_STRUCTURE = 0
  |
   ------------------------------------------------------------------------------

++ ---------   Input file   ---------

&GATEWAY
coord=ozone_117.50.xyz
Basis = ANO-RCC-MB
Group = nosymm
Expert
End of Input

&SEWARD
End of Input

&SCF

>>> COPY $WorkDir/ozone_117.50.scf.h5 $CurrDir/

&RASSCF
Title= RASSCF
FileOrb
/home/grierjones/DDCASPT2/ozone/ANO-RCC-MB/ozone_117.25/ozone_117.25.RasOrb
NACTEL
4 0 0
Inactive
10
RAS2
3
Symmetry
1
Spin
1
orblisting
all
ITERation
300 200

>>> COPY $WorkDir/ozone_117.50.rasscf.h5 $CurrDir/

>>> COPY $WorkDir/GMJ_Fock_MO.csv $CurrDir/ozone_117.50.GMJ_Fock_MO.csv

>>> COPY $WorkDir/GMJ_PT2_Fock_MO.csv $CurrDir/ozone_117.50.GMJ_PT2_Fock_MO.csv

&MOTRA
Frozen=0
LUMORB

>>> COPY $WorkDir/GMJ_one_int_indx.csv $CurrDir/ozone_117.50.GMJ_one_int_indx.csv

>>> COPY $WorkDir/GMJ_one_int.csv $CurrDir/ozone_117.50.GMJ_one_int.csv

>>> COPY $WorkDir/GMJ_two_int_indx.csv $CurrDir/ozone_117.50.GMJ_two_int_indx.csv

>>> COPY $WorkDir/GMJ_two_int.csv $CurrDir/ozone_117.50.GMJ_two_int.csv

&CASPT2
Frozen
0
MAXITER
50

>>> FOREACH i IN (B,E,F,G,H)

  >>> FOREACH j IN (P,M)

    >>> IF (-FILE GMJ_e2_${i}_${j}.csv)

      >>> COPY $WorkDir/GMJ_RHS_${i}_${j}.csv $CurrDir/GMJ_RHS_${i}_${j}.csv

      >>> COPY $WorkDir/GMJ_IVECW_${i}_${j}.csv $CurrDir/GMJ_IVECW_${i}_${j}.csv

      >>> COPY $WorkDir/GMJ_IVECX_${i}_${j}.csv $CurrDir/GMJ_IVECX_${i}_${j}.csv

      >>> COPY $WorkDir/GMJ_IVECC2_${i}_${j}.csv $CurrDir/GMJ_IVECC2_${i}_${j}.csv

      >>> COPY $WorkDir/GMJ_e2_${i}_${j}.csv $CurrDir/GMJ_e2_${i}_${j}.csv

    >>> END IF

  >>> END FOREACH

>>> END FOREACH

>>> FOREACH i IN (A,C,D)

  >>> IF (-FILE GMJ_e2_$i.csv)

    >>> COPY $WorkDir/GMJ_RHS_$i.csv $CurrDir/GMJ_RHS_$i.csv

    >>> COPY $WorkDir/GMJ_IVECW_$i.csv $CurrDir/GMJ_IVECW_$i.csv

    >>> COPY $WorkDir/GMJ_IVECX_$i.csv $CurrDir/GMJ_IVECX_$i.csv

    >>> COPY $WorkDir/GMJ_IVECC2_$i.csv $CurrDir/GMJ_IVECC2_$i.csv

    >>> COPY $WorkDir/GMJ_e2_$i.csv $CurrDir/GMJ_e2_$i.csv

  >>> END IF

>>> END FOREACH

-- ----------------------------------

--- Start Module: gateway at Sat Jan 25 14:02:20 2025 ---
 
()()()()()()()()()()()()()()()()()()()()()()()()()()()()()()()()()()()()()()()()()()()()()()()()()()

                                              &GATEWAY

                                   only a single process is used
                       available to each process: 2.0 GB of memory, 1 thread?
()()()()()()()()()()()()()()()()()()()()()()()()()()()()()()()()()()()()()()()()()()()()()()()()()()
 
 ###############################################################################
 ###############################################################################
 ###                                                                         ###
 ###                                                                         ###
 ###                                                                         ###
 ###    WARNING: EXPERT option is ON!                                        ###
 ###                                                                         ###
 ###                                                                         ###
 ###############################################################################
 ###############################################################################
 
++    Symmetry information:
      ---------------------
 
                    Character Table for C1 
 
                             E  
                    a        1  x, y, xy, Rz, z, xz, Ry, yz, Rx, I
--
 
 
++    Basis set information:
      ----------------------
 
 
      Basis set label: O.ANO-RCC...2S1P.
 
      Electronic valence basis set:
      ------------------
      Associated Effective Charge   8.000000 au
      Associated Actual Charge      8.000000 au
      Nuclear Model: Point charge
 
      Shell  nPrim  nBasis  Cartesian Spherical Contaminant
         s      14       2        X                  
         p       9       1        X                  
--
 
 
++    Molecular structure info:
      -------------------------
 
                    ************************************************ 
                    **** Cartesian Coordinates / Bohr, Angstrom **** 
                    ************************************************ 
 
     Center  Label                x              y              z                     x              y              z
        1      O1               1.252873       2.064671       0.000000              0.662992       1.092577       0.000000
        2      O2               0.000000       0.000000       0.000000              0.000000       0.000000       0.000000
        3      O3               1.252873      -2.064671       0.000000              0.662992      -1.092577       0.000000
 
                    *************************************** 
                    *    InterNuclear Distances / Bohr    * 
                    *************************************** 
 
               1 O1            2 O2            3 O3    
    1 O1       0.000000
    2 O2       2.415069        0.000000
    3 O3       4.129343        2.415069        0.000000
 
                    ******************************************* 
                    *    InterNuclear Distances / Angstrom    * 
                    ******************************************* 
 
               1 O1            2 O2            3 O3    
    1 O1       0.000000
    2 O2       1.278000        0.000000
    3 O3       2.185154        1.278000        0.000000
 
                    ************************************** 
                    *    Valence Bond Angles / Degree    * 
                    ************************************** 
                          Atom centers                 Phi
                      1 O1       2 O2       3 O3       117.50
--
 
 
            Nuclear Potential Energy             68.49938745 au
 
 ###############################################################################
 ###############################################################################
 ###                                                                         ###
 ###                                                                         ###
 ###    There were warnings during the execution                             ###
 ###    Please, check the output with care!                                  ###
 ###                                                                         ###
 ###                                                                         ###
 ###############################################################################
 ###############################################################################
--- Stop Module: gateway at Sat Jan 25 14:02:20 2025 /rc=_RC_ALL_IS_WELL_ ---
*** files: xmldump
    saved to directory /home/grierjones/DDCASPT2/ozone/ANO-RCC-MB/ozone_117.50

--- Start Module: seward at Sat Jan 25 14:02:20 2025 ---
 
()()()()()()()()()()()()()()()()()()()()()()()()()()()()()()()()()()()()()()()()()()()()()()()()()()

                                              &SEWARD

                                   only a single process is used
                       available to each process: 2.0 GB of memory, 1 thread?
()()()()()()()()()()()()()()()()()()()()()()()()()()()()()()()()()()()()()()()()()()()()()()()()()()
 
 ###############################################################################
 ###############################################################################
 ###                                                                         ###
 ###                                                                         ###
 ###                                                                         ###
 ###    WARNING: EXPERT option is ON!                                        ###
 ###                                                                         ###
 ###                                                                         ###
 ###############################################################################
 ###############################################################################
               SEWARD will generate:
                  Multipole Moment integrals up to order  2
                  Kinetic Energy integrals
                  Nuclear Attraction integrals (point charge)
                  One-Electron Hamiltonian integrals
                  Velocity integrals
                  Relativistic Douglas-Kroll-Hess integrals:
                    - Parametrization         : EXP
                    - DKH order of Hamiltonian: 2
                    - DKH order of Properties : 0
                         - multipole moment operators
                         - electric potential operators
                         - contact operators
                  Atomic mean-field integrals
                  Two-Electron Repulsion integrals
 
                   Integrals are discarded if absolute value <: 0.10E-13
                   Integral cutoff threshold is set to       <: 0.10E-15
 
            Nuclear Potential Energy             68.49938745 au
 
 
      Basis set specifications :
      Symmetry species         a  
      Basis functions           15
 
 
  Input file to MOLDEN was generated!
 
 ###############################################################################
 ###############################################################################
 ###                                                                         ###
 ###                                                                         ###
 ###    There were warnings during the execution                             ###
 ###    Please, check the output with care!                                  ###
 ###                                                                         ###
 ###                                                                         ###
 ###############################################################################
 ###############################################################################
forrtl: warning (525): IEEE_DIVIDE_BY_ZERO is signaling
forrtl: warning (526): IEEE_INVALID is signaling
forrtl: warning (528): IEEE_UNDERFLOW is signaling
--- Stop Module: seward at Sat Jan 25 14:02:21 2025 /rc=_RC_ALL_IS_WELL_ ---
*** files: ozone_117.50.GssOrb ozone_117.50.guessorb.h5 ozone_117.50.guessorb.molden xmldump
    saved to directory /home/grierjones/DDCASPT2/ozone/ANO-RCC-MB/ozone_117.50

*** symbolic link created: INPORB -> ozone_117.50.GssOrb
--- Start Module: scf at Sat Jan 25 14:02:21 2025 ---
 
()()()()()()()()()()()()()()()()()()()()()()()()()()()()()()()()()()()()()()()()()()()()()()()()()()

                                                &SCF

                                   only a single process is used
                       available to each process: 2.0 GB of memory, 1 thread?
()()()()()()()()()()()()()()()()()()()()()()()()()()()()()()()()()()()()()()()()()()()()()()()()()()
 
++    Input section:
      --------------
 
      Header of the integral files:
      
       Integrals generated by seward 4.2.0  , Sat Jan 25 14:02:20 2025
 
 
      Cartesian coordinates in Angstrom:
      -----------------------------------------------------
      No.  Label        X            Y            Z        
      -----------------------------------------------------
       1   O1         0.66299200   1.09257700   0.00000000
       2   O2         0.00000000   0.00000000   0.00000000
       3   O3         0.66299200  -1.09257700   0.00000000
      -----------------------------------------------------
      Nuclear repulsion energy =   68.49938745
--
 
++    Orbital specifications:
      -----------------------
 
      Symmetry species               1
                                     a
      Frozen orbitals                0
      Occupied orbitals             12
      Secondary orbitals             3
      Deleted orbitals               0
      Total number of orbitals      15
      Number of basis functions     15
--
 
      Molecular charge                           0.000
 
++    Optimization specifications:
      ----------------------------
 
      SCF Algorithm: Conventional
      Minimized density differences are used
      Number of density matrices in core                5
      Maximum number of NDDO SCF iterations           400
      Maximum number of HF SCF iterations             400
      Threshold for SCF energy change            0.10E-08
      Threshold for density matrix               0.10E-03
      Threshold for Fock matrix                  0.15E-03
      Threshold for linear dependence            0.10E-08
      Threshold at which DIIS is turned on       0.15E+00
      Threshold at which QNR/C2DIIS is turned on 0.75E-01
      Threshold for Norm(delta) (QNR/C2DIIS)     0.20E-04
      DIIS extrapolation of the SCF procedure
      All orbitals punched on: SCFORB
--
 
      Input vectors read from INPORB
      Orbital file label: *Guess orbitals
 
 
++ Convergence information
                                   SCF        iterations: Energy and convergence statistics
 
Iter     Tot. SCF        One-elec.       Two-elec.     Energy      Max Dij or  Max Fij      DNorm      TNorm      AccCon     Time
         Energy          Energy          Energy        Change      Delta Norm                                                in Sec.
   1  -223.885968299  -440.673825784   148.288470036   0.00E+00    0.63E+00*   0.27E+00*    0.74E+01   0.50E+02   None         0.
   2  -224.150392582  -443.640823640   150.991043608  -0.26E+00*   0.43E+00*   0.15E+00*    0.24E+01   0.50E+02   EDIIS        0.
   3  -224.209695684  -442.280793874   149.571710741  -0.59E-01*   0.13E+00*   0.80E-01*    0.54E+00   0.50E+02   EDIIS        0.
   4  -224.243509061  -443.056803225   150.313906716  -0.34E-01*   0.14E-01*   0.23E-01*    0.92E-01   0.50E+02   c2DIIS       0.
   5  -224.248142109  -442.862308304   150.114778746  -0.46E-02*   0.48E-02*   0.30E-02*    0.16E-01   0.50E+02   QNRc2DIIS    0.
   6  -224.248203806  -442.867029469   150.119438213  -0.62E-04*   0.74E-02*   0.16E-02*    0.64E-02   0.50E+02   QNRc2DIIS    0.
   7  -224.248238010  -442.865091065   150.117465606  -0.34E-04*   0.97E-03*   0.85E-03*    0.42E-02   0.50E+02   QNRc2DIIS    0.
   8  -224.248239812  -442.868599799   150.120972538  -0.18E-05*   0.56E-03*   0.30E-03*    0.32E-03   0.50E+02   QNRc2DIIS    0.
   9  -224.248240295  -442.867001222   150.119373478  -0.48E-06*   0.45E-04*   0.25E-04     0.79E-04   0.50E+02   QNRc2DIIS    0.
  10  -224.248240298  -442.867065728   150.119437982  -0.31E-08*   0.25E-05    0.22E-05     0.36E-04   0.50E+02   QNRc2DIIS    0.
  11  -224.248240298  -442.867063129   150.119435382  -0.16E-10    0.75E-06    0.55E-06     0.17E-03   0.50E+02   QNRc2DIIS    0.
 
       Convergence after 11 Macro Iterations
--
 
 *****************************************************************************************************************************
 *                                                                                                                           *
 *                                             SCF/KS-DFT Program, Final results                                             *
 *                                                                                                                           *
 *                                                                                                                           *
 *                                                                                                                           *
 *                                                       Final Results                                                       *
 *                                                                                                                           *
 *****************************************************************************************************************************
 
::    Total SCF energy                               -224.2482402977
      One-electron energy                            -442.8670631290
      Two-electron energy                             150.1194353823
      Nuclear repulsion energy                         68.4993874491
      Kinetic energy (interpolated)                   224.7923433562
      Virial theorem                                    0.9975795303
      Total spin, S(S+1)                                0.0000000000
      Total spin, S                                     0.0000000000
      Max non-diagonal density matrix element           0.0000008575
      Max non-diagonal Fock matrix element              0.0000001248
 
 
      All orbitals with orbital energies smaller than  E(LUMO)+0.5 are printed
 
++    Molecular orbitals:
      -------------------
 
      Title: SCF orbitals

      Molecular orbitals for symmetry species 1: a  
 
          Orbital            1         2         3         4         5         6         7         8         9        10    
          Energy          -21.0640  -20.7896  -20.7895   -1.8107   -1.4789   -1.1358   -0.8650   -0.8321   -0.8182   -0.6133
          Occ. No.          2.0000    2.0000    2.0000    2.0000    2.0000    2.0000    2.0000    2.0000    2.0000    2.0000
 
        1 O1     1s         0.0010   -0.7071    0.7071   -0.0195    0.0125    0.0087   -0.0179   -0.0000   -0.0240    0.0031
        2 O1     2s        -0.0004   -0.0003    0.0001    0.2843   -0.5697    0.5899   -0.3078   -0.0000   -0.4313    0.0503
        3 O1     2px       -0.0001    0.0007   -0.0007   -0.0588    0.0544    0.0886    0.1411   -0.0000   -0.3387   -0.5177
        4 O1     2py        0.0002    0.0012   -0.0010   -0.0930    0.0969    0.0716   -0.3266    0.0000   -0.2478    0.5243
        5 O1     2pz       -0.0000    0.0000    0.0000   -0.0000    0.0000    0.0000    0.0000    0.3403   -0.0000    0.0000
        6 O2     1s         1.0000    0.0000   -0.0017   -0.0231   -0.0000   -0.0161   -0.0073    0.0000   -0.0000   -0.0000
        7 O2     2s         0.0000    0.0000   -0.0011    0.6525   -0.0000   -0.6659   -0.0837    0.0000    0.0000   -0.0000
        8 O2     2px        0.0015    0.0000   -0.0002    0.1567   -0.0000    0.2286    0.7010   -0.0000    0.0000    0.0000
        9 O2     2py        0.0000    0.0006    0.0000   -0.0000   -0.3399    0.0000   -0.0000    0.0000    0.5959   -0.1595
       10 O2     2pz       -0.0000    0.0000    0.0000    0.0000    0.0000    0.0000    0.0000    0.7388   -0.0000   -0.0000
       11 O3     1s         0.0010    0.7071    0.7071   -0.0195   -0.0125    0.0087   -0.0179    0.0000    0.0240   -0.0031
       12 O3     2s        -0.0004    0.0003    0.0001    0.2843    0.5697    0.5899   -0.3078    0.0000    0.4313   -0.0503
       13 O3     2px       -0.0001   -0.0007   -0.0007   -0.0588   -0.0544    0.0886    0.1411    0.0000    0.3387    0.5177
       14 O3     2py       -0.0002    0.0012    0.0010    0.0930    0.0969   -0.0716    0.3266   -0.0000   -0.2478    0.5243
       15 O3     2pz       -0.0000    0.0000    0.0000    0.0000    0.0000    0.0000    0.0000    0.3403   -0.0000   -0.0000
 
          Orbital           11        12        13        14        15    
          Energy           -0.5935   -0.5237   -0.1078    0.2496    0.3700
          Occ. No.          2.0000    2.0000    0.0000    0.0000    0.0000
 
        1 O1     1s         0.0074    0.0000   -0.0000   -0.0271   -0.0448
        2 O1     2s         0.0658    0.0000   -0.0000   -0.3140   -0.4302
        3 O1     2px        0.6473   -0.0000    0.0000    0.2803    0.4516
        4 O1     2py       -0.1545   -0.0000    0.0000    0.6814    0.5246
        5 O1     2pz       -0.0000   -0.7237    0.6379   -0.0000   -0.0000
        6 O2     1s         0.0174   -0.0000    0.0000    0.0833    0.0000
        7 O2     2s         0.2096   -0.0000    0.0000    0.8244    0.0000
        8 O2     2px       -0.5176    0.0000    0.0000    0.6177    0.0000
        9 O2     2py       -0.0000   -0.0000    0.0000   -0.0000    1.0003
       10 O2     2pz       -0.0000   -0.0000   -0.7396    0.0000   -0.0000
       11 O3     1s         0.0074   -0.0000   -0.0000   -0.0271    0.0448
       12 O3     2s         0.0658    0.0000   -0.0000   -0.3140    0.4302
       13 O3     2px        0.6473   -0.0000   -0.0000    0.2803   -0.4516
       14 O3     2py        0.1545    0.0000   -0.0000   -0.6814    0.5246
       15 O3     2pz        0.0000    0.7237    0.6379    0.0000   -0.0000
--
 
 
++    Molecular charges:
      ------------------
 
      Mulliken charges per centre and basis function type
      ---------------------------------------------------
 
                O1      O2      O3    
      1s       2.0001  2.0001  2.0001
      2s       1.9166  1.7740  1.9166
      2px      1.6824  1.6562  1.6824
      2pz      1.3482  1.3036  1.3482
      2py      1.1162  1.1391  1.1162
      Total    8.0635  7.8730  8.0635
 
      N-E     -0.0635  0.1270 -0.0635
 
      Total electronic charge=   24.000000
 
      Total            charge=   -0.000000
--
 
 
  Input file to MOLDEN was generated!
 
 
++    Static properties:
      ------------------
 
 
      LoProp Charges per center
 

                   O1       O2       O3    
      Nuclear      8.0000   8.0000   8.0000
      Electronic  -8.1117  -7.7766  -8.1117
 
      Total       -0.1117   0.2234  -0.1117
--
 
 
++    Natural Bond Order analysis
      ---------------------------
      Based on LoProp computed density
      -------------------------------------------------------------------------------------
      Atom A       Atom B       Bond Order | Atom A       Atom B       Bond Order
        O1           O2             2.000  |   O2           O3             2.000
      -------------------------------------------------------------------------------------
      NBO located     12.000 core electrons.
      NBO located      3.955 lone pair electrons.
      NBO located      8.000 electrons involved in    2 bonds.
      The remaining    0.045 electrons are to be considered as diffuse
--
 
 
++    Molecular properties:
      ---------------------
 
      Charge (e):
                      =   -0.0000
      Dipole Moment (Debye):
      Origin of the operator (Ang)=    0.0000    0.0000    0.0000
                   X= -2.7059E-01               Y= -5.5680E-11               Z= -6.9449E-14           Total=  2.7059E-01
      Quadrupole Moment (Debye*Ang):
      Origin of the operator (Ang)=    0.4420    0.0000    0.0000
                  XX= -1.7320E+01              XY= -5.6986E-11              XZ= -4.6897E-15              YY= -1.8472E+01
                  YZ= -6.9621E-14              ZZ= -1.5754E+01
      In traceless form (Debye*Ang)
                  XX= -2.0700E-01              XY= -8.5479E-11              XZ= -7.0345E-15              YY= -1.9355E+00
                  YZ= -1.0443E-13              ZZ=  2.1425E+00
--
 
 
  Input file to MOLDEN was generated!
 
 ###############################################################################
 ###############################################################################
 ###                                                                         ###
 ###                                                                         ###
 ###    RunFile label nBas                                                   ###
 ###    was used       78 times                                              ###
 ###                                                                         ###
 ###                                                                         ###
 ###############################################################################
 ###############################################################################
forrtl: warning (528): IEEE_UNDERFLOW is signaling
--- Stop Module: scf at Sat Jan 25 14:02:21 2025 /rc=_RC_ALL_IS_WELL_ ---
*** files: ozone_117.50.LprOrb ozone_117.50.LoProp.molden ozone_117.50.scf.molden ozone_117.50.ScfOrb ozone_117.50.scf.h5 xmldump
    saved to directory /home/grierjones/DDCASPT2/ozone/ANO-RCC-MB/ozone_117.50

>>> COPY /tmp/ozone_117.50/ozone_117.50.scf.h5 /home/grierjones/DDCASPT2/ozone/ANO-RCC-MB/ozone_117.50/

*** symbolic link created: INPORB -> ozone_117.50.ScfOrb
--- Start Module: rasscf at Sat Jan 25 14:02:21 2025 ---
 
()()()()()()()()()()()()()()()()()()()()()()()()()()()()()()()()()()()()()()()()()()()()()()()()()()

                                              &RASSCF

                                   only a single process is used
                       available to each process: 2.0 GB of memory, 1 thread?
()()()()()()()()()()()()()()()()()()()()()()()()()()()()()()()()()()()()()()()()()()()()()()()()()()
 
 
 *************** WARNING ****************
 ###############################################################################
 ###############################################################################
 ###                                                                         ###
 ###                                                                         ###
 ###    Too many macro-iterations.                                           ###
 ###                                                                         ###
 ###                                                                         ###
 ###############################################################################
 ###############################################################################
 Too many macro-iterations requested.
 Reset to maximum, new MAXIT=     200
 ****************************************
 
 *************** WARNING ****************
 ###############################################################################
 ###############################################################################
 ###                                                                         ###
 ###                                                                         ###
 ###    Too many SX-iterations.                                              ###
 ###                                                                         ###
 ###                                                                         ###
 ###############################################################################
 ###############################################################################
 Too many SX-iterations requested.
 Reset to maximum, new ITMAX=     100
 ****************************************
 
      Header of the ONEINT file:
      --------------------------
      
      Integrals generated by seward 4.2.0  , Sat Jan 25 14:02:20 2025
 
 
      OrdInt status: non-squared
 
 
      Cartesian coordinates in Angstrom:
      -----------------------------------------------------
      No.  Label        X            Y            Z        
      -----------------------------------------------------
       1   O1         0.66299200   1.09257700   0.00000000
       2   O2         0.00000000   0.00000000   0.00000000
       3   O3         0.66299200  -1.09257700   0.00000000
      -----------------------------------------------------
      Nuclear repulsion energy =   68.49938745
 
++    Wave function specifications:
      -----------------------------
 
      Number of closed shell electrons          20
      Number of electrons in active shells       4
      Max number of holes in RAS1 space          0
      Max nr of electrons in RAS3 space          0
      Number of inactive orbitals               10
      Number of active orbitals                  3
      Number of secondary orbitals               2
      Spin quantum number                      0.0
      State symmetry                             1
--
 
++    Orbital specifications:
      -----------------------
 
      Symmetry species                           1
                                                 a
      Frozen orbitals                            0
      Inactive orbitals                         10
      Active orbitals                            3
      RAS1 orbitals                              0
      RAS2 orbitals                              3
      RAS3 orbitals                              0
      Secondary orbitals                         2
      Deleted orbitals                           0
      Number of basis functions                 15
--
 
++    CI expansion specifications:
      ----------------------------
 
      Number of CSFs                             6
      Number of determinants                     6
      Number of root(s) required                 1
      Root chosen for geometry opt.              1
      CI root used                               1
         
      highest root included in the CI            1
      max. size of the explicit Hamiltonian      6
--
 
++    Optimization specifications:
      ----------------------------
 
      RASSCF algorithm: Conventional
      Maximum number of macro iterations       200
      Maximum number of SX iterations          100
      Threshold for RASSCF energy            0.100E-07
      Threshold for max MO rotation          0.100E+00
      Threshold for max BLB element          0.100E-03
      Level shift parameter                  0.500E+00
      Make Quasi-Newton update
--
 
      The MO-coefficients are taken from the file:
      /home/grierjones/DDCASPT2/ozone/ANO-RCC-MB/ozone_117.25/ozone_117.25.RasOrb                                                     
      Title: RASSCF average (pseudo-natural) orbitals                                      
 
      Total molecular charge    0.00
 
      ************************************************************************************************************************
      *                                                                                                                      *
      *                                            Wave function control section                                             *
      *                                                                                                                      *
      ************************************************************************************************************************
 
 
                                         RASSCF iterations: Energy and convergence statistics
                                         ----------------------------------------------------
 
      Iter CI   SX   CI       RASSCF       Energy    max ROT     max BLB   max BLB  Level Ln srch  Step   QN   Walltime
          iter iter root      energy       change     param      element    value   shift minimum  type update hh:mm:ss
 Nr of preliminary CI iterations:   1
        1   1    3    1  -224.36755394    0.00E+00  -0.63E-03    7  14 1 -0.17E-02*  0.23   0.00    SX    NO    0:00:00
        2   1    3    1  -224.36755766   -0.37E-05*  0.33E-03    9  15 1  0.83E-03*  0.23   0.00    SX    NO    0:00:00
        3   1    3    1  -224.36755889   -0.12E-05* -0.21E-03    7  14 1 -0.54E-03*  0.23   0.00    SX    NO    0:00:00
        4   1    3    1  -224.36755935   -0.46E-06*  0.12E-03    9  15 1  0.31E-03*  0.23   0.00    SX    NO    0:00:00
        5   1    2    1  -224.36755951   -0.17E-06*  0.18E-03    9  15 1  0.19E-03*  0.23   2.50    LS   YES    0:00:00
        6   1    2    1  -224.36755962   -0.10E-06*  0.26E-04    4  14 1 -0.37E-04   0.23   1.07    QN   YES    0:00:00
        7   1    2    1  -224.36755962   -0.22E-08  -0.15E-04   10  14 1 -0.16E-04   0.23   1.38    QN   YES    0:00:00
      Convergence after  7 iterations
 
  Dmat in MO in SXCTL bf call to SXHAM                                                                                    
  mat. size =     3x    3
 
        1.9930526627027321
        0.0000000000005292      1.5053519521340957
        0.0005724311362282      0.0000000000006107      0.5015953851631719
        8   1    2    1  -224.36755962   -0.49E-09  -0.15E-04    7  14 1  0.40E-05   0.23   1.38    QN   YES    0:00:00
 
      ************************************************************************************************************************
                                                      Wave function printout:
                       occupation of active orbitals, and spin coupling of open shells (u,d: Spin up or down)
      ************************************************************************************************************************
 
      Note: transformation to natural orbitals
      has been made, which may change the order of the CSFs.
 
      printout of CI-coefficients larger than  0.05 for root  1
      energy=    -224.367560
      conf/sym  111     Coeff  Weight
             1  220  -0.86556 0.74920
             3  202   0.49732 0.24732
             6  022   0.05894 0.00347
 
      Natural orbitals and occupation numbers for root  1
      sym 1:   1.993053   1.505352   0.501595
 
      ************************************************************************************************************************
      *                                                                                                                      *
      *                                                    Final results                                                     *
      *                                                                                                                      *
      ************************************************************************************************************************
 
 
++    Wave function specifications:
      -----------------------------
 
      Number of closed shell electrons          20
      Number of electrons in active shells       4
      Max number of holes in RAS1 space          0
      Max nr of electrons in RAS3 space          0
      Number of inactive orbitals               10
      Number of active orbitals                  3
      Number of secondary orbitals               2
      Spin quantum number                      0.0
      State symmetry                             1
--
 
++    Orbital specifications:
      -----------------------
 
      Symmetry species                           1
                                                 a
      Frozen orbitals                            0
      Inactive orbitals                         10
      Active orbitals                            3
      RAS1 orbitals                              0
      RAS2 orbitals                              3
      RAS3 orbitals                              0
      Secondary orbitals                         2
      Deleted orbitals                           0
      Number of basis functions                 15
--
 
++    CI expansion specifications:
      ----------------------------
 
      Number of CSFs                             6
      Number of determinants                     6
      Number of root(s) required                 1
      CI root used                               1
      highest root included in the CI            1
      Root passed to geometry opt.               1
--
 
++    Final optimization conditions:
      ------------------------------
 
      Average CI energy                            -224.36755962
      RASSCF energy for state  1                   -224.36755962
      Super-CI energy                                -0.00000000
      RASSCF energy change                           -0.00000000
      Max change in MO coefficients               0.123E-04
      Max non-diagonal density matrix element    -0.149E-04
      Maximum BLB matrix element                  0.399E-05
      (orbital pair   7,  14 in symmetry   1)
      Norm of electronic gradient            0.695E-05
--
 
 
      Final state energy(ies):
      ------------------------
 
::    RASSCF root number  1 Total energy:   -224.36755962
 
++    Molecular orbitals:
      -------------------
 
      Pseudonatural active orbitals and approximate occupation numbers
 
 
 
 
      Molecular orbitals for symmetry species 1: a  
 
 
      Orbital                1         2         3         4         5         6         7         8         9        10
      Energy          -20.9303  -20.8205  -20.8205   -1.7778   -1.4719   -1.1219   -0.8338   -0.8082   -0.6283   -0.5864
      Occ. No.          2.0000    2.0000    2.0000    2.0000    2.0000    2.0000    2.0000    2.0000    2.0000    2.0000
 
    1 O1     1s         0.0022   -0.7071    0.7071   -0.0186    0.0105    0.0109   -0.0148   -0.0213    0.0028    0.0075
    2 O1     2s        -0.0006   -0.0003    0.0000    0.3149   -0.5948    0.5993   -0.2353   -0.3791    0.0497    0.0580
    3 O1     2px       -0.0001    0.0006   -0.0006   -0.0611    0.0528    0.1062    0.2151   -0.3833   -0.4995    0.6349
    4 O1     2py        0.0003    0.0012   -0.0010   -0.1017    0.0966    0.1061   -0.3663   -0.2719    0.5414   -0.0811
    5 O1     2pz       -0.0000    0.0000    0.0000    0.0000    0.0000    0.0000   -0.0000    0.0000    0.0000   -0.0000
    6 O2     1s         1.0000    0.0000   -0.0035   -0.0255   -0.0000   -0.0125   -0.0100   -0.0000    0.0000    0.0233
    7 O2     2s         0.0005    0.0000   -0.0011    0.6087   -0.0000   -0.6639   -0.1482   -0.0000    0.0000    0.2963
    8 O2     2px        0.0019    0.0000   -0.0002    0.1544   -0.0000    0.1505    0.6182    0.0000   -0.0000   -0.5728
    9 O2     2py        0.0000    0.0006    0.0000   -0.0000   -0.2954    0.0000   -0.0000    0.5353   -0.1546    0.0000
   10 O2     2pz        0.0000    0.0000   -0.0000    0.0000    0.0000    0.0000    0.0000    0.0000    0.0000   -0.0000
   11 O3     1s         0.0022    0.7071    0.7071   -0.0186   -0.0105    0.0109   -0.0148    0.0213   -0.0028    0.0075
   12 O3     2s        -0.0006    0.0003    0.0000    0.3149    0.5948    0.5993   -0.2353    0.3791   -0.0497    0.0580
   13 O3     2px       -0.0001   -0.0006   -0.0006   -0.0611   -0.0528    0.1062    0.2151    0.3833    0.4995    0.6349
   14 O3     2py       -0.0003    0.0012    0.0010    0.1017    0.0966   -0.1061    0.3663   -0.2719    0.5414    0.0811
   15 O3     2pz        0.0000    0.0000    0.0000    0.0000    0.0000    0.0000    0.0000    0.0000    0.0000    0.0000
 
 
      Orbital               11        12        13        14        15
      Energy            0.0000    0.0000    0.0000    0.2561    0.4035
      Occ. No.          1.9931    1.5054    0.5016    0.0000    0.0000
 
    1 O1     1s         0.0000   -0.0000   -0.0000   -0.0288   -0.0467
    2 O1     2s         0.0000    0.0000   -0.0000   -0.3306   -0.4453
    3 O1     2px        0.0000   -0.0000    0.0000    0.2538    0.4364
    4 O1     2py       -0.0000   -0.0000   -0.0000    0.6680    0.4944
    5 O1     2pz        0.2190   -0.7237    0.6890   -0.0000   -0.0000
    6 O2     1s        -0.0000   -0.0000    0.0000    0.0812    0.0000
    7 O2     2s         0.0000   -0.0000    0.0000    0.8240    0.0000
    8 O2     2px       -0.0000    0.0000    0.0000    0.6788    0.0000
    9 O2     2py       -0.0000   -0.0000    0.0000   -0.0000    1.0483
   10 O2     2pz        0.8607   -0.0000   -0.5933    0.0000    0.0000
   11 O3     1s        -0.0000    0.0000   -0.0000   -0.0288    0.0467
   12 O3     2s        -0.0000   -0.0000   -0.0000   -0.3306    0.4453
   13 O3     2px       -0.0000   -0.0000   -0.0000    0.2538   -0.4364
   14 O3     2py       -0.0000   -0.0000   -0.0000   -0.6680    0.4944
   15 O3     2pz        0.2190    0.7237    0.6890   -0.0000   -0.0000
--
 
      Von Neumann Entropy (Root  1) =  0.81397
 

      Mulliken population analysis for root number:  1
      -----------------------------------------------
 
 
++    Molecular charges:
      ------------------
 
      Mulliken charges per centre and basis function type
      ---------------------------------------------------
 
                O1      O2      O3    
      1s       2.0001  2.0002  2.0001
      2s       1.9072  1.7606  1.9072
      2px      1.7321  1.5468  1.7321
      2pz      1.1375  1.7250  1.1375
      2py      1.2126  0.9886  1.2126
      Total    7.9894  8.0211  7.9894
 
      N-E      0.0106 -0.0211  0.0106
 
      Total electronic charge=   24.000000
 
      Total            charge=   -0.000000
--
 
 

      Expectation values of various properties for root number:  1
      -----------------------------------------------------------
 
 
++    Molecular properties:
      ---------------------
 
      Charge (e):
                      =   -0.0000
      Dipole Moment (Debye):
      Origin of the operator (Ang)=    0.0000    0.0000    0.0000
                   X=  2.5134E-01               Y= -5.8777E-11               Z= -1.7304E-13           Total=  2.5134E-01
      Quadrupole Moment (Debye*Ang):
      Origin of the operator (Ang)=    0.4420    0.0000    0.0000
                  XX= -1.7517E+01              XY= -5.4251E-11              XZ= -8.3960E-13              YY= -1.7843E+01
                  YZ= -4.1066E-13              ZZ= -1.5486E+01
      In traceless form (Debye*Ang)
                  XX= -8.5314E-01              XY= -8.1377E-11              XZ= -1.2594E-12              YY= -1.3414E+00
                  YZ= -6.1598E-13              ZZ=  2.1945E+00
--
 

      LoProp population analysis for root number:  1
      -----------------------------------------------
 
 
++    LoProp analysis:
      ----------------
 
 
 
  Input file to MOLDEN was generated!
 
 
++    Static properties:
      ------------------
 
 
      LoProp Charges per center
 

                   O1       O2       O3    
      Nuclear      8.0000   8.0000   8.0000
      Electronic  -8.0210  -7.9580  -8.0210
 
      Total       -0.0210   0.0420  -0.0210
--
 
 
      Natural Bond Order analysis for root number:  1
 
++    Natural Bond Order analysis
      ---------------------------
      Based on LoProp computed density
      -------------------------------------------------------------------------------------
      Atom A       Atom B       Bond Order | Atom A       Atom B       Bond Order
        O1           O2             1.966  |   O2           O3             1.966
      -------------------------------------------------------------------------------------
      NBO located     12.000 core electrons.
      NBO located      3.951 lone pair electrons.
      NBO located      7.863 electrons involved in    2 bonds.
      The remaining    0.186 electrons are to be considered as diffuse
--
 
--
 
 
  Input file to MOLDEN was generated!
 
      Average orbitals are written to the RASORB file
      Natural orbitals for root   1 are written to the RASORB.1 file
      Spin density orbitals for root   1 are written to the SPDORB.1 file
 
forrtl: warning (525): IEEE_DIVIDE_BY_ZERO is signaling
forrtl: warning (526): IEEE_INVALID is signaling
forrtl: warning (528): IEEE_UNDERFLOW is signaling
--- Stop Module: rasscf at Sat Jan 25 14:02:21 2025 /rc=_RC_ALL_IS_WELL_ ---
*** files: ozone_117.50.LprOrb ozone_117.50.rasscf.molden ozone_117.50.LoProp.molden ozone_117.50.RasOrb ozone_117.50.RasOrb.1 ozone_117.50.rasscf.h5 ozone_117.50.SpdOrb.1 xmldump
    saved to directory /home/grierjones/DDCASPT2/ozone/ANO-RCC-MB/ozone_117.50

>>> COPY /tmp/ozone_117.50/ozone_117.50.rasscf.h5 /home/grierjones/DDCASPT2/ozone/ANO-RCC-MB/ozone_117.50/

>>> COPY /tmp/ozone_117.50/GMJ_Fock_MO.csv /home/grierjones/DDCASPT2/ozone/ANO-RCC-MB/ozone_117.50/ozone_117.50.GMJ_Fock_MO.csv

>>> COPY /tmp/ozone_117.50/GMJ_PT2_Fock_MO.csv /home/grierjones/DDCASPT2/ozone/ANO-RCC-MB/ozone_117.50/ozone_117.50.GMJ_PT2_Fock_MO.csv

*** symbolic link created: INPORB -> ozone_117.50.RasOrb
--- Start Module: motra at Sat Jan 25 14:02:21 2025 ---
 
()()()()()()()()()()()()()()()()()()()()()()()()()()()()()()()()()()()()()()()()()()()()()()()()()()

                                               &MOTRA

                                   only a single process is used
                       available to each process: 2.0 GB of memory, 1 thread?
()()()()()()()()()()()()()()()()()()()()()()()()()()()()()()()()()()()()()()()()()()()()()()()()()()
 
 
      *** WARNING: Default frozen orbitals is overwritten by user input.
      *** Default values:   3
 
      Header of the integral files:
      
       Integrals generated by seward 4.2.0  , Sat Jan 25 14:02:20 2025
 
 
      Header of MO coefficients source file:
      * RASSCF average (pseudo-natural) orbitals                                      
 
 
      Cartesian coordinates in Angstrom:
      -----------------------------------------------------
      No.  Label        X            Y            Z        
      -----------------------------------------------------
       1   O1         0.66299200   1.09257700   0.00000000
       2   O2         0.00000000   0.00000000   0.00000000
       3   O3         0.66299200  -1.09257700   0.00000000
      -----------------------------------------------------
      Nuclear repulsion energy =   68.49938745
 
      Orbital specifications:
      -----------------------
 
      Symmetry species:              1
      Number of basis functions:    15
      Frozen orbitals:               0
      Deleted orbitals:              0
      Number of orbitals used:      15

       SYMMETRY  BASIS FUNCTIONS       ORBITALS      INTEGRALS   CPU(SEC)  I/O(SEC)
 
        1 1 1 1   15  15  15  15    15  15  15  15        7260       0.00      0.00

       TOTAL CPU TIME(SEC)    0.00TOTAL I/O TIME(SEC)    0.01
 
--- Stop Module: motra at Sat Jan 25 14:02:21 2025 /rc=_RC_ALL_IS_WELL_ ---
*** files: xmldump
    saved to directory /home/grierjones/DDCASPT2/ozone/ANO-RCC-MB/ozone_117.50

>>> COPY /tmp/ozone_117.50/GMJ_one_int_indx.csv /home/grierjones/DDCASPT2/ozone/ANO-RCC-MB/ozone_117.50/ozone_117.50.GMJ_one_int_indx.csv

>>> COPY /tmp/ozone_117.50/GMJ_one_int.csv /home/grierjones/DDCASPT2/ozone/ANO-RCC-MB/ozone_117.50/ozone_117.50.GMJ_one_int.csv

>>> COPY /tmp/ozone_117.50/GMJ_two_int_indx.csv /home/grierjones/DDCASPT2/ozone/ANO-RCC-MB/ozone_117.50/ozone_117.50.GMJ_two_int_indx.csv

>>> COPY /tmp/ozone_117.50/GMJ_two_int.csv /home/grierjones/DDCASPT2/ozone/ANO-RCC-MB/ozone_117.50/ozone_117.50.GMJ_two_int.csv

*** symbolic link created: INPORB -> ozone_117.50.RasOrb
--- Start Module: caspt2 at Sat Jan 25 14:02:21 2025 ---
 
()()()()()()()()()()()()()()()()()()()()()()()()()()()()()()()()()()()()()()()()()()()()()()()()()()

                                              &CASPT2

                                   only a single process is used
                       available to each process: 2.0 GB of memory, 1 thread?
()()()()()()()()()()()()()()()()()()()()()()()()()()()()()()()()()()()()()()()()()()()()()()()()()()
 
 Cholesky algorithm in CASPT2 =    1
 
 ###############################################################################
 ###############################################################################
 ###                                                                         ###
 ###                                                                         ###
 ###    User changed nr of frozen orbitals.                                  ###
 ###                                                                         ###
 ###                                                                         ###
 ###############################################################################
 ###############################################################################
 
++    Wave function specifications:
      -----------------------------
 
      Number of closed shell electrons          20
      Number of electrons in active shells       4
      Max number of holes in RAS1 space          0
      Max number of electrons in RAS3 space      0
      Number of inactive orbitals               10
      Number of active orbitals                  3
      Number of secondary orbitals               2
      Spin quantum number                      0.0
      State symmetry                             1
      Number of CSFs                             6
      Number of root(s) available                1
      Root passed to geometry opt.               1
      A file JOBMIX will be created.
      This is a CASSCF or RASSCF reference function
--
 
++    Orbital specifications:
      -----------------------
 
      Symmetry species                           1
                                                 a
      Frozen orbitals                            0
      Inactive orbitals                         10
      Active orbitals                            3
      Secondary orbitals                         2
      Deleted orbitals                           0
      Number of basis functions                 15
--
 
      Type of Fock operator: STANDARD
      Type of 0-order Hamiltonian: STANDARD WITH DEFAULT IPEA
        "IP-EA" denominator shift =      0.25
      The input orbitals and the CI vector will be transformed.
 
--------------------------------------------------------------------------------
 Estimated memory requirements:
  POLY3 :                   250202
  RHS:                      251368
  SIGMA :                   251440
  PRPCTL:                        0
 Available workspace:    230399382
 
++ CASPT2 computation for group   1
 
********************************************************************************
 Multi-State initialization phase begins for group   1
--------------------------------------------------------------------------------
********************************************************************************
 Compute H0 matrices for state    1
--------------------------------------------------------------------------------
--------------------------------------------------------------------------------
 H0 matrices have been computed.
 
********************************************************************************
  CASPT2 EQUATION SOLUTION
--------------------------------------------------------------------------------
 
  Total nr of CASPT2 parameters:
   Before reduction:        2100
   After  reduction:        1232
-------------------------------------------------------------------------------------------------------------------
 
  FINAL CASPT2 RESULT:
 
  Correlation energy /Case, /Symm, and sums:
 VJTU     -0.00000000 -0.00000000
 VJTIP    -0.00072048 -0.00072048
 VJTIM     0.00000000  0.00000000
 ATVX     -0.00000000 -0.00000000
 AIVX     -0.04474754 -0.04474754
 VJAIP    -0.00000000 -0.00000000
 VJAIM    -0.00000000 -0.00000000
 BVATP    -0.00057395 -0.00057395
 BVATM    -0.00000029 -0.00000029
 BJATP    -0.00000000 -0.00000000
 BJATM    -0.00000000 -0.00000000
 BJAIP    -0.04401753 -0.04401753
 BJAIM    -0.00647341 -0.00647341
 Summed:  -0.09653320 -0.09653320
 
      Reference energy:        -224.3675596177
      E2 (Non-variational):      -0.0965332021
      E2 (Variational):          -0.0965332037
      Total energy:            -224.4640928215
      Residual norm:              0.0000000969
      Reference weight:           0.95338
 
      Contributions to the CASPT2 correlation energy
      Active & Virtual Only:         -0.0005742413
      One Inactive Excited:          -0.0447475368
      Two Inactive Excited:          -0.0512114240
 
 
++ Denominators, etc.
----------------------------------------------------------------------------------------------------
 Report on small energy denominators, large coefficients, and large energy contributions.
CASE  SYMM ACTIVE-MIX  NON-ACTIVE INDICES          DENOMINATOR     RHS VALUE       COEFFICIENT     CONTRIBUTION
AIVX     1  Mu1.0003  In1.005 Se1.014               1.99539383     -0.05622070      0.02817524     -0.00158403
AIVX     1  Mu1.0001  In1.007 Se1.014               1.01236255      0.02697146     -0.02664210     -0.00071858
AIVX     1  Mu1.0004  In1.007 Se1.014               1.58743224     -0.04738174      0.02984804     -0.00141425
AIVX     1  Mu1.0005  In1.007 Se1.014               1.64233182      0.06655359     -0.04052384     -0.00269701
AIVX     1  Mu1.0002  In1.008 Se1.014               1.25493440      0.06243154     -0.04974885     -0.00310590
AIVX     1  Mu1.0002  In1.009 Se1.014               1.07498131     -0.04843915      0.04506046     -0.00218269
AIVX     1  Mu1.0003  In1.009 Se1.014               1.15171741     -0.03428629      0.02976971     -0.00102069
AIVX     1  Mu1.0005  In1.010 Se1.014               1.39494483     -0.04021039      0.02882579     -0.00115910
AIVX     1  Mu1.0001  In1.008 Se1.015               1.13418899      0.03964139     -0.03495131     -0.00138552
AIVX     1  Mu1.0004  In1.008 Se1.015               1.70925868     -0.06904122      0.04039249     -0.00278875
AIVX     1  Mu1.0005  In1.008 Se1.015               1.76415826      0.09483245     -0.05375507     -0.00509773
AIVX     1  Mu1.0006  In1.008 Se1.015               1.92458611     -0.07058032      0.03667298     -0.00258839
AIVX     1  Mu1.0002  In1.010 Se1.015               1.18057908     -0.05294939      0.04485036     -0.00237480
AIVX     1  Mu1.0003  In1.010 Se1.015               1.25731518     -0.03513342      0.02794321     -0.00098174
BJAIP    1  Se1.014 In1.007 Se1.014 In1.007         2.17978378      0.06387594     -0.02930380     -0.00187181
BJAIP    1  Se1.014 In1.007 Se1.015 In1.008         2.30161022      0.07988920     -0.03471014     -0.00277297
BJAIP    1  Se1.014 In1.008 Se1.014 In1.008         2.12857855      0.06211882     -0.02918324     -0.00181283
BJAIP    1  Se1.015 In1.008 Se1.015 In1.008         2.42343666      0.11482326     -0.04738034     -0.00544037
BJAIP    1  Se1.014 In1.008 Se1.014 In1.009         1.94862546     -0.04883139      0.02505940     -0.00122369
BJAIP    1  Se1.014 In1.009 Se1.014 In1.009         1.76867237      0.04770398     -0.02697163     -0.00128665
BJAIP    1  Se1.014 In1.008 Se1.015 In1.010         2.05422323     -0.08603133      0.04188023     -0.00360301
BJAIP    1  Se1.015 In1.010 Se1.015 In1.010         1.97986791      0.05554143     -0.02805310     -0.00155811
BJAIM    1  Se1.014 In1.007 Se1.014 In1.008         2.30161022      0.08269793     -0.03593047     -0.00297138
--
 
   (Skipping property calculation,
    use PROP keyword to activate)
--
 
  Total CASPT2 energies:
::    CASPT2 Root  1     Total energy:   -224.46409282
 
  A NEW JOBIPH FILE NAMED 'JOBMIX' IS PREPARED.
********************************************************************************
forrtl: warning (528): IEEE_UNDERFLOW is signaling
--- Stop Module: caspt2 at Sat Jan 25 14:02:21 2025 /rc=_RC_ALL_IS_WELL_ ---
*** files: xmldump
    saved to directory /home/grierjones/DDCASPT2/ozone/ANO-RCC-MB/ozone_117.50

>>> EXPORT i = B

>>> EXPORT j = P

>>> IF (-FILE GMJ_e2_${i}_${j}.csv)

>>> COPY /tmp/ozone_117.50/GMJ_RHS_B_P.csv /home/grierjones/DDCASPT2/ozone/ANO-RCC-MB/ozone_117.50/GMJ_RHS_B_P.csv

>>> COPY /tmp/ozone_117.50/GMJ_IVECW_B_P.csv /home/grierjones/DDCASPT2/ozone/ANO-RCC-MB/ozone_117.50/GMJ_IVECW_B_P.csv

>>> COPY /tmp/ozone_117.50/GMJ_IVECX_B_P.csv /home/grierjones/DDCASPT2/ozone/ANO-RCC-MB/ozone_117.50/GMJ_IVECX_B_P.csv

>>> COPY /tmp/ozone_117.50/GMJ_IVECC2_B_P.csv /home/grierjones/DDCASPT2/ozone/ANO-RCC-MB/ozone_117.50/GMJ_IVECC2_B_P.csv

>>> COPY /tmp/ozone_117.50/GMJ_e2_B_P.csv /home/grierjones/DDCASPT2/ozone/ANO-RCC-MB/ozone_117.50/GMJ_e2_B_P.csv

>>> END FOREACH

>>> EXPORT j = M

>>> IF (-FILE GMJ_e2_${i}_${j}.csv)
(Skipped)

>>> END FOREACH

>>> END FOREACH

>>> EXPORT i = E

>>> EXPORT j = P

>>> IF (-FILE GMJ_e2_${i}_${j}.csv)

>>> COPY /tmp/ozone_117.50/GMJ_RHS_E_P.csv /home/grierjones/DDCASPT2/ozone/ANO-RCC-MB/ozone_117.50/GMJ_RHS_E_P.csv

>>> COPY /tmp/ozone_117.50/GMJ_IVECW_E_P.csv /home/grierjones/DDCASPT2/ozone/ANO-RCC-MB/ozone_117.50/GMJ_IVECW_E_P.csv

>>> COPY /tmp/ozone_117.50/GMJ_IVECX_E_P.csv /home/grierjones/DDCASPT2/ozone/ANO-RCC-MB/ozone_117.50/GMJ_IVECX_E_P.csv

>>> COPY /tmp/ozone_117.50/GMJ_IVECC2_E_P.csv /home/grierjones/DDCASPT2/ozone/ANO-RCC-MB/ozone_117.50/GMJ_IVECC2_E_P.csv

>>> COPY /tmp/ozone_117.50/GMJ_e2_E_P.csv /home/grierjones/DDCASPT2/ozone/ANO-RCC-MB/ozone_117.50/GMJ_e2_E_P.csv

>>> END FOREACH

>>> EXPORT j = M

>>> IF (-FILE GMJ_e2_${i}_${j}.csv)

>>> COPY /tmp/ozone_117.50/GMJ_RHS_E_M.csv /home/grierjones/DDCASPT2/ozone/ANO-RCC-MB/ozone_117.50/GMJ_RHS_E_M.csv

>>> COPY /tmp/ozone_117.50/GMJ_IVECW_E_M.csv /home/grierjones/DDCASPT2/ozone/ANO-RCC-MB/ozone_117.50/GMJ_IVECW_E_M.csv

>>> COPY /tmp/ozone_117.50/GMJ_IVECX_E_M.csv /home/grierjones/DDCASPT2/ozone/ANO-RCC-MB/ozone_117.50/GMJ_IVECX_E_M.csv

>>> COPY /tmp/ozone_117.50/GMJ_IVECC2_E_M.csv /home/grierjones/DDCASPT2/ozone/ANO-RCC-MB/ozone_117.50/GMJ_IVECC2_E_M.csv

>>> COPY /tmp/ozone_117.50/GMJ_e2_E_M.csv /home/grierjones/DDCASPT2/ozone/ANO-RCC-MB/ozone_117.50/GMJ_e2_E_M.csv

>>> END FOREACH

>>> END FOREACH

>>> EXPORT i = F

>>> EXPORT j = P

>>> IF (-FILE GMJ_e2_${i}_${j}.csv)

>>> COPY /tmp/ozone_117.50/GMJ_RHS_F_P.csv /home/grierjones/DDCASPT2/ozone/ANO-RCC-MB/ozone_117.50/GMJ_RHS_F_P.csv

>>> COPY /tmp/ozone_117.50/GMJ_IVECW_F_P.csv /home/grierjones/DDCASPT2/ozone/ANO-RCC-MB/ozone_117.50/GMJ_IVECW_F_P.csv

>>> COPY /tmp/ozone_117.50/GMJ_IVECX_F_P.csv /home/grierjones/DDCASPT2/ozone/ANO-RCC-MB/ozone_117.50/GMJ_IVECX_F_P.csv

>>> COPY /tmp/ozone_117.50/GMJ_IVECC2_F_P.csv /home/grierjones/DDCASPT2/ozone/ANO-RCC-MB/ozone_117.50/GMJ_IVECC2_F_P.csv

>>> COPY /tmp/ozone_117.50/GMJ_e2_F_P.csv /home/grierjones/DDCASPT2/ozone/ANO-RCC-MB/ozone_117.50/GMJ_e2_F_P.csv

>>> END FOREACH

>>> EXPORT j = M

>>> IF (-FILE GMJ_e2_${i}_${j}.csv)

>>> COPY /tmp/ozone_117.50/GMJ_RHS_F_M.csv /home/grierjones/DDCASPT2/ozone/ANO-RCC-MB/ozone_117.50/GMJ_RHS_F_M.csv

>>> COPY /tmp/ozone_117.50/GMJ_IVECW_F_M.csv /home/grierjones/DDCASPT2/ozone/ANO-RCC-MB/ozone_117.50/GMJ_IVECW_F_M.csv

>>> COPY /tmp/ozone_117.50/GMJ_IVECX_F_M.csv /home/grierjones/DDCASPT2/ozone/ANO-RCC-MB/ozone_117.50/GMJ_IVECX_F_M.csv

>>> COPY /tmp/ozone_117.50/GMJ_IVECC2_F_M.csv /home/grierjones/DDCASPT2/ozone/ANO-RCC-MB/ozone_117.50/GMJ_IVECC2_F_M.csv

>>> COPY /tmp/ozone_117.50/GMJ_e2_F_M.csv /home/grierjones/DDCASPT2/ozone/ANO-RCC-MB/ozone_117.50/GMJ_e2_F_M.csv

>>> END FOREACH

>>> END FOREACH

>>> EXPORT i = G

>>> EXPORT j = P

>>> IF (-FILE GMJ_e2_${i}_${j}.csv)

>>> COPY /tmp/ozone_117.50/GMJ_RHS_G_P.csv /home/grierjones/DDCASPT2/ozone/ANO-RCC-MB/ozone_117.50/GMJ_RHS_G_P.csv

>>> COPY /tmp/ozone_117.50/GMJ_IVECW_G_P.csv /home/grierjones/DDCASPT2/ozone/ANO-RCC-MB/ozone_117.50/GMJ_IVECW_G_P.csv

>>> COPY /tmp/ozone_117.50/GMJ_IVECX_G_P.csv /home/grierjones/DDCASPT2/ozone/ANO-RCC-MB/ozone_117.50/GMJ_IVECX_G_P.csv

>>> COPY /tmp/ozone_117.50/GMJ_IVECC2_G_P.csv /home/grierjones/DDCASPT2/ozone/ANO-RCC-MB/ozone_117.50/GMJ_IVECC2_G_P.csv

>>> COPY /tmp/ozone_117.50/GMJ_e2_G_P.csv /home/grierjones/DDCASPT2/ozone/ANO-RCC-MB/ozone_117.50/GMJ_e2_G_P.csv

>>> END FOREACH

>>> EXPORT j = M

>>> IF (-FILE GMJ_e2_${i}_${j}.csv)

>>> COPY /tmp/ozone_117.50/GMJ_RHS_G_M.csv /home/grierjones/DDCASPT2/ozone/ANO-RCC-MB/ozone_117.50/GMJ_RHS_G_M.csv

>>> COPY /tmp/ozone_117.50/GMJ_IVECW_G_M.csv /home/grierjones/DDCASPT2/ozone/ANO-RCC-MB/ozone_117.50/GMJ_IVECW_G_M.csv

>>> COPY /tmp/ozone_117.50/GMJ_IVECX_G_M.csv /home/grierjones/DDCASPT2/ozone/ANO-RCC-MB/ozone_117.50/GMJ_IVECX_G_M.csv

>>> COPY /tmp/ozone_117.50/GMJ_IVECC2_G_M.csv /home/grierjones/DDCASPT2/ozone/ANO-RCC-MB/ozone_117.50/GMJ_IVECC2_G_M.csv

>>> COPY /tmp/ozone_117.50/GMJ_e2_G_M.csv /home/grierjones/DDCASPT2/ozone/ANO-RCC-MB/ozone_117.50/GMJ_e2_G_M.csv

>>> END FOREACH

>>> END FOREACH

>>> EXPORT i = H

>>> EXPORT j = P

>>> IF (-FILE GMJ_e2_${i}_${j}.csv)

>>> COPY /tmp/ozone_117.50/GMJ_RHS_H_P.csv /home/grierjones/DDCASPT2/ozone/ANO-RCC-MB/ozone_117.50/GMJ_RHS_H_P.csv

>>> COPY /tmp/ozone_117.50/GMJ_IVECW_H_P.csv /home/grierjones/DDCASPT2/ozone/ANO-RCC-MB/ozone_117.50/GMJ_IVECW_H_P.csv

>>> COPY /tmp/ozone_117.50/GMJ_IVECX_H_P.csv /home/grierjones/DDCASPT2/ozone/ANO-RCC-MB/ozone_117.50/GMJ_IVECX_H_P.csv

>>> COPY /tmp/ozone_117.50/GMJ_IVECC2_H_P.csv /home/grierjones/DDCASPT2/ozone/ANO-RCC-MB/ozone_117.50/GMJ_IVECC2_H_P.csv

>>> COPY /tmp/ozone_117.50/GMJ_e2_H_P.csv /home/grierjones/DDCASPT2/ozone/ANO-RCC-MB/ozone_117.50/GMJ_e2_H_P.csv

>>> END FOREACH

>>> EXPORT j = M

>>> IF (-FILE GMJ_e2_${i}_${j}.csv)

>>> COPY /tmp/ozone_117.50/GMJ_RHS_H_M.csv /home/grierjones/DDCASPT2/ozone/ANO-RCC-MB/ozone_117.50/GMJ_RHS_H_M.csv

>>> COPY /tmp/ozone_117.50/GMJ_IVECW_H_M.csv /home/grierjones/DDCASPT2/ozone/ANO-RCC-MB/ozone_117.50/GMJ_IVECW_H_M.csv

>>> COPY /tmp/ozone_117.50/GMJ_IVECX_H_M.csv /home/grierjones/DDCASPT2/ozone/ANO-RCC-MB/ozone_117.50/GMJ_IVECX_H_M.csv

>>> COPY /tmp/ozone_117.50/GMJ_IVECC2_H_M.csv /home/grierjones/DDCASPT2/ozone/ANO-RCC-MB/ozone_117.50/GMJ_IVECC2_H_M.csv

>>> COPY /tmp/ozone_117.50/GMJ_e2_H_M.csv /home/grierjones/DDCASPT2/ozone/ANO-RCC-MB/ozone_117.50/GMJ_e2_H_M.csv

>>> END FOREACH

>>> END FOREACH

>>> EXPORT i = A

>>> IF (-FILE GMJ_e2_$i.csv)

>>> COPY /tmp/ozone_117.50/GMJ_RHS_A.csv /home/grierjones/DDCASPT2/ozone/ANO-RCC-MB/ozone_117.50/GMJ_RHS_A.csv

>>> COPY /tmp/ozone_117.50/GMJ_IVECW_A.csv /home/grierjones/DDCASPT2/ozone/ANO-RCC-MB/ozone_117.50/GMJ_IVECW_A.csv

>>> COPY /tmp/ozone_117.50/GMJ_IVECX_A.csv /home/grierjones/DDCASPT2/ozone/ANO-RCC-MB/ozone_117.50/GMJ_IVECX_A.csv

>>> COPY /tmp/ozone_117.50/GMJ_IVECC2_A.csv /home/grierjones/DDCASPT2/ozone/ANO-RCC-MB/ozone_117.50/GMJ_IVECC2_A.csv

>>> COPY /tmp/ozone_117.50/GMJ_e2_A.csv /home/grierjones/DDCASPT2/ozone/ANO-RCC-MB/ozone_117.50/GMJ_e2_A.csv

>>> END FOREACH

>>> EXPORT i = C

>>> IF (-FILE GMJ_e2_$i.csv)

>>> COPY /tmp/ozone_117.50/GMJ_RHS_C.csv /home/grierjones/DDCASPT2/ozone/ANO-RCC-MB/ozone_117.50/GMJ_RHS_C.csv

>>> COPY /tmp/ozone_117.50/GMJ_IVECW_C.csv /home/grierjones/DDCASPT2/ozone/ANO-RCC-MB/ozone_117.50/GMJ_IVECW_C.csv

>>> COPY /tmp/ozone_117.50/GMJ_IVECX_C.csv /home/grierjones/DDCASPT2/ozone/ANO-RCC-MB/ozone_117.50/GMJ_IVECX_C.csv

>>> COPY /tmp/ozone_117.50/GMJ_IVECC2_C.csv /home/grierjones/DDCASPT2/ozone/ANO-RCC-MB/ozone_117.50/GMJ_IVECC2_C.csv

>>> COPY /tmp/ozone_117.50/GMJ_e2_C.csv /home/grierjones/DDCASPT2/ozone/ANO-RCC-MB/ozone_117.50/GMJ_e2_C.csv

>>> END FOREACH

>>> EXPORT i = D

>>> IF (-FILE GMJ_e2_$i.csv)

>>> COPY /tmp/ozone_117.50/GMJ_RHS_D.csv /home/grierjones/DDCASPT2/ozone/ANO-RCC-MB/ozone_117.50/GMJ_RHS_D.csv

>>> COPY /tmp/ozone_117.50/GMJ_IVECW_D.csv /home/grierjones/DDCASPT2/ozone/ANO-RCC-MB/ozone_117.50/GMJ_IVECW_D.csv

>>> COPY /tmp/ozone_117.50/GMJ_IVECX_D.csv /home/grierjones/DDCASPT2/ozone/ANO-RCC-MB/ozone_117.50/GMJ_IVECX_D.csv

>>> COPY /tmp/ozone_117.50/GMJ_IVECC2_D.csv /home/grierjones/DDCASPT2/ozone/ANO-RCC-MB/ozone_117.50/GMJ_IVECC2_D.csv

>>> COPY /tmp/ozone_117.50/GMJ_e2_D.csv /home/grierjones/DDCASPT2/ozone/ANO-RCC-MB/ozone_117.50/GMJ_e2_D.csv

>>> END FOREACH

.########################.
.# Non-zero return code #.
.########################.

    Timing: Wall=1.04 User=0.78 System=0.26
********************************************
*** WorkDir at /tmp/ozone_117.50 cleaned ***
********************************************
