[Molden Format]
[N_Atoms]
                     2
[Atoms] (AU)
BE1         1      4           0.00000000      0.00000000      0.00000000
LI2         2      3           0.00000000      0.00000000      4.53534270
[Charge] (Mulliken)
 -6.643260464080214E-002
  6.643260464077860E-002
[GTO] (AU)
   1
   s  14
  2.262859900E+04  8.443999941E-05
  3.372318100E+03  4.601499968E-04
  7.603504000E+02  2.285389984E-03
  2.117404800E+02  9.648129932E-03
  6.722346800E+01  3.494469975E-02
  2.337217700E+01  1.061099893E-01
  8.721373000E+00  2.458240383E-01
  3.468091000E+00  3.862428773E-01
  1.452144000E+00  3.105526078E-01
  6.086150000E-01  6.415933955E-02
  2.576860000E-01 -2.265049984E-03
  1.041760000E-01 -5.217499963E-04
  4.242700000E-02 -8.757499938E-04
  1.484900000E-02  1.242199991E-04
   s  14
  2.262859900E+04 -1.586999994E-05
  3.372318100E+03 -8.656999968E-05
  7.603504000E+02 -4.302199984E-04
  2.117404800E+02 -1.825079993E-03
  6.722346800E+01 -6.682749976E-03
  2.337217700E+01 -2.095119992E-02
  8.721373000E+00 -5.200308981E-02
  3.468091000E+00 -9.849176964E-02
  1.452144000E+00 -1.355800695E-01
  6.086150000E-01 -6.429875976E-02
  2.576860000E-01  3.125414989E-01
  1.041760000E-01  6.270468577E-01
  4.242700000E-02  2.110231492E-01
  1.484900000E-02 -4.104669985E-03
   p   9
  3.371018400E+01  1.069960000E-03
  8.057649500E+00  6.828550001E-03
  2.836471400E+00  2.119065000E-02
  1.099965700E+00  5.843696001E-02
  4.433964000E-01  2.020920800E-01
  1.822264000E-01  4.582953101E-01
  7.572410000E-02  3.691239601E-01
  3.168540000E-02  6.611471001E-02
  1.108990000E-02  1.405160000E-03
 
   2
   s  14
  9.497934400E+03  9.668999974E-05
  1.416811200E+03  6.087099984E-04
  3.214599400E+02  3.101519992E-03
  9.112416300E+01  1.266904997E-02
  2.999989100E+01  4.248012989E-02
  1.101763100E+01  1.150183297E-01
  4.372801000E+00  2.398650094E-01
  1.831256000E+00  3.584300090E-01
  8.022610000E-01  3.048527792E-01
  3.626480000E-01  8.824261976E-02
  1.139950000E-01 -8.445899977E-04
  5.123700000E-02 -7.943959979E-03
  2.246800000E-02 -3.764419990E-03
  7.860000000E-03 -8.868999976E-05
   s  14
  9.497934400E+03 -1.244999993E-05
  1.416811200E+03 -7.838999954E-05
  3.214599400E+02 -4.007099976E-04
  9.112416300E+01 -1.645249990E-03
  2.999989100E+01 -5.634599967E-03
  1.101763100E+01 -1.590780991E-02
  4.372801000E+00 -3.612581979E-02
  1.831256000E+00 -6.459927962E-02
  8.022610000E-01 -1.008321794E-01
  3.626480000E-01 -9.757613942E-02
  1.139950000E-01  2.301215886E-01
  5.123700000E-02  6.102389764E-01
  2.246800000E-02  2.849406083E-01
  7.860000000E-03  4.026899976E-03
   p   9
  1.311950400E+01  1.524940000E-03
  3.077424200E+00  8.314830000E-03
  1.098800500E+00  1.933203000E-02
  4.357784000E-01  4.934293000E-02
  1.802432000E-01  1.623554000E-01
  7.613330000E-02  3.847505400E-01
  3.254650000E-02  4.336100400E-01
  1.401820000E-02  1.287005900E-01
  4.906400000E-03 -1.018520000E-03
 
[MO]
Sym=     1a  
Ene=    -4.7020
Spin= Alpha
Occup=    1.00000
   1         0.99999882
   2         0.00315882
   3         0.00000000
   4        -0.00000000
   5        -0.00028777
   6        -0.00001060
   7         0.00011522
   8         0.00000000
   9        -0.00000000
  10         0.00010776
Sym=     1a  
Ene=    -4.6963
Spin= Beta
Occup=    1.00000
   1         1.00003039
   2         0.00284348
   3        -0.00000000
   4         0.00000000
   5         0.00094369
   6        -0.00010048
   7        -0.00031673
   8        -0.00000000
   9        -0.00000000
  10         0.00017325
Sym=     2a  
Ene=    -2.4685
Spin= Alpha
Occup=    1.00000
   1        -0.00004539
   2         0.00140179
   3        -0.00000000
   4        -0.00000000
   5         0.00043031
   6         0.99980294
   7         0.01169109
   8         0.00000000
   9        -0.00000000
  10         0.00105072
Sym=     2a  
Ene=    -2.4591
Spin= Beta
Occup=    1.00000
   1        -0.00011052
   2         0.00202534
   3        -0.00000000
   4        -0.00000000
   5         0.00129403
   6         0.99966115
   7         0.01246695
   8         0.00000000
   9        -0.00000000
  10         0.00107081
Sym=     3a  
Ene=    -0.3345
Spin= Alpha
Occup=    1.00000
   1        -0.02229557
   2         0.83784940
   3         0.00000000
   4        -0.00000000
   5        -0.19552546
   6        -0.03057036
   7         0.21353832
   8        -0.00000000
   9         0.00000000
  10        -0.07599652
Sym=     3a  
Ene=    -0.3169
Spin= Beta
Occup=    1.00000
   1        -0.02350501
   2         0.77320425
   3         0.00000000
   4         0.00000000
   5         0.31420195
   6        -0.08279155
   7         0.14302221
   8         0.00000000
   9        -0.00000000
  10        -0.13473192
Sym=     4a  
Ene=    -0.1877
Spin= Alpha
Occup=    1.00000
   1        -0.03871128
   2        -0.34342123
   3        -0.00000000
   4         0.00000000
   5         0.51108996
   6        -0.04510077
   7         0.76489946
   8        -0.00000000
   9         0.00000000
  10         0.04012094
Sym=     4a  
Ene=     0.0451
Spin= Beta
Occup=    0.00000
   1         0.00356428
   2        -0.23287995
   3         0.00000000
   4        -0.00000000
   5         0.06329649
   6        -0.00443165
   7         0.82971065
   8         0.00000000
   9        -0.00000000
  10         0.52050441
Sym=     5a  
Ene=     0.0307
Spin= Alpha
Occup=    0.00000
   1         0.00000000
   2         0.00000000
   3         0.32885759
   4        -0.09629587
   5        -0.00000000
   6         0.00000000
   7         0.00000000
   8         0.79005703
   9        -0.23134399
  10         0.00000000
Sym=     5a  
Ene=     0.0523
Spin= Beta
Occup=    0.00000
   1         0.00000000
   2        -0.00000000
   3        -0.38647087
   4         0.12742545
   5         0.00000000
   6        -0.00000000
   7         0.00000000
   8        -0.73845908
   9         0.24348142
  10         0.00000000
Sym=     6a  
Ene=     0.0307
Spin= Alpha
Occup=    0.00000
   1         0.00000000
   2         0.00000000
   3         0.09629587
   4         0.32885759
   5        -0.00000000
   6         0.00000000
   7        -0.00000000
   8         0.23134399
   9         0.79005703
  10        -0.00000000
Sym=     6a  
Ene=     0.0523
Spin= Beta
Occup=    0.00000
   1        -0.00000000
   2        -0.00000000
   3        -0.12742545
   4        -0.38647087
   5        -0.00000000
   6         0.00000000
   7        -0.00000000
   8        -0.24348142
   9        -0.73845908
  10        -0.00000000
Sym=     7a  
Ene=     0.0334
Spin= Alpha
Occup=    0.00000
   1         0.05528195
   2         0.15899273
   3        -0.00000000
   4         0.00000000
   5        -0.54466472
   6         0.04517447
   7         0.37577444
   8        -0.00000000
   9         0.00000000
  10         0.79916134
Sym=     7a  
Ene=     0.1346
Spin= Beta
Occup=    0.00000
   1         0.05505139
   2         0.71769122
   3        -0.00000000
   4         0.00000000
   5        -0.72499326
   6         0.03806839
   7        -0.06802848
   8         0.00000000
   9        -0.00000000
  10         0.54148701
Sym=     8a  
Ene=     0.1482
Spin= Alpha
Occup=    0.00000
   1        -0.00000000
   2        -0.00000000
   3         0.47790680
   4        -0.89781453
   5         0.00000000
   6         0.00000000
   7         0.00000000
   8        -0.32356003
   9         0.60785262
  10        -0.00000000
Sym=     8a  
Ene=     0.1741
Spin= Beta
Occup=    0.00000
   1         0.00000000
   2         0.00000000
   3         0.45438197
   4        -0.88307763
   5        -0.00000000
   6         0.00000000
   7         0.00000000
   8        -0.33847312
   9         0.65781227
  10         0.00000000
Sym=     9a  
Ene=     0.1482
Spin= Alpha
Occup=    0.00000
   1         0.00000000
   2         0.00000000
   3        -0.89781453
   4        -0.47790680
   5         0.00000000
   6        -0.00000000
   7        -0.00000000
   8         0.60785262
   9         0.32356003
  10         0.00000000
Sym=     9a  
Ene=     0.1741
Spin= Beta
Occup=    0.00000
   1         0.00000000
   2         0.00000000
   3        -0.88307763
   4        -0.45438197
   5         0.00000000
   6        -0.00000000
   7        -0.00000000
   8         0.65781227
   9         0.33847312
  10         0.00000000
Sym=    10a  
Ene=     0.2581
Spin= Alpha
Occup=    0.00000
   1         0.18455087
   2         1.42873331
   3         0.00000000
   4        -0.00000000
   5         0.94724314
   6        -0.17250341
   7        -1.18601677
   8        -0.00000000
   9        -0.00000000
  10         1.24896508
Sym=    10a  
Ene=     0.2449
Spin= Beta
Occup=    0.00000
   1         0.18828639
   2         1.31123168
   3         0.00000000
   4         0.00000000
   5         0.93006748
   6        -0.16348389
   7        -1.21036779
   8        -0.00000000
   9        -0.00000000
  10         1.27423389
