[Molden Format]
[N_Atoms]
                     2
[Atoms] (AU)
BE1         1      4           0.00000000      0.00000000      0.00000000
N2          2      7           0.00000000      0.00000000      3.59047964
[Charge] (Mulliken)
  3.302778396180939E-002
 -3.302778396189687E-002
[GTO] (AU)
   1
   s  14
  2.262859900E+04  8.443999941E-05
  3.372318100E+03  4.601499968E-04
  7.603504000E+02  2.285389984E-03
  2.117404800E+02  9.648129932E-03
  6.722346800E+01  3.494469975E-02
  2.337217700E+01  1.061099893E-01
  8.721373000E+00  2.458240383E-01
  3.468091000E+00  3.862428773E-01
  1.452144000E+00  3.105526078E-01
  6.086150000E-01  6.415933955E-02
  2.576860000E-01 -2.265049984E-03
  1.041760000E-01 -5.217499963E-04
  4.242700000E-02 -8.757499938E-04
  1.484900000E-02  1.242199991E-04
   s  14
  2.262859900E+04 -1.586999994E-05
  3.372318100E+03 -8.656999968E-05
  7.603504000E+02 -4.302199984E-04
  2.117404800E+02 -1.825079993E-03
  6.722346800E+01 -6.682749976E-03
  2.337217700E+01 -2.095119992E-02
  8.721373000E+00 -5.200308981E-02
  3.468091000E+00 -9.849176964E-02
  1.452144000E+00 -1.355800695E-01
  6.086150000E-01 -6.429875976E-02
  2.576860000E-01  3.125414989E-01
  1.041760000E-01  6.270468577E-01
  4.242700000E-02  2.110231492E-01
  1.484900000E-02 -4.104669985E-03
   p   9
  3.371018400E+01  1.069960000E-03
  8.057649500E+00  6.828550001E-03
  2.836471400E+00  2.119065000E-02
  1.099965700E+00  5.843696001E-02
  4.433964000E-01  2.020920800E-01
  1.822264000E-01  4.582953101E-01
  7.572410000E-02  3.691239601E-01
  3.168540000E-02  6.611471001E-02
  1.108990000E-02  1.405160000E-03
 
   2
   s  14
  7.476171500E+04  1.182599996E-04
  1.112365400E+04  5.172899983E-04
  2.512685700E+03  2.266659992E-03
  7.037772900E+02  9.145289970E-03
  2.254787900E+02  3.239342989E-02
  7.961581000E+01  9.770792967E-02
  3.023728300E+01  2.317036792E-01
  1.226362200E+01  3.768898887E-01
  5.265086000E+00  3.177420689E-01
  2.333471000E+00  8.211308973E-02
  9.018560000E-01  3.312089989E-03
  3.583360000E-01  3.720819988E-03
  1.410930000E-01  3.165419989E-03
  4.938300000E-02  4.595799985E-04
   s  14
  7.476171500E+04 -2.707000010E-05
  1.112365400E+04 -1.183700004E-04
  2.512685700E+03 -5.203800020E-04
  7.037772900E+02 -2.102930008E-03
  2.254787900E+02 -7.568200028E-03
  7.961581000E+01 -2.346767009E-02
  3.023728300E+01 -6.042901023E-02
  1.226362200E+01 -1.170549104E-01
  5.265086000E+00 -1.555321506E-01
  2.333471000E+00 -2.468935009E-02
  9.018560000E-01  3.625054514E-01
  3.583360000E-01  5.550845021E-01
  1.410930000E-01  2.148376908E-01
  4.938300000E-02  8.983850034E-03
   p   9
  1.266665700E+02  1.233630000E-03
  2.983738900E+01  9.493409996E-03
  9.394038000E+00  4.293961998E-02
  3.405104000E+00  1.362925399E-01
  1.350000000E+00  2.921362499E-01
  5.576960000E-01  3.887887598E-01
  2.324490000E-01  2.946801399E-01
  9.426400000E-02  8.012875997E-02
  3.299200000E-02  5.405199998E-04
 
[MO]
Sym=     1a  
Ene=   -15.6650
Spin= Alpha
Occup=    1.00000
   1        -0.00026780
   2        -0.00175522
   3        -0.00000000
   4         0.00000000
   5        -0.00183122
   6         1.00014792
   7        -0.00133445
   8         0.00000000
   9         0.00000000
  10        -0.00098233
Sym=     1a  
Ene=   -15.5770
Spin= Beta
Occup=    1.00000
   1        -0.00011563
   2        -0.00057790
   3        -0.00000000
   4         0.00000000
   5        -0.00047032
   6         1.00000527
   7        -0.00833241
   8         0.00000000
   9         0.00000000
  10        -0.00047929
Sym=     2a  
Ene=    -4.7120
Spin= Alpha
Occup=    1.00000
   1         0.99995730
   2         0.00302190
   3        -0.00000000
   4         0.00000000
   5         0.00096994
   6        -0.00010887
   7         0.00023449
   8        -0.00000000
   9        -0.00000000
  10        -0.00072645
Sym=     2a  
Ene=    -4.7440
Spin= Beta
Occup=    1.00000
   1         0.99998907
   2         0.00431506
   3         0.00000000
   4         0.00000000
   5         0.00064983
   6        -0.00011774
   7         0.00004694
   8        -0.00000000
   9         0.00000000
  10        -0.00001012
Sym=     3a  
Ene=    -1.1764
Spin= Alpha
Occup=    1.00000
   1         0.02211723
   2        -0.00497848
   3         0.00000000
   4         0.00000000
   5        -0.01424217
   6        -0.00170756
   7        -0.99225343
   8        -0.00000000
   9         0.00000000
  10         0.02629752
Sym=     3a  
Ene=    -0.8024
Spin= Beta
Occup=    1.00000
   1         0.02349887
   2        -0.14737692
   3        -0.00000000
   4         0.00000000
   5        -0.08401091
   6         0.00051235
   7        -0.90257120
   8         0.00000000
   9        -0.00000000
  10         0.08341049
Sym=     4a  
Ene=    -0.6090
Spin= Alpha
Occup=    1.00000
   1        -0.04108106
   2         0.10322857
   3        -0.00000000
   4         0.00000000
   5         0.11296360
   6        -0.00927852
   7        -0.10838620
   8        -0.00000000
   9         0.00000000
  10        -0.94263637
Sym=     4a  
Ene=    -0.3548
Spin= Beta
Occup=    1.00000
   1        -0.00239240
   2         0.95740865
   3        -0.00000000
   4         0.00000000
   5        -0.20500288
   6        -0.01934665
   7        -0.33716179
   8         0.00000000
   9        -0.00000000
  10        -0.12233509
Sym=     5a  
Ene=    -0.5936
Spin= Alpha
Occup=    1.00000
   1         0.00000000
   2         0.00000000
   3         0.00560723
   4         0.03951951
   5        -0.00000000
   6         0.00000000
   7         0.00000000
   8         0.13933837
   9         0.98205064
  10         0.00000000
Sym=     5a  
Ene=    -0.2491
Spin= Beta
Occup=    1.00000
   1        -0.00000000
   2         0.00000000
   3         0.89247456
   4        -0.12662885
   5         0.00000000
   6        -0.00000000
   7        -0.00000000
   8         0.29484005
   9        -0.04183341
  10        -0.00000000
Sym=     6a  
Ene=    -0.5807
Spin= Alpha
Occup=    1.00000
   1        -0.00000000
   2         0.00000000
   3         0.03463624
   4        -0.00491437
   5         0.00000000
   6        -0.00000000
   7        -0.00000000
   8         0.98312587
   9        -0.13949092
  10        -0.00000000
Sym=     6a  
Ene=     0.0433
Spin= Beta
Occup=    0.00000
   1         0.00000000
   2        -0.00000000
   3         0.12477647
   4         0.87941907
   5        -0.00000000
   6         0.00000000
   7         0.00000000
   8         0.04554127
   9         0.32097288
  10         0.00000000
Sym=     7a  
Ene=     0.0806
Spin= Alpha
Occup=    0.00000
   1         0.01030198
   2         0.98350433
   3         0.00000000
   4        -0.00000000
   5        -0.29234354
   6        -0.01358982
   7        -0.16274533
   8         0.00000000
   9        -0.00000000
  10         0.21359816
Sym=     7a  
Ene=     0.0605
Spin= Beta
Occup=    0.00000
   1         0.01736145
   2         0.00368090
   3         0.00000000
   4        -0.00000000
   5        -0.73798805
   6         0.04104695
   7         0.44047600
   8        -0.00000000
   9        -0.00000000
  10         0.58187608
Sym=     8a  
Ene=     0.1645
Spin= Alpha
Occup=    0.00000
   1        -0.00000000
   2        -0.00000000
   3         0.14280774
   4         1.00650263
   5        -0.00000000
   6         0.00000000
   7         0.00000000
   8        -0.03178539
   9        -0.22402205
  10        -0.00000000
Sym=     8a  
Ene=     0.1929
Spin= Beta
Occup=    0.00000
   1        -0.00000000
   2        -0.00000000
   3        -0.46701016
   4         0.06626179
   5        -0.00000000
   6         0.00000000
   7         0.00000000
   8         0.96316077
   9        -0.13665817
  10         0.00000000
Sym=     9a  
Ene=     0.1983
Spin= Alpha
Occup=    0.00000
   1        -0.00000000
   2        -0.00000000
   3         1.00668250
   4        -0.14283326
   5        -0.00000000
   6         0.00000000
   7         0.00000000
   8        -0.21925524
   9         0.03110905
  10        -0.00000000
Sym=     9a  
Ene=     0.2463
Spin= Beta
Occup=    0.00000
   1        -0.00000000
   2        -0.00000000
   3         0.06968732
   4         0.49115316
   5         0.00000000
   6         0.00000000
   7        -0.00000000
   8        -0.13546765
   9        -0.95476999
  10         0.00000000
Sym=    10a  
Ene=     0.3055
Spin= Alpha
Occup=    0.00000
   1         0.03238077
   2         0.49681304
   3         0.00000000
   4         0.00000000
   5         1.12507723
   6        -0.07450079
   7        -0.62456994
   8        -0.00000000
   9        -0.00000000
  10         0.48824612
Sym=    10a  
Ene=     0.3882
Spin= Beta
Occup=    0.00000
   1         0.04907792
   2         0.53517597
   3        -0.00000000
   4         0.00000000
   5         0.87779292
   6        -0.06363936
   7        -0.53896988
   8         0.00000000
   9        -0.00000000
  10         0.90153294
