   This run of MOLCAS is using the pymolcas driver

                             OPE
                             OPE          NMOL  CASOP  ENMOLC A   SO
                 OPE        NMOLC        AS  OP EN  MO LC     AS  OP
                OPENM       OL CA        SO  PE NM  OL CA     SOP EN
                OP EN      MO   LC       AS  OP ENMOL  CASO   PENMOL
                OP  EN     MO   LC       AS  OP EN     MO     LC ASO
               OP   E  NMOL  C  AS       OP  EN MO     LC     AS  OP
               OP  E   NMO   LC AS        OPEN  MO     LCASOP EN   M
               O  PEN   MO  LCA  SO
            OPE   NMO   L   CAS    OP
        OPENMOL  CASOP     ENMOL   CASOPE
     OPENMOLCA   SOPENMOLCASOPEN   MOLCASOPE
    OPENMOLCAS   OP           EN   MOL    CAS
    OPENMOLCAS       OP  ENM        O     LCA
    OPENMOLCAS    OPEN  MOLCASO     P  E  NMO
    OPENMOLCAS     OP               E  N  MOL
    OPENMOLCA   SO           PENM   O  L  CAS    OPEN    MO    LCAS
    OPENMOLCA   SOP           ENM   O  L  CAS   OP  EN  MOLC  AS   O
    OPENMOLCA   SOPE           NM      O  LCA   S      OP  EN MO
    OPENMOLC                AS         O  PEN   M      OL  CA  SOPE
    OPENMO        LCASOPE  NMOL        C  ASO   P      ENMOLC     AS
    OPE     NMO      LCA  SO     P     E   NM   OL  CA SO  PE N   MO
          OPENMOLCA            SOPE   NMO        LCAS  O    P  ENMO
     OPENMOLCASOPENMOLCASOPENMOLCASOPENMOLCA
        OPENMOLCASOPENMOLCASOPENMOLCASOPE
            OPENMOLCASOPENMOLCASOPENM
               OPENMOLCASOPENMOLCA        version: 24.02
                   OPENMOLCASO
                       OPE                tag: 126-g611b04c8f

 OpenMolcas is free software; you can redistribute it and/or modify it
 under the terms of the GNU Lesser General Public License version 2.1.
 OpenMolcas is distributed in the hope that it will be useful, but it
 is provided "as is" and without any express or implied warranties.
 For more details see the full text of the license in the file
 LICENSE or in <http://www.gnu.org/licenses/>.

                 Copyright (C) The OpenMolcas Authors
           For the author list and the recommended citation,
                   consult the file CONTRIBUTORS.md

           *************************************************
           * pymolcas version py2.28                       *
           *   build c4a6d18ded8cb6cad61d2372a9abd97c      *
           *   (after the EMIL interpreter by V. Veryazov) *
           *************************************************

configuration info
------------------
Host name: debian (Linux)
C Compiler ID: GNU
C flags: -std=gnu99
Fortran Compiler ID: Intel
Fortran flags: -fpp -i8 -heap-arrays
Definitions: _MOLCAS_;_I8_;_LINUX_
Parallel: OFF (GA=OFF)


   ------------------------------------------------------------------
  |
  |              Project: 1.90
  |       Submitted from: /home/grierjones/DDCASPT2/delta_ML/BeN/1.90
  |         Scratch area: /tmp/1.90
  |      Save outputs to: /home/grierjones/DDCASPT2/delta_ML/BeN/1.90
  |               Molcas: /usr/local
  |
  | Scratch area is empty
  |
  |       MOLCAS_DRIVER = /usr/local/pymolcas
  | MOLCAS_KEEP_WORKDIR = NO
  |  MOLCAS_NEW_WORKDIR = YES
  |       MOLCAS_NPROCS = 1
  |       MOLCAS_SOURCE = /usr/local
  |    MOLCAS_STRUCTURE = 0
  |
   ------------------------------------------------------------------

++ ---------   Input file   ---------

&GATEWAY
coord=1.90.xyz
Basis = ANO-RCC-MB
Group = nosymm
End of Input

&SEWARD
End of Input

&SCF
UHF

&MBPT2
Frozen
0

&RASSCF
Title= RASSCF
FileOrb
/home/grierjones/DDCASPT2/delta_ML/BeN/1.80/1.80.RasOrb

NACTEL
1 0 0
Inactive
5
RAS2
2
Symmetry
1
Spin
2
orblisting
all
ITERation
200 100
CIMX
200
SDAV
500

&CASPT2
Imaginary Shift
0.0
Frozen
0

-- ----------------------------------

--- Start Module: gateway at Thu Apr 25 13:44:59 2024 ---
 
()()()()()()()()()()()()()()()()()()()()()()()()()()()()()()()()()()()()()()()()()()()()()()()()()()

                                              &GATEWAY

                                   only a single process is used
                       available to each process: 2.0 GB of memory, 1 thread?
                                            pid: 102162
()()()()()()()()()()()()()()()()()()()()()()()()()()()()()()()()()()()()()()()()()()()()()()()()()()
 
 
++    Symmetry information:
      ---------------------
 
                    Character Table for C1 
 
                             E  
                    a        1  x, y, xy, Rz, z, xz, Ry, yz, Rx, I
--
 
 
++    Basis set information:
      ----------------------
 
 
      Basis set label: BE.ANO-RCC...2S1P.
 
      Electronic valence basis set:
      ------------------
      Associated Effective Charge   4.000000 au
      Associated Actual Charge      4.000000 au
      Nuclear Model: Point charge
 
      Shell  nPrim  nBasis  Cartesian Spherical Contaminant
         s      14       2        X                  
         p       9       1        X                  
 
 
      Basis set label: N.ANO-RCC...2S1P.
 
      Electronic valence basis set:
      ------------------
      Associated Effective Charge   7.000000 au
      Associated Actual Charge      7.000000 au
      Nuclear Model: Point charge
 
      Shell  nPrim  nBasis  Cartesian Spherical Contaminant
         s      14       2        X                  
         p       9       1        X                  
--
 
 
++    Molecular structure info:
      -------------------------
 
                    ************************************************ 
                    **** Cartesian Coordinates / Bohr, Angstrom **** 
                    ************************************************ 
 
     Center  Label                x              y              z                     x              y              z
        1      BE1              0.000000       0.000000       0.000000              0.000000       0.000000       0.000000
        2      N2               0.000000       0.000000       3.590480              0.000000       0.000000       1.900000
--
 
 
            Nuclear Potential Energy              7.79840100 au
 
--- Stop Module: gateway at Thu Apr 25 13:44:59 2024 /rc=_RC_ALL_IS_WELL_ ---
*** files: xmldump
    saved to directory /home/grierjones/DDCASPT2/delta_ML/BeN/1.90

--- Start Module: seward at Thu Apr 25 13:44:59 2024 ---
 
()()()()()()()()()()()()()()()()()()()()()()()()()()()()()()()()()()()()()()()()()()()()()()()()()()

                                              &SEWARD

                                   only a single process is used
                       available to each process: 2.0 GB of memory, 1 thread?
                                            pid: 102165
()()()()()()()()()()()()()()()()()()()()()()()()()()()()()()()()()()()()()()()()()()()()()()()()()()
 
               SEWARD will generate:
                  Multipole Moment integrals up to order  2
                  Kinetic Energy integrals
                  Nuclear Attraction integrals (point charge)
                  One-Electron Hamiltonian integrals
                  Velocity integrals
                  Relativistic Douglas-Kroll-Hess integrals:
                    - Parametrization         : EXP
                    - DKH order of Hamiltonian: 2
                    - DKH order of Properties : 0
                         - multipole moment operators
                         - electric potential operators
                         - contact operators
                  Orbital angular momentum around ( 0.0000  0.0000  2.1845 )
                  Velocity quadrupole around ( 0.0000  0.0000  2.1845 )
                  Atomic mean-field integrals
                  Two-Electron Repulsion integrals
 
                   Integrals are discarded if absolute value <: 1.00E-14
                   Integral cutoff threshold is set to       <: 1.00E-16
 
            Nuclear Potential Energy              7.79840100 au
 
 
      Basis set specifications :
      Symmetry species         a  
      Basis functions           10
 
 
      Input file to MOLDEN was generated!
 
--- Stop Module: seward at Thu Apr 25 13:45:00 2024 /rc=_RC_ALL_IS_WELL_ ---
*** files: 1.90.GssOrb 1.90.guessorb.h5 1.90.guessorb.molden xmldump
    saved to directory /home/grierjones/DDCASPT2/delta_ML/BeN/1.90

*** symbolic link created: INPORB -> 1.90.GssOrb
--- Start Module: scf at Thu Apr 25 13:45:00 2024 ---
 
()()()()()()()()()()()()()()()()()()()()()()()()()()()()()()()()()()()()()()()()()()()()()()()()()()

                                                &SCF

                                   only a single process is used
                       available to each process: 2.0 GB of memory, 1 thread?
                                            pid: 102169
()()()()()()()()()()()()()()()()()()()()()()()()()()()()()()()()()()()()()()()()()()()()()()()()()()
 
++    Input section:
      --------------
 
      Header of the integral files:
      
       Integrals generated by Gateway/Seward, Thu Apr 25 13:44:59 2024
 
 
      Cartesian coordinates in Angstrom:
      -----------------------------------------------------
      No.  Label        X            Y            Z        
      -----------------------------------------------------
       1   BE1        0.00000000   0.00000000   0.00000000
       2   N2         0.00000000   0.00000000   1.90000000
      -----------------------------------------------------
      Nuclear repulsion energy =    7.79840100
--
 
++    Orbital specifications:
      -----------------------
 
      Symmetry species               1
                                     a
      Frozen orbitals                0
      Occupied orbitals alpha        6
      Occupied orbitals beta         5
      Secondary orbitals alpha       4
      Secondary orbitals beta        5
      Deleted orbitals               0
      Total number of orbitals      10
      Number of basis functions     10
--
 
      Molecular charge                           0.000
 
++    Optimization specifications:
      ----------------------------
 
      SCF Algorithm: Conventional USCF
      D(i)-D(i-1) density differences are used
      Number of density matrices in core                 5
      Maximum number of NDDO SCF iterations            400
      Maximum number of HF SCF iterations              400
      Threshold for SCF energy change             1.00E-09
      Threshold for density matrix                1.00E-04
      Threshold for Fock matrix                   1.50E-04
      Threshold for linear dependence             1.00E-09
      Threshold at which DIIS is turned on        1.50E-01
      Maximum depth in the DIIS procedure                5
      Maximum depth in the BFGS Hessian update          30
      Threshold at which QNR/C2DIIS is turned on  7.50E-02
      Threshold for Norm(delta) (QNR/C2DIIS)      1.00E-03
      All orbitals punched on: UHFORB
--
 
      Input vectors read from INPORB
      Orbital file label: *Guess orbitals
 
 
++ Convergence information
                               UHF SCF        iterations: Energy and convergence statistics
 
Iter     Tot. SCF        One-elec.       Two-elec.     Energy      Max Dij or  Max Fij      DNorm      TNorm      AccCon     Time
         Energy          Energy          Energy        Change      Delta Norm                                                in Sec.
   1   -68.225227054  -113.299073379    37.275445323   0.00E+00    8.52E-01*   2.45E-01*    4.64E+00   1.90E+01   None         0.
   2   -65.617423911   -99.016235520    25.600410607   2.61E+00*   5.80E-01*   1.23E-01*    4.58E+00   1.52E+01   EDIIS        0.
   3   -68.669988182  -107.058112180    30.589722996  -3.05E+00*   4.57E-01*   1.52E-01*    2.57E+00   1.71E+01   EDIIS        0.
   4   -68.754639239  -110.937645002    34.384604760  -8.47E-02*   2.41E-01*   7.94E-02*    1.23E+00   1.82E+01   EDIIS        0.
   5   -68.845477514  -108.966756887    32.322878370  -9.08E-02*   1.85E-01*   4.65E-02*    5.09E-01   1.77E+01   EDIIS        0.
   6   -68.858546705  -109.569206728    32.912259020  -1.31E-02*   3.19E-01*   5.90E-02*    4.23E-01   1.78E+01   EDIIS        0.
   7   -68.873596630  -108.908677607    32.236679974  -1.50E-02*   2.34E-01*   4.61E-02*    4.73E-01   1.77E+01   EDIIS        0.
   8   -68.891111527  -109.380294303    32.690781773  -1.75E-02*   2.52E-01*   5.31E-02*    4.23E-01   1.78E+01   EDIIS        0.
   9   -68.906619435  -109.033035285    32.328014846  -1.55E-02*   1.60E-01*   3.69E-02*    4.16E-01   1.77E+01   EDIIS        0.
  10   -68.917448369  -109.160800185    32.444950813  -1.08E-02*   1.17E-01*   2.63E-02*    3.12E-01   1.77E+01   EDIIS        0.
  11   -68.924145919  -109.040638530    32.318091608  -6.70E-03*   9.14E-02*   9.31E-03*    2.45E-01   1.77E+01   c2DIIS       0.
  12   -68.926206839  -109.028785836    32.304177995  -2.06E-03*   8.38E-02*   5.43E-03*    2.15E-01   1.77E+01   c2DIIS       0.
  13   -68.927406965  -109.014854881    32.289046913  -1.20E-03*   8.40E-02*   3.79E-03*    2.00E-01   1.77E+01   c2DIIS       0.
  14   -68.928243783  -109.002993420    32.276348634  -8.37E-04*   8.45E-02*   2.93E-03*    1.90E-01   1.77E+01   c2DIIS       0.
  15   -68.928884653  -108.992873819    32.265588162  -6.41E-04*   1.05E+00*   6.56E-01*    1.83E-01   1.77E+01   c2DIIS       0.
  16   -68.896398277  -108.794413827    32.099614548   3.25E-02*   4.69E-02*   1.53E-01*    2.97E+00   1.78E+01   c2DIIS       0.
  17   -68.949843587  -108.548224880    31.799980290  -5.34E-02*   6.13E-02*   1.18E-02*    2.18E-01   1.76E+01   QNRc2DIIS    0.
  18   -68.950406360  -108.452834849    31.704027487  -5.63E-04*   3.42E-02*   4.12E-03*    8.16E-02   1.76E+01   QNRc2DIIS    0.
  19   -68.950546239  -108.433337797    31.684390555  -1.40E-04*   4.89E-02*   2.03E-03*    4.56E-02   1.76E+01   QNRc2DIIS    0.
  20   -68.950645833  -108.429601588    31.680554753  -9.96E-05*   1.85E-02*   1.71E-03*    6.93E-02   1.76E+01   QNRc2DIIS    0.
  21   -68.950664544  -108.434622107    31.685556560  -1.87E-05*   7.89E-03*   3.61E-04*    2.83E-02   1.76E+01   QNRc2DIIS    0.
  22   -68.950665755  -108.433991649    31.684924891  -1.21E-06*   2.85E-03*   1.45E-04     1.14E-02   1.76E+01   QNRc2DIIS    0.
  23   -68.950666000  -108.434870554    31.685803551  -2.45E-07*   4.45E-04    3.13E-05     3.97E-03   1.76E+01   QNRc2DIIS    0.
  24   -68.950666008  -108.434847018    31.685780007  -7.90E-09*   5.47E-05    1.06E-05     6.42E-04   1.76E+01   QNRc2DIIS    0.
  25   -68.950666008  -108.434834647    31.685767636  -3.27E-10    5.81E-06    1.21E-06     8.73E-05   1.76E+01   QNRc2DIIS    0.
 
       Convergence after  25 Macro Iterations
--
 
 *****************************************************************************************************************************
 *                                                                                                                           *
 *                                             SCF/KS-DFT Program, Final results                                             *
 *                                                                                                                           *
 *                                                                                                                           *
 *                                                                                                                           *
 *                                                       Final Results                                                       *
 *                                                                                                                           *
 *****************************************************************************************************************************
 
::    Total SCF energy                                -68.9506660084
      One-electron energy                            -108.4348346468
      Two-electron energy                              31.6857676356
      Nuclear repulsion energy                          7.7984010028
      Kinetic energy (interpolated)                    69.4491404251
      Virial theorem                                    0.9928224538
      Total spin, S(S+1)                                2.3762375021
      Total spin, S                                     1.1205670310
      Max non-diagonal density matrix element           0.0000034752
      Max non-diagonal Fock matrix element              0.0000003752
 
 
      All orbitals with orbital energies smaller than  E(LUMO)+0.5 are printed
 
++    Molecular orbitals:
      -------------------
 
      Title: UHF orbitals (alpha)

      Molecular orbitals for symmetry species 1: a  
 
          Orbital            1         2         3         4         5         6         7         8         9        10    
          Energy          -15.6648   -4.7120   -1.1764   -0.6090   -0.5936   -0.5807    0.0806    0.1645    0.1983    0.3055
          Occ. No.          1.0000    1.0000    1.0000    1.0000    1.0000    1.0000    0.0000    0.0000    0.0000    0.0000
 
        1 BE1    1s        -0.0003    1.0000    0.0221   -0.0411    0.0000   -0.0000    0.0103   -0.0000   -0.0000    0.0324
        2 BE1    2s        -0.0018    0.0030   -0.0050    0.1032    0.0000    0.0000    0.9835   -0.0000   -0.0000    0.4968
        3 BE1    2px       -0.0000   -0.0000    0.0000   -0.0000    0.0056    0.0346    0.0000    0.1428    1.0067    0.0000
        4 BE1    2py        0.0000    0.0000    0.0000    0.0000    0.0395   -0.0049   -0.0000    1.0065   -0.1428    0.0000
        5 BE1    2pz       -0.0018    0.0010   -0.0142    0.1130   -0.0000    0.0000   -0.2923   -0.0000   -0.0000    1.1251
        6 N2     1s         1.0001   -0.0001   -0.0017   -0.0093    0.0000   -0.0000   -0.0136    0.0000    0.0000   -0.0745
        7 N2     2s        -0.0013    0.0002   -0.9923   -0.1084    0.0000   -0.0000   -0.1627    0.0000    0.0000   -0.6246
        8 N2     2px        0.0000   -0.0000   -0.0000   -0.0000    0.1393    0.9831    0.0000   -0.0318   -0.2193   -0.0000
        9 N2     2py        0.0000   -0.0000    0.0000    0.0000    0.9821   -0.1395   -0.0000   -0.2240    0.0311   -0.0000
       10 N2     2pz       -0.0010   -0.0007    0.0263   -0.9426    0.0000   -0.0000    0.2136   -0.0000   -0.0000    0.4882
--
 
 
      Input file to MOLDEN was generated!
 
 
++    Static properties:
      ------------------
 
 
      LoProp Charges per center
 

                   BE1      N2    
      Nuclear      4.0000   7.0000
      Electronic  -3.8246  -7.1754
 
      Total        0.1754  -0.1754
--
 
 
      All orbitals with orbital energies smaller than  E(LUMO)+0.5 are printed
 
++    Molecular orbitals:
      -------------------
 
      Title: UHF orbitals (beta)

      Molecular orbitals for symmetry species 1: a  
 
          Orbital            1         2         3         4         5         6         7         8         9        10    
          Energy          -15.5766   -4.7440   -0.8024   -0.3547   -0.2491    0.0433    0.0605    0.1929    0.2463    0.3882
          Occ. No.          1.0000    1.0000    1.0000    1.0000    1.0000    0.0000    0.0000    0.0000    0.0000    0.0000
 
        1 BE1    1s        -0.0001    1.0000    0.0235   -0.0024   -0.0000    0.0000    0.0174   -0.0000   -0.0000    0.0491
        2 BE1    2s        -0.0006    0.0043   -0.1474    0.9574    0.0000   -0.0000    0.0037   -0.0000   -0.0000    0.5352
        3 BE1    2px       -0.0000    0.0000   -0.0000   -0.0000    0.8925    0.1248    0.0000   -0.4670    0.0697   -0.0000
        4 BE1    2py        0.0000    0.0000    0.0000    0.0000   -0.1266    0.8794   -0.0000    0.0663    0.4912    0.0000
        5 BE1    2pz       -0.0005    0.0006   -0.0840   -0.2050    0.0000   -0.0000   -0.7380   -0.0000    0.0000    0.8778
        6 N2     1s         1.0000   -0.0001    0.0005   -0.0193   -0.0000    0.0000    0.0410    0.0000    0.0000   -0.0636
        7 N2     2s        -0.0083    0.0000   -0.9026   -0.3372   -0.0000    0.0000    0.4405    0.0000   -0.0000   -0.5390
        8 N2     2px        0.0000   -0.0000    0.0000    0.0000    0.2948    0.0455   -0.0000    0.9632   -0.1355    0.0000
        9 N2     2py        0.0000    0.0000   -0.0000   -0.0000   -0.0418    0.3210   -0.0000   -0.1367   -0.9548   -0.0000
       10 N2     2pz       -0.0005   -0.0000    0.0834   -0.1223   -0.0000    0.0000    0.5819    0.0000   -0.0000    0.9015
--
 
 
++    Molecular charges:
      ------------------
 
      Mulliken charges per centre and basis function type
      ---------------------------------------------------
 
                            BE1                     N2    
                     alpha        beta       alpha        beta
      1s           1.0001      1.0000      1.0001      1.0000
      2s           0.0318      0.9129      0.9949      0.9331
      2px          0.0076      0.8449      0.9924      0.1353
      2pz          0.0380      0.1057      0.9350      0.0483
      2py          0.0089      0.0170      0.9911      0.0027
      Total        1.0864      2.8806      4.9136      2.1194
      Total              3.9670                  7.0330
 
      Charge            0.0330                 -0.0330
 
      Total electronic charge=   11.000000
 
      Total            charge=   -0.000000
--
 
 
      Input file to MOLDEN was generated!
 
 
++    Static properties:
      ------------------
 
 
      LoProp Charges per center
 

                   BE1      N2    
      Nuclear      4.0000   7.0000
      Electronic  -3.8246  -7.1754
 
      Total        0.1754  -0.1754
--
 
 
++    Natural Bond Order analysis
      ---------------------------
      Based on LoProp computed density
      -------------------------------------------------------------------------------------
      Atom A       Atom B       Bond Order
      -------------------------------------------------------------------------------------
      NBO located      0.999 non-bonded electrons on atom BE1       
      The remaining    4.639 electrons are to be considered as diffuse
--
 
 
++    Molecular orbitals:
      -------------------
 
      Title: Natural orbitals

      Molecular orbitals for symmetry species 1: a  
 
          Orbital            1         2         3         4         5         6         7         8         9        10    
          Energy          -15.6137   -4.7280   -0.9902   -0.2605   -0.2969   -0.2012   -0.0774    0.0412    0.3037    0.1315
          Occ. No.          2.0000    2.0000    1.9974    1.4949    1.3659    1.0000    0.6341    0.5051    0.0026    0.0000
 
        1 BE1    1s         0.0003    1.0000    0.0236   -0.0000   -0.0251    0.0000   -0.0309   -0.0000    0.0329    0.0000
        2 BE1    2s        -0.0020    0.0029   -0.0303    0.0000    0.6473    0.0000   -0.7681   -0.0000    0.4636    0.0000
        3 BE1    2px        0.0000   -0.0000    0.0000    0.5357   -0.0000    0.0056    0.0000   -0.8530   -0.0000    0.1428
        4 BE1    2py        0.0000    0.0000    0.0000   -0.0760    0.0000    0.0393   -0.0000    0.1210   -0.0000    1.0065
        5 BE1    2pz       -0.0023    0.0009   -0.0646    0.0000   -0.0523   -0.0000    0.2733    0.0000    1.1325    0.0000
        6 N2     1s         0.9998   -0.0001   -0.0229   -0.0000   -0.0174   -0.0000    0.0076    0.0000   -0.0749   -0.0000
        7 N2     2s        -0.0256   -0.0003   -0.9562   -0.0000   -0.2618   -0.0000    0.0431    0.0000   -0.6539   -0.0000
        8 N2     2px        0.0000   -0.0000    0.0000    0.7399   -0.0000    0.1393   -0.0000    0.6835    0.0000   -0.0318
        9 N2     2py        0.0000    0.0000   -0.0000   -0.1050    0.0000    0.9821    0.0000   -0.0970    0.0000   -0.2238
       10 N2     2pz        0.0009    0.0002    0.0889   -0.0000   -0.6451    0.0000   -0.7175   -0.0000    0.4840    0.0000
--
 
 
++    Molecular properties:
      ---------------------
 
      Charge (e):
                      =   -0.0000
      Dipole Moment (Debye):
      Origin of the operator (Ang)=    0.0000    0.0000    0.0000
                   X=  3.6019E-13               Y= -5.8475E-14               Z=  7.2736E-01           Total=  7.2736E-01
      Quadrupole Moment (Debye*Ang):
      Origin of the operator (Ang)=    0.0000    0.0000    1.1560
                  XX= -1.5361E+01              XY=  5.9975E-01              XZ= -1.5898E-12              YY= -1.1219E+01
                  YZ=  2.7086E-13              ZZ= -1.2936E+01
      In traceless form (Debye*Ang)
                  XX= -3.2832E+00              XY=  8.9962E-01              XZ= -2.3847E-12              YY=  2.9297E+00
                  YZ=  4.0628E-13              ZZ=  3.5350E-01
--
 
 
      Input file to MOLDEN was generated!
 
 ###############################################################################
 ###############################################################################
 ###                                                                         ###
 ###                                                                         ###
 ###    WARNING: RunFile label nBas                                          ###
 ###    was used       87 times                                              ###
 ###                                                                         ###
 ###                                                                         ###
 ###############################################################################
 ###############################################################################
--- Stop Module: scf at Thu Apr 25 13:45:00 2024 /rc=_RC_ALL_IS_WELL_ ---
*** files: 1.90.LprOrb 1.90.LoProp.molden 1.90.scf.molden 1.90.scf.h5 1.90.UhfOrb 1.90.UnaOrb xmldump
    saved to directory /home/grierjones/DDCASPT2/delta_ML/BeN/1.90

*** symbolic link created: INPORB -> 1.90.UnaOrb
--- Start Module: mbpt2 at Thu Apr 25 13:45:00 2024 ---
 
()()()()()()()()()()()()()()()()()()()()()()()()()()()()()()()()()()()()()()()()()()()()()()()()()()

                                               &MBPT2

                                   only a single process is used
                       available to each process: 2.0 GB of memory, 1 thread?
                                            pid: 102172
()()()()()()()()()()()()()()()()()()()()()()()()()()()()()()()()()()()()()()()()()()()()()()()()()()
 
 
 ###############################################################################
 ###############################################################################
 ###                                                                         ###
 ###                                                                         ###
 ###    WARNING: MP2 implementation intended for RHF references only         ###
 ###                                                                         ###
 ###                                                                         ###
 ###############################################################################
 ###############################################################################
MBPT2 WARNING: Reference function according to RunFile:UHF-SCF 
I'll assume you know what you're doing and continue
 
 
WARNING!
Default frozen orbitals as non valence orbitals is overwritten by user input.
Default values:   2
 
 
      Cartesian coordinates in Angstrom:
      -----------------------------------------------------
      No.  Label        X            Y            Z        
      -----------------------------------------------------
       1   BE1        0.00000000   0.00000000   0.00000000
       2   N2         0.00000000   0.00000000   1.90000000
      -----------------------------------------------------
      Nuclear repulsion energy =    7.79840100
 
      Contents of RUNFILE file:
      -------------------------
 
      Symmetry species                           1
                                                 a
      Number of basis functions                 10
      Frozen occupied orbitals                   0
      Active occupied orbitals                   6
      Active external orbitals                   4
      Deleted external orbitals                  0
 
 
      Energies of the active occupied orbitals
 
      symmetry species 1                   -15.664780     -4.711960     -1.176380     -0.609006     -0.593624
                                            -0.580738
 
 
      Energies of the active external orbitals
 
      symmetry species 1                     0.080634      0.164512      0.198270      0.305496
 
 
      ********************************************************************************************************
      *                                               Results                                                *
      ********************************************************************************************************
 
 Conventional algorithm used...

       SCF energy                           =      -68.9506660084 a.u.
       Second-order correlation energy      =       -0.0077131102 a.u.

       Total energy                         =      -68.9583791186 a.u.
       Reference weight ( Cref**2 )         =        0.99586
 
::    Total MBPT2 energy                              -68.9583791186
 
 
       Zeroth-order energy (E0)             =      -38.8745758126 a.u.
 
       Shanks-type energy S1(E)             =      -68.9583810971 a.u.
 
 


       Data processing and timing information:

       Section                                              time(sec)
                                                          CPU  Elapsed

      Input data processing                              0.02      0.05
      Transformation of integrals                        0.00      0.00
      MBPT2 calculations (BJAI)                          0.00      0.00
      Total MBPT2 calculations                           0.02      0.05
 
 
--- Stop Module: mbpt2 at Thu Apr 25 13:45:00 2024 /rc=_RC_ALL_IS_WELL_ ---
*** files: xmldump
    saved to directory /home/grierjones/DDCASPT2/delta_ML/BeN/1.90

*** symbolic link created: INPORB -> 1.90.UnaOrb
--- Start Module: rasscf at Thu Apr 25 13:45:00 2024 ---
 
()()()()()()()()()()()()()()()()()()()()()()()()()()()()()()()()()()()()()()()()()()()()()()()()()()

                                              &RASSCF

                                   only a single process is used
                       available to each process: 2.0 GB of memory, 1 thread?
                                            pid: 102175
()()()()()()()()()()()()()()()()()()()()()()()()()()()()()()()()()()()()()()()()()()()()()()()()()()
 
 
      Header of the ONEINT file:
      --------------------------
      
      Integrals generated by Gateway/Seward, Thu Apr 25 13:44:59 2024
 
 
      OrdInt status: non-squared
 
 
      Cartesian coordinates in Angstrom:
      -----------------------------------------------------
      No.  Label        X            Y            Z        
      -----------------------------------------------------
       1   BE1        0.00000000   0.00000000   0.00000000
       2   N2         0.00000000   0.00000000   1.90000000
      -----------------------------------------------------
      Nuclear repulsion energy =    7.79840100
 
++    Wave function specifications:
      -----------------------------
 
      Number of closed shell electrons          10
      Number of electrons in active shells       1
      Max number of holes in RAS1 space          0
      Max nr of electrons in RAS3 space          0
      Number of inactive orbitals                5
      Number of active orbitals                  2
      Number of secondary orbitals               3
      Spin quantum number                      0.5
      State symmetry                             1
--
 
++    Orbital specifications:
      -----------------------
 
      Symmetry species                           1
                                                 a
      Frozen orbitals                            0
      Inactive orbitals                          5
      Active orbitals                            2
      RAS1 orbitals                              0
      RAS2 orbitals                              2
      RAS3 orbitals                              0
      Secondary orbitals                         3
      Deleted orbitals                           0
      Number of basis functions                 10
--
 
++    CI expansion specifications:
      ----------------------------
 
      Number of CSFs                             2
      Number of determinants                     2
      Number of root(s) required                 1
      Root chosen for geometry opt.              1
      CI root used                               1
         
      highest root included in the CI            1
      max. size of the explicit Hamiltonian      2
--
 
++    Optimization specifications:
      ----------------------------
 
      RASSCF algorithm: Conventional
      Maximum number of macro iterations       200
      Maximum number of SX iterations          100
      Threshold for RASSCF energy            1.000E-08
      Threshold for max MO rotation          1.000E-01
      Threshold for max BLB element          1.000E-04
      Level shift parameter                  5.000E-01
      Make Quasi-Newton update
--
 
      The MO-coefficients are taken from the file:
      /home/grierjones/DDCASPT2/delta_ML/BeN/1.80/1.80.RasOrb                                                                                                                                                                                                         
      Title: RASSCF average (pseudo-natural) orbitals                                      
 
      Total molecular charge    0.00
 
      ************************************************************************************************************************
      *                                                                                                                      *
      *                                            Wave function control section                                             *
      *                                                                                                                      *
      ************************************************************************************************************************
 
 
                                         RASSCF iterations: Energy and convergence statistics
                                         ----------------------------------------------------
 
      Iter CI   SX   CI       RASSCF       Energy    max ROT     max BLB   max BLB  Level Ln srch  Step   QN   Walltime
          iter iter root      energy       change     param      element    value   shift minimum  type update hh:mm:ss
 Nr of preliminary CI iterations:   1
 ###############################################################################
 ###############################################################################
 ###                                                                         ###
 ###                                                                         ###
 ###    WARNING: Problems in orbital optimization.                           ###
 ###                                                                         ###
 ###                                                                         ###
 ###############################################################################
 ###############################################################################
  Warning: In symmetry  1, orbital p=   7 has diagonal density matrix element D(p,p) close to zero. D(p,p)=  8.535328E-28
        1   1    5    1   -68.72864585    0.00E+00  -1.26E-02    6  10 1  1.30E-02*  0.50   0.00    SX    NO    0:00:00
 ###############################################################################
 ###############################################################################
 ###                                                                         ###
 ###                                                                         ###
 ###    WARNING: Problems in orbital optimization.                           ###
 ###                                                                         ###
 ###                                                                         ###
 ###############################################################################
 ###############################################################################
  Warning: In symmetry  1, orbital p=   7 has diagonal density matrix element D(p,p) close to zero. D(p,p)=  1.661106E-27
        2   1    4    1   -68.72916696   -5.21E-04*  6.80E-03    3   6 1 -8.15E-03*  0.50   0.00    SX    NO    0:00:00
 ###############################################################################
 ###############################################################################
 ###                                                                         ###
 ###                                                                         ###
 ###    WARNING: Problems in orbital optimization.                           ###
 ###                                                                         ###
 ###                                                                         ###
 ###############################################################################
 ###############################################################################
  Warning: In symmetry  1, orbital p=   7 has diagonal density matrix element D(p,p) close to zero. D(p,p)=  7.867809E-29
        3   1    4    1   -68.72946636   -2.99E-04* -9.05E-03    6  10 1  6.80E-03*  0.50   0.00    SX    NO    0:00:00
 ###############################################################################
 ###############################################################################
 ###                                                                         ###
 ###                                                                         ###
 ###    WARNING: Problems in orbital optimization.                           ###
 ###                                                                         ###
 ###                                                                         ###
 ###############################################################################
 ###############################################################################
  Warning: In symmetry  1, orbital p=   7 has diagonal density matrix element D(p,p) close to zero. D(p,p)=  3.267658E-28
        4   1    4    1   -68.72970872   -2.42E-04* -9.04E-03    6   8 1  5.75E-03*  0.50   0.00    SX    NO    0:00:00
 ###############################################################################
 ###############################################################################
 ###                                                                         ###
 ###                                                                         ###
 ###    WARNING: Problems in orbital optimization.                           ###
 ###                                                                         ###
 ###                                                                         ###
 ###############################################################################
 ###############################################################################
  Warning: In symmetry  1, orbital p=   7 has diagonal density matrix element D(p,p) close to zero. D(p,p)=  3.618082E-28
        5   1    4    1   -68.72992828   -2.20E-04* -2.00E-01*   6   8 1  6.03E-03*  0.50   2.50    QN   YES    0:00:00
 ###############################################################################
 ###############################################################################
 ###                                                                         ###
 ###                                                                         ###
 ###    WARNING: Problems in orbital optimization.                           ###
 ###                                                                         ###
 ###                                                                         ###
 ###############################################################################
 ###############################################################################
  Warning: In symmetry  1, orbital p=   7 has diagonal density matrix element D(p,p) close to zero. D(p,p)=  3.323895E-24
        6   1    4    1   -68.73476595   -4.84E-03* -1.73E-01*   6   8 1  1.51E-02*  0.50   2.50    LS   YES    0:00:00
 ###############################################################################
 ###############################################################################
 ###                                                                         ###
 ###                                                                         ###
 ###    WARNING: Problems in orbital optimization.                           ###
 ###                                                                         ###
 ###                                                                         ###
 ###############################################################################
 ###############################################################################
  Warning: In symmetry  1, orbital p=   7 has diagonal density matrix element D(p,p) close to zero. D(p,p)=  4.682557E-23
        7   1    5    1   -68.73907366   -4.31E-03* -2.38E-01*   3   8 1  2.88E-02*  0.50   1.38    QN   YES    0:00:00
 ###############################################################################
 ###############################################################################
 ###                                                                         ###
 ###                                                                         ###
 ###    WARNING: Problems in orbital optimization.                           ###
 ###                                                                         ###
 ###                                                                         ###
 ###############################################################################
 ###############################################################################
  Warning: In symmetry  1, orbital p=   7 has diagonal density matrix element D(p,p) close to zero. D(p,p)=  2.453223E-22
        8   1    5    1   -68.73828290    7.91E-04* -6.13E-02    6  10 1 -6.39E-02*  0.50   0.51    QN   YES    0:00:00
 ###############################################################################
 ###############################################################################
 ###                                                                         ###
 ###                                                                         ###
 ###    WARNING: Problems in orbital optimization.                           ###
 ###                                                                         ###
 ###                                                                         ###
 ###############################################################################
 ###############################################################################
  Warning: In symmetry  1, orbital p=   7 has diagonal density matrix element D(p,p) close to zero. D(p,p)=  1.737304E-22
        9   1    5    1   -68.74343414   -5.15E-03* -4.95E-02    3   8 1  4.54E-02*  0.50   2.16    QN   YES    0:00:00
 ###############################################################################
 ###############################################################################
 ###                                                                         ###
 ###                                                                         ###
 ###    WARNING: Problems in orbital optimization.                           ###
 ###                                                                         ###
 ###                                                                         ###
 ###############################################################################
 ###############################################################################
  Warning: In symmetry  1, orbital p=   7 has diagonal density matrix element D(p,p) close to zero. D(p,p)=  1.807996E-22
       10   1    5    1   -68.75048722   -7.05E-03* -6.21E-02    3   8 1  2.45E-02*  0.50   2.50    LS   YES    0:00:00
 ###############################################################################
 ###############################################################################
 ###                                                                         ###
 ###                                                                         ###
 ###    WARNING: Problems in orbital optimization.                           ###
 ###                                                                         ###
 ###                                                                         ###
 ###############################################################################
 ###############################################################################
  Warning: In symmetry  1, orbital p=   7 has diagonal density matrix element D(p,p) close to zero. D(p,p)=  1.861201E-22
       11   1    4    1   -68.75453007   -4.04E-03* -1.01E-01*   6   8 1  1.90E-02*  0.50   1.24    QN   YES    0:00:00
 ###############################################################################
 ###############################################################################
 ###                                                                         ###
 ###                                                                         ###
 ###    WARNING: Problems in orbital optimization.                           ###
 ###                                                                         ###
 ###                                                                         ###
 ###############################################################################
 ###############################################################################
  Warning: In symmetry  1, orbital p=   7 has diagonal density matrix element D(p,p) close to zero. D(p,p)=  2.576870E-22
       12   1    4    1   -68.75834626   -3.82E-03* -1.05E-01*   6   8 1  1.30E-02*  0.50   2.33    LS   YES    0:00:00
 ###############################################################################
 ###############################################################################
 ###                                                                         ###
 ###                                                                         ###
 ###    WARNING: Problems in orbital optimization.                           ###
 ###                                                                         ###
 ###                                                                         ###
 ###############################################################################
 ###############################################################################
  Warning: In symmetry  1, orbital p=   7 has diagonal density matrix element D(p,p) close to zero. D(p,p)=  3.157914E-22
       13   1    4    1   -68.76035958   -2.01E-03* -3.56E-02    3   8 1 -2.09E-02*  0.50   1.25    QN   YES    0:00:00
 ###############################################################################
 ###############################################################################
 ###                                                                         ###
 ###                                                                         ###
 ###    WARNING: Problems in orbital optimization.                           ###
 ###                                                                         ###
 ###                                                                         ###
 ###############################################################################
 ###############################################################################
  Warning: In symmetry  1, orbital p=   7 has diagonal density matrix element D(p,p) close to zero. D(p,p)=  3.676888E-22
       14   1    4    1   -68.76078161   -4.22E-04* -4.95E-03    3   8 1 -9.90E-03*  0.50   1.14    QN   YES    0:00:00
 ###############################################################################
 ###############################################################################
 ###                                                                         ###
 ###                                                                         ###
 ###    WARNING: Problems in orbital optimization.                           ###
 ###                                                                         ###
 ###                                                                         ###
 ###############################################################################
 ###############################################################################
  Warning: In symmetry  1, orbital p=   7 has diagonal density matrix element D(p,p) close to zero. D(p,p)=  4.153706E-22
       15   1    4    1   -68.76086884   -8.72E-05* -2.00E-03    3   8 1 -2.58E-03*  0.50   1.40    LS   YES    0:00:00
 ###############################################################################
 ###############################################################################
 ###                                                                         ###
 ###                                                                         ###
 ###    WARNING: Problems in orbital optimization.                           ###
 ###                                                                         ###
 ###                                                                         ###
 ###############################################################################
 ###############################################################################
  Warning: In symmetry  1, orbital p=   7 has diagonal density matrix element D(p,p) close to zero. D(p,p)=  4.355578E-22
       16   1    4    1   -68.76087674   -7.90E-06*  9.05E-04    5   9 1  1.44E-03*  0.50   1.01    QN   YES    0:00:00
 ###############################################################################
 ###############################################################################
 ###                                                                         ###
 ###                                                                         ###
 ###    WARNING: Problems in orbital optimization.                           ###
 ###                                                                         ###
 ###                                                                         ###
 ###############################################################################
 ###############################################################################
  Warning: In symmetry  1, orbital p=   7 has diagonal density matrix element D(p,p) close to zero. D(p,p)=  4.874670E-22
       17   1    3    1   -68.76088056   -3.81E-06*  2.79E-04    5   9 1  3.97E-04*  0.50   1.25    QN   YES    0:00:00
 ###############################################################################
 ###############################################################################
 ###                                                                         ###
 ###                                                                         ###
 ###    WARNING: Problems in orbital optimization.                           ###
 ###                                                                         ###
 ###                                                                         ###
 ###############################################################################
 ###############################################################################
  Warning: In symmetry  1, orbital p=   7 has diagonal density matrix element D(p,p) close to zero. D(p,p)=  5.727753E-22
       18   1    3    1   -68.76088088   -3.19E-07* -9.52E-05    3  10 1  2.08E-04*  0.50   1.17    QN   YES    0:00:00
 ###############################################################################
 ###############################################################################
 ###                                                                         ###
 ###                                                                         ###
 ###    WARNING: Problems in orbital optimization.                           ###
 ###                                                                         ###
 ###                                                                         ###
 ###############################################################################
 ###############################################################################
  Warning: In symmetry  1, orbital p=   7 has diagonal density matrix element D(p,p) close to zero. D(p,p)=  6.800225E-22
       19   1    3    1   -68.76088091   -3.57E-08*  4.92E-05    3  10 1  9.87E-05   0.50   1.51    QN   YES    0:00:00
 ###############################################################################
 ###############################################################################
 ###                                                                         ###
 ###                                                                         ###
 ###    WARNING: Problems in orbital optimization.                           ###
 ###                                                                         ###
 ###                                                                         ###
 ###############################################################################
 ###############################################################################
  Warning: In symmetry  1, orbital p=   7 has diagonal density matrix element D(p,p) close to zero. D(p,p)=  8.594809E-22
       20   1    3    1   -68.76088092   -8.10E-09   9.76E-06    3   6 1 -1.07E-05   0.50   1.10    QN   YES    0:00:00
      Convergence after 20 iterations
       21   1    3    1   -68.76088092   -2.74E-10   9.76E-06    3   6 1 -3.97E-06   0.50   1.10    QN   YES    0:00:00
 
      ************************************************************************************************************************
                                                      Wave function printout:
                       occupation of active orbitals, and spin coupling of open shells (u,d: Spin up or down)
      ************************************************************************************************************************
 
      Note: transformation to natural orbitals
      has been made, which may change the order of the CSFs.
 
      printout of CI-coefficients larger than  0.05 for root  1
      energy=     -68.760881
      conf/sym  11     Coeff  Weight
             1  u0   1.00000 1.00000
 
      Natural orbitals and occupation numbers for root  1
      sym 1:   1.000000   0.000000
 
      ************************************************************************************************************************
      *                                                                                                                      *
      *                                                    Final results                                                     *
      *                                                                                                                      *
      ************************************************************************************************************************
 
 
++    Wave function specifications:
      -----------------------------
 
      Number of closed shell electrons          10
      Number of electrons in active shells       1
      Max number of holes in RAS1 space          0
      Max nr of electrons in RAS3 space          0
      Number of inactive orbitals                5
      Number of active orbitals                  2
      Number of secondary orbitals               3
      Spin quantum number                      0.5
      State symmetry                             1
--
 
++    Orbital specifications:
      -----------------------
 
      Symmetry species                           1
                                                 a
      Frozen orbitals                            0
      Inactive orbitals                          5
      Active orbitals                            2
      RAS1 orbitals                              0
      RAS2 orbitals                              2
      RAS3 orbitals                              0
      Secondary orbitals                         3
      Deleted orbitals                           0
      Number of basis functions                 10
--
 
++    CI expansion specifications:
      ----------------------------
 
      Number of CSFs                             2
      Number of determinants                     2
      Number of root(s) required                 1
      CI root used                               1
      highest root included in the CI            1
      Root passed to geometry opt.               1
--
 
++    Final optimization conditions:
      ------------------------------
 
      Average CI energy                             -68.76088092
      RASSCF energy for state  1                    -68.76088092
      Super-CI energy                                -0.00000000
      RASSCF energy change                           -0.00000000
      Max change in MO coefficients              -1.269E-05
      Max non-diagonal density matrix element     9.756E-06
      Maximum BLB matrix element                 -3.969E-06
      (orbital pair   3,   6 in symmetry   1)
      Norm of electronic gradient            5.744E-06
--
 
 
      Final state energy(ies):
      ------------------------
 
::    RASSCF root number  1 Total energy:    -68.76088092
 
++    Molecular orbitals:
      -------------------
 
      Pseudonatural active orbitals and approximate occupation numbers
 
 
 
 
      Molecular orbitals for symmetry species 1: a  
 
 
      Orbital                 1         2         3         4         5         6         7         8         9        10
      Energy           -15.4316   -4.8291   -0.8831   -0.3296   -0.3296   -0.1919    0.0000    0.0580    0.1047    0.3976
      Occ. No.           2.0000    2.0000    2.0000    2.0000    2.0000    1.0000    0.0000    0.0000    0.0000    0.0000
 
     1 BE1    1s        -0.0002    1.0000   -0.0224   -0.0000    0.0000    0.0034   -0.0000    0.0183    0.0000    0.0494
     2 BE1    2s        -0.0012    0.0031    0.0843    0.0000   -0.0000   -0.9424    0.0000   -0.0680   -0.0000    0.5701
     3 BE1    2px       -0.0000   -0.0000   -0.0000   -0.0204    0.2998   -0.0000   -0.9436   -0.0000    0.2331   -0.0000
     4 BE1    2py        0.0000    0.0000   -0.0000    0.2998    0.0204   -0.0000   -0.2331    0.0000   -0.9436   -0.0000
     5 BE1    2pz       -0.0013    0.0007    0.0808    0.0000   -0.0000    0.2841   -0.0000   -0.7236   -0.0000    0.8680
     6 N2     1s         1.0001   -0.0001   -0.0018   -0.0000    0.0000    0.0134   -0.0000    0.0412    0.0000   -0.0637
     7 N2     2s        -0.0042    0.0003    0.9331   -0.0000    0.0000    0.2243   -0.0000    0.4331    0.0000   -0.5517
     8 N2     2px       -0.0000   -0.0000   -0.0000   -0.0611    0.8980   -0.0000    0.4603   -0.0000   -0.1137   -0.0000
     9 N2     2py       -0.0000   -0.0000   -0.0000    0.8980    0.0611    0.0000    0.1137   -0.0000    0.4603    0.0000
    10 N2     2pz       -0.0005   -0.0002   -0.0551   -0.0000    0.0000    0.1185   -0.0000    0.5920    0.0000    0.8976
--
 
      Von Neumann Entropy (Root   1) =  0.50000
 

      Mulliken population analysis for root number:  1
      -----------------------------------------------
 
 
++    Molecular charges:
      ------------------
 
      Mulliken charges per centre and basis function type
      ---------------------------------------------------
 
                BE1     N2    
      1s       2.0000  2.0001
      2s       0.9146  1.8646
      2px      0.2801  1.7199
      2pz      0.1777  0.0429
      2py      0.2801  1.7199
      Total    3.6525  7.3475
 
      N-E      0.3475 -0.3475
 
      Total electronic charge=   11.000000
 
      Total            charge=   -0.000000
--
 
 

      Expectation values of various properties for root number:  1
      -----------------------------------------------------------
 
 
++    Molecular properties:
      ---------------------
 
      Charge (e):
                      =   -0.0000
      Dipole Moment (Debye):
      Origin of the operator (Ang)=    0.0000    0.0000    0.0000
                   X= -1.1355E-10               Y= -1.0642E-11               Z= -1.9468E+00           Total=  1.9468E+00
      Quadrupole Moment (Debye*Ang):
      Origin of the operator (Ang)=    0.0000    0.0000    1.1560
                  XX= -1.2936E+01              XY=  1.2243E-14              XZ= -8.0457E-12              YY= -1.2936E+01
                  YZ=  1.5689E-11              ZZ= -1.0168E+01
      In traceless form (Debye*Ang)
                  XX= -1.3836E+00              XY=  1.8365E-14              XZ= -1.2068E-11              YY= -1.3836E+00
                  YZ=  2.3534E-11              ZZ=  2.7673E+00
--
 

      Mulliken spin population analysis for root number:  1
      ---------------------------------------------------
 
 
++    Molecular charges:
      ------------------
 
      Mulliken spin population per centre and basis function type
      ---------------------------------------------------
 
                BE1     N2    
      1s       0.0000 -0.0000
      2s       0.8523  0.0152
      2px      0.0000  0.0000
      2pz      0.0998  0.0327
      2py      0.0000  0.0000
      Total    0.9521  0.0479
 
      Total electronic spin=    1.000000
--
 
 

      LoProp population analysis for root number:  1
      -----------------------------------------------
 
 
++    LoProp analysis:
      ----------------
 
 
 
      Input file to MOLDEN was generated!
 
 
++    Static properties:
      ------------------
 
 
      LoProp Charges per center
 

                   BE1      N2    
      Nuclear      4.0000   7.0000
      Electronic  -3.3852  -7.6148
 
      Total        0.6148  -0.6148
--
 
 
      Natural Bond Order analysis for root number:  1
 
++    Natural Bond Order analysis
      ---------------------------
      Based on LoProp computed density
      -------------------------------------------------------------------------------------
      Atom A       Atom B       Bond Order
      -------------------------------------------------------------------------------------
      NBO located      0.999 non-bonded electrons on atom BE1       
      The remaining    4.795 electrons are to be considered as diffuse
--
 
--
 
 
      Input file to MOLDEN was generated!
 
 
      Input file to MOLDEN was generated!
 
      Average orbitals are written to the RASORB file
      Natural orbitals for root   1 are written to the RASORB.1 file
      Spin density orbitals for root   1 are written to the SPDORB.1 file
 
--- Stop Module: rasscf at Thu Apr 25 13:45:01 2024 /rc=_RC_ALL_IS_WELL_ ---
*** files: 1.90.LprOrb 1.90.rasscf.molden 1.90.rasscf.molden.1 1.90.LoProp.molden 1.90.RasOrb 1.90.RasOrb.1 1.90.rasscf.h5 1.90.SpdOrb.1 xmldump
    saved to directory /home/grierjones/DDCASPT2/delta_ML/BeN/1.90

*** symbolic link created: INPORB -> 1.90.RasOrb
--- Start Module: caspt2 at Thu Apr 25 13:45:01 2024 ---
 
()()()()()()()()()()()()()()()()()()()()()()()()()()()()()()()()()()()()()()()()()()()()()()()()()()

                                              &CASPT2

                                   only a single process is used
                       available to each process: 2.0 GB of memory, 1 thread?
                                            pid: 102179
()()()()()()()()()()()()()()()()()()()()()()()()()()()()()()()()()()()()()()()()()()()()()()()()()()
 
 ###############################################################################
 ###############################################################################
 ###                                                                         ###
 ###                                                                         ###
 ###    WARNING: User changed nr of frozen orbitals.                         ###
 ###                                                                         ###
 ###                                                                         ###
 ###############################################################################
 ###############################################################################
 
++    Wave function specifications:
      -----------------------------
 
      Number of closed shell electrons          10
      Number of electrons in active shells       1
      Max number of holes in RAS1 space          0
      Max number of electrons in RAS3 space      0
      Number of inactive orbitals                5
      Number of active orbitals                  2
      Number of secondary orbitals               3
      Spin quantum number                      0.5
      State symmetry                             1
      Number of CSFs                             2
      Number of CASSCF root(s) available         1
      CASPT2 state passed to geometry opt.       1
      A file JOBMIX will be created
      This is a CASSCF or RASSCF reference function
--
 
++    Orbital specifications:
      -----------------------
 
      Symmetry species                           1
                                                 a
      Frozen orbitals                            0
      Inactive orbitals                          5
      Active orbitals                            2
      Secondary orbitals                         3
      Deleted orbitals                           0
      Number of basis functions                 10
--
 
++    CASPT2 specifications:
      ----------------------
 
      Type of calculation                        SS-CASPT2
      Fock operator                              state-specific
      IPEA shift                                 0.25
      Real shift                                 0.00
      Imaginary shift                            0.00
      The input orbitals will be transformed to quasi-canonical
--
 
--------------------------------------------------------------------------------
 Estimated memory requirements:
  POLY3 :                   250056
  RHS:                      250476
  SIGMA :                   250480
  PRPCTL:                        0
 Available workspace:    230392719
 
++ CASPT2 computation for group   1
 
********************************************************************************
 Multi-State initialization phase begins for group   1
--------------------------------------------------------------------------------
********************************************************************************
 Compute H0 matrices for state    1
--------------------------------------------------------------------------------
--------------------------------------------------------------------------------
 H0 matrices have been computed.
 
********************************************************************************
  CASPT2 EQUATION SOLUTION
--------------------------------------------------------------------------------
 
  Total nr of CASPT2 parameters:
   Before reduction:         620
   After  reduction:         438
 
 Variance of |WF0>:       0.0871702672
 
 The contributions to the second order correlation energy in atomic units.
-----------------------------------------------------------------------------------------------------------------------------
  IT.      VJTU        VJTI        ATVX        AIVX        VJAI        BVAT        BJAT        BJAI        TOTAL       RNORM  
-----------------------------------------------------------------------------------------------------------------------------
   1    -0.000788   -0.009137   -0.000000   -0.004758   -0.027004    0.000000   -0.004783   -0.024927   -0.071397    0.000057
-----------------------------------------------------------------------------------------------------------------------------
 
  FINAL CASPT2 RESULT:
 
      Reference energy:         -68.7608809218
      E2 (Non-variational):      -0.0714024261
      E2 (Variational):          -0.0714023640
      Total energy:             -68.8322832858
      Residual norm:              0.0000009044
      Reference weight:           0.93460
 
      Contributions to the CASPT2 correlation energy
      Active & Virtual Only:         -0.0000000003
      One Inactive Excited:          -0.0103333187
      Two Inactive Excited:          -0.0610691071
 
 
++ Denominators, etc.
--------------------------------------------------------------------------------------------------------------
 Report on small energy denominators, large coefficients, and large energy contributions.
CASE  SYMM ACTIVE-MIX  NON-ACTIVE INDICES          DENOMINATOR     RHS VALUE       COEFFICIENT     CONTRIBUTION
VJTIP    1  Mu1.0002  In1.005 In1.005               0.86869137      0.08022611     -0.09235284     -0.00740911
AIVX     1  Mu1.0002  In1.005 Se1.008               0.76760106      0.04638034     -0.06119260     -0.00283813
AIVX     1  Mu1.0004  In1.005 Se1.008               0.93426773      0.02510449     -0.02662072     -0.00066830
VJAIP    1  Mu1.0002  Se1.008 In1.005 In1.003       1.37544177      0.04999866     -0.03664646     -0.00183227
VJAIP    1  Mu1.0002  Se1.009 In1.005 In1.004       0.86869137      0.07037562     -0.08101337     -0.00570137
VJAIM    1  Mu1.0002  Se1.008 In1.005 In1.003       1.37544177     -0.04675670      0.03439085     -0.00160800
VJAIM    1  Mu1.0002  Se1.009 In1.005 In1.004       0.86869137     -0.10712210      0.12331435     -0.01320969
BJATP    1  Mu1.0001  In1.004 Se1.009 Se1.008       0.80926773      0.02510449     -0.03073461     -0.00077158
BJATM    1  Mu1.0001  In1.004 Se1.009 Se1.008       0.80926773     -0.04638034      0.05803960     -0.00269190
BJAIP    1  Se1.008 In1.003 Se1.008 In1.003         1.88219216      0.08659056     -0.04623117     -0.00400318
BJAIP    1  Se1.008 In1.003 Se1.010 In1.003         2.22181515      0.06336156     -0.02853883     -0.00180826
BJAIP    1  Se1.010 In1.003 Se1.010 In1.003         2.56143814      0.08530884     -0.03331089     -0.00284171
BJAIP    1  Se1.008 In1.003 Se1.009 In1.004         1.37544177      0.04999866     -0.03666163     -0.00183303
BJAIP    1  Se1.008 In1.004 Se1.008 In1.004         0.77530489      0.02375337     -0.03101430     -0.00073669
BJAIP    1  Se1.009 In1.004 Se1.009 In1.004         0.86869137      0.08022611     -0.09235284     -0.00740911
BJAIP    1  Se1.008 In1.005 Se1.008 In1.005         0.77530489      0.02375337     -0.03101430     -0.00073669
BJAIM    1  Se1.008 In1.003 Se1.008 In1.004         1.37544177      0.04675670     -0.03437924     -0.00160746
--
 
   (Skipping property calculation,
    use PROP keyword to activate)
--
 
  Total CASPT2 energies:
::    CASPT2 Root  1     Total energy:    -68.83228329
 
  A NEW JOBIPH FILE NAMED 'JOBMIX' IS PREPARED.
********************************************************************************
--- Stop Module: caspt2 at Thu Apr 25 13:45:01 2024 /rc=_RC_ALL_IS_WELL_ ---
*** files: xmldump
    saved to directory /home/grierjones/DDCASPT2/delta_ML/BeN/1.90

.##################.
.# Happy landing! #.
.##################.

    Timing: Wall=2.76 User=1.89 System=0.31
************************************
*** WorkDir at /tmp/1.90 removed ***
************************************
