   This run of MOLCAS is using the pymolcas driver

                             OPE
                             OPE          NMOL  CASOP  ENMOLC A   SO
                 OPE        NMOLC        AS  OP EN  MO LC     AS  OP
                OPENM       OL CA        SO  PE NM  OL CA     SOP EN
                OP EN      MO   LC       AS  OP ENMOL  CASO   PENMOL
                OP  EN     MO   LC       AS  OP EN     MO     LC ASO
               OP   E  NMOL  C  AS       OP  EN MO     LC     AS  OP
               OP  E   NMO   LC AS        OPEN  MO     LCASOP EN   M
               O  PEN   MO  LCA  SO
            OPE   NMO   L   CAS    OP
        OPENMOL  CASOP     ENMOL   CASOPE
     OPENMOLCA   SOPENMOLCASOPEN   MOLCASOPE
    OPENMOLCAS   OP           EN   MOL    CAS
    OPENMOLCAS       OP  ENM        O     LCA
    OPENMOLCAS    OPEN  MOLCASO     P  E  NMO
    OPENMOLCAS     OP               E  N  MOL
    OPENMOLCA   SO           PENM   O  L  CAS    OPEN    MO    LCAS
    OPENMOLCA   SOP           ENM   O  L  CAS   OP  EN  MOLC  AS   O
    OPENMOLCA   SOPE           NM      O  LCA   S      OP  EN MO
    OPENMOLC                AS         O  PEN   M      OL  CA  SOPE
    OPENMO        LCASOPE  NMOL        C  ASO   P      ENMOLC     AS
    OPE     NMO      LCA  SO     P     E   NM   OL  CA SO  PE N   MO
          OPENMOLCA            SOPE   NMO        LCAS  O    P  ENMO
     OPENMOLCASOPENMOLCASOPENMOLCASOPENMOLCA
        OPENMOLCASOPENMOLCASOPENMOLCASOPE
            OPENMOLCASOPENMOLCASOPENM
               OPENMOLCASOPENMOLCA        version: 44d3b5344-dirty
                   OPENMOLCASO
                       OPE                tag:

 OpenMolcas is free software; you can redistribute it and/or modify it
 under the terms of the GNU Lesser General Public License version 2.1.
 OpenMolcas is distributed in the hope that it will be useful, but it
 is provided "as is" and without any express or implied warranties.
 For more details see the full text of the license in the file
 LICENSE or in <http://www.gnu.org/licenses/>.

                 Copyright (C) The OpenMolcas Authors
           For the author list and the recommended citation,
                   consult the file CONTRIBUTORS.md

           *************************************************
           * pymolcas version py2.28                       *
           *   build c4a6d18ded8cb6cad61d2372a9abd97c      *
           *   (after the EMIL interpreter by V. Veryazov) *
           *************************************************

configuration info
------------------
C Compiler ID: Intel
C flags: -std=gnu99
Fortran Compiler ID: Intel
Fortran flags: -fpp -i8 -r8 -heap-arrays
Definitions: _MOLCAS_;_I8_;_LINUX_
Parallel: OFF (GA=OFF)


   ------------------------------------------------------------------------------------------------------------
  |
  |              Project: H10_2.95
  |       Submitted from: /home/grierjones/DDCASPT2/hydrogen_comps/minimal_2e_2o/chains/even/H10_chain/H10_2.95
  |         Scratch area: /tmp/H10_2.95
  |      Save outputs to: /home/grierjones/DDCASPT2/hydrogen_comps/minimal_2e_2o/chains/even/H10_chain/H10_2.95
  |               Molcas: /home/grierjones/Test/build
  |
  | Scratch area is empty
  |
  |       MOLCAS_DRIVER = /usr/local/pymolcas
  | MOLCAS_KEEP_WORKDIR = NO
  |  MOLCAS_NEW_WORKDIR = YES
  |       MOLCAS_NPROCS = 1
  |       MOLCAS_SOURCE = /home/grierjones/Test/build
  |    MOLCAS_STRUCTURE = 0
  |
   ------------------------------------------------------------------------------------------------------------

++ ---------   Input file   ---------

&GATEWAY
coord=H10_2.95.xyz
Basis = ANO-RCC-VDZP
Group = nosymm
Expert
End of Input

&SEWARD
End of Input

&MOTRA
Frozen=0

>>> COPY $WorkDir/GMJ_one_int_indx.csv $CurrDir/H10_2.95.GMJ_one_int_indx.csv

>>> COPY $WorkDir/GMJ_one_int.csv $CurrDir/H10_2.95.GMJ_one_int.csv

>>> COPY $WorkDir/GMJ_two_int_indx.csv $CurrDir/H10_2.95.GMJ_two_int_indx.csv

>>> COPY $WorkDir/GMJ_two_int.csv $CurrDir/H10_2.95.GMJ_two_int.csv

&SCF

>>> COPY $WorkDir/H10_2.95.scf.h5 $CurrDir/

&RASSCF
Title= RASSCF
FileOrb
/home/grierjones/DDCASPT2/hydrogen_comps/minimal_2e_2o/chains/even/H10_chain/H10_2.93/H10_2.93.RasOrb

NACTEL
10 0 0
Inactive
0
RAS2
10
Symmetry
1
Spin
1
orblisting
all
ITERation
200 100
CIMX
200
SDAV
500

>>> COPY $WorkDir/H10_2.95.rasscf.h5 $CurrDir/

>>> COPY $WorkDir/GMJ_Fock_MO.csv $CurrDir/H10_2.95.GMJ_Fock_MO.csv

&CASPT2
Frozen
0
Imaginary Shift
0.0

>>> FOREACH i IN (B,E,F,G,H)

  >>> FOREACH j IN (P,M)

    >>> IF (-FILE GMJ_e2_${i}_${j}.csv)

      >>> COPY $WorkDir/GMJ_RHS_${i}_${j}.csv $CurrDir/GMJ_RHS_${i}_${j}.csv

      >>> COPY $WorkDir/GMJ_IVECW_${i}_${j}.csv $CurrDir/GMJ_IVECW_${i}_${j}.csv

      >>> COPY $WorkDir/GMJ_e2_${i}_${j}.csv $CurrDir/GMJ_e2_${i}_${j}.csv

    >>> END IF

  >>> END FOREACH

>>> END FOREACH

>>> FOREACH i IN (A,C,D)

  >>> IF (-FILE GMJ_e2_$i.csv)

    >>> COPY $WorkDir/GMJ_RHS_$i.csv $CurrDir/GMJ_RHS_$i.csv

    >>> COPY $WorkDir/GMJ_IVECW_$i.csv $CurrDir/GMJ_IVECW_$i.csv

    >>> COPY $WorkDir/GMJ_e2_$i.csv $CurrDir/GMJ_e2_$i.csv

  >>> END IF

>>> END FOREACH

-- ----------------------------------

--- Start Module: gateway at Thu Oct 17 12:13:40 2024 ---
 
()()()()()()()()()()()()()()()()()()()()()()()()()()()()()()()()()()()()()()()()()()()()()()()()()()

                                              &GATEWAY

                                   only a single process is used
                       available to each process: 2.0 GB of memory, 1 thread?
()()()()()()()()()()()()()()()()()()()()()()()()()()()()()()()()()()()()()()()()()()()()()()()()()()
 
 ###############################################################################
 ###############################################################################
 ###                                                                         ###
 ###                                                                         ###
 ###                                                                         ###
 ###    WARNING: EXPERT option is ON!                                        ###
 ###                                                                         ###
 ###                                                                         ###
 ###############################################################################
 ###############################################################################
 
++    Symmetry information:
      ---------------------
 
                    Character Table for C1 
 
                             E  
                    a        1  x, y, xy, Rz, z, xz, Ry, yz, Rx, I
--
 
 
++    Basis set information:
      ----------------------
 
 
      Basis set label: H.ANO-RCC...2S1P.
 
      Electronic valence basis set:
      ------------------
      Associated Effective Charge   1.000000 au
      Associated Actual Charge      1.000000 au
      Nuclear Model: Point charge
 
      Shell  nPrim  nBasis  Cartesian Spherical Contaminant
         s       8       2        X                  
         p       4       1        X                  
--
 
 
++    Molecular structure info:
      -------------------------
 
                    ************************************************ 
                    **** Cartesian Coordinates / Bohr, Angstrom **** 
                    ************************************************ 
 
     Center  Label                x              y              z                     x              y              z
        1      H1               0.000000       0.000000       0.000000              0.000000       0.000000       0.000000
        2      H2               0.000000       0.000000       5.577555              0.000000       0.000000       2.951515
        3      H3               0.000000       0.000000      11.155110              0.000000       0.000000       5.903030
        4      H4               0.000000       0.000000      16.732665              0.000000       0.000000       8.854545
        5      H5               0.000000       0.000000      22.310222              0.000000       0.000000      11.806061
        6      H6               0.000000       0.000000      27.887777              0.000000       0.000000      14.757576
        7      H7               0.000000       0.000000      33.465332              0.000000       0.000000      17.709091
        8      H8               0.000000       0.000000      39.042887              0.000000       0.000000      20.660606
        9      H9               0.000000       0.000000      44.620442              0.000000       0.000000      23.612121
       10      H10              0.000000       0.000000      50.197997              0.000000       0.000000      26.563636
 
                    *************************************** 
                    *    InterNuclear Distances / Bohr    * 
                    *************************************** 
 
               1 H1            2 H2            3 H3            4 H4            5 H5            6 H6    
    1 H1       0.000000
    2 H2       5.577555        0.000000
    3 H3      11.155110        5.577555        0.000000
    4 H4      16.732665       11.155110        5.577555        0.000000
    5 H5      22.310222       16.732667       11.155112        5.577557        0.000000
    6 H6      27.887777       22.310222       16.732667       11.155112        5.577555        0.000000
    7 H7      33.465332       27.887777       22.310222       16.732667       11.155110        5.577555
    8 H8      39.042887       33.465332       27.887777       22.310222       16.732665       11.155110
    9 H9      44.620442       39.042887       33.465332       27.887777       22.310220       16.732665
   10 H10     50.197997       44.620442       39.042887       33.465332       27.887775       22.310220
 
               7 H7            8 H8            9 H9           10 H10   
    7 H7       0.000000
    8 H8       5.577555        0.000000
    9 H9      11.155110        5.577555        0.000000
   10 H10     16.732665       11.155110        5.577555        0.000000
 
                    ******************************************* 
                    *    InterNuclear Distances / Angstrom    * 
                    ******************************************* 
 
               1 H1            2 H2            3 H3            4 H4            5 H5            6 H6    
    1 H1       0.000000
    2 H2       2.951515        0.000000
    3 H3       5.903030        2.951515        0.000000
    4 H4       8.854545        5.903030        2.951515        0.000000
    5 H5      11.806061        8.854546        5.903031        2.951516        0.000000
    6 H6      14.757576       11.806061        8.854546        5.903031        2.951515        0.000000
    7 H7      17.709091       14.757576       11.806061        8.854546        5.903030        2.951515
    8 H8      20.660606       17.709091       14.757576       11.806061        8.854545        5.903030
    9 H9      23.612121       20.660606       17.709091       14.757576       11.806060        8.854545
   10 H10     26.563636       23.612121       20.660606       17.709091       14.757575       11.806060
 
               7 H7            8 H8            9 H9           10 H10   
    7 H7       0.000000
    8 H8       2.951515        0.000000
    9 H9       5.903030        2.951515        0.000000
   10 H10      8.854545        5.903030        2.951515        0.000000
--
 
 
            Nuclear Potential Energy              3.45844760 au
 
 ###############################################################################
 ###############################################################################
 ###                                                                         ###
 ###                                                                         ###
 ###    There were warnings during the execution                             ###
 ###    Please, check the output with care!                                  ###
 ###                                                                         ###
 ###                                                                         ###
 ###############################################################################
 ###############################################################################
--- Stop Module: gateway at Thu Oct 17 12:13:40 2024 /rc=_RC_ALL_IS_WELL_ ---
*** files: xmldump
    saved to directory /home/grierjones/DDCASPT2/hydrogen_comps/minimal_2e_2o/chains/even/H10_chain/H10_2.95

--- Start Module: seward at Thu Oct 17 12:13:40 2024 ---
 
()()()()()()()()()()()()()()()()()()()()()()()()()()()()()()()()()()()()()()()()()()()()()()()()()()

                                              &SEWARD

                                   only a single process is used
                       available to each process: 2.0 GB of memory, 1 thread?
()()()()()()()()()()()()()()()()()()()()()()()()()()()()()()()()()()()()()()()()()()()()()()()()()()
 
 ###############################################################################
 ###############################################################################
 ###                                                                         ###
 ###                                                                         ###
 ###                                                                         ###
 ###    WARNING: EXPERT option is ON!                                        ###
 ###                                                                         ###
 ###                                                                         ###
 ###############################################################################
 ###############################################################################
               SEWARD will generate:
                  Multipole Moment integrals up to order  2
                  Kinetic Energy integrals
                  Nuclear Attraction integrals (point charge)
                  One-Electron Hamiltonian integrals
                  Velocity integrals
                  Relativistic Douglas-Kroll-Hess integrals:
                    - Parametrization         : EXP
                    - DKH order of Hamiltonian: 2
                    - DKH order of Properties : 0
                         - multipole moment operators
                         - electric potential operators
                         - contact operators
                  Atomic mean-field integrals
                  Two-Electron Repulsion integrals
 
                   Integrals are discarded if absolute value <: 0.10E-13
                   Integral cutoff threshold is set to       <: 0.10E-15
 
            Nuclear Potential Energy              3.45844760 au
 
 
      Basis set specifications :
      Symmetry species         a  
      Basis functions           50
 
 
  Input file to MOLDEN was generated!
 
 ###############################################################################
 ###############################################################################
 ###                                                                         ###
 ###                                                                         ###
 ###    There were warnings during the execution                             ###
 ###    Please, check the output with care!                                  ###
 ###                                                                         ###
 ###                                                                         ###
 ###############################################################################
 ###############################################################################
--- Stop Module: seward at Thu Oct 17 12:13:41 2024 /rc=_RC_ALL_IS_WELL_ ---
*** files: H10_2.95.GssOrb H10_2.95.guessorb.h5 H10_2.95.guessorb.molden xmldump
    saved to directory /home/grierjones/DDCASPT2/hydrogen_comps/minimal_2e_2o/chains/even/H10_chain/H10_2.95

*** symbolic link created: INPORB -> H10_2.95.GssOrb
--- Start Module: motra at Thu Oct 17 12:13:41 2024 ---
 
()()()()()()()()()()()()()()()()()()()()()()()()()()()()()()()()()()()()()()()()()()()()()()()()()()

                                               &MOTRA

                                   only a single process is used
                       available to each process: 2.0 GB of memory, 1 thread?
()()()()()()()()()()()()()()()()()()()()()()()()()()()()()()()()()()()()()()()()()()()()()()()()()()
 
 
      *** WARNING: Default frozen orbitals is overwritten by user input.
      *** Default values:   0
 
      Header of the integral files:
      
       Integrals generated by seward 4.2.0  , Thu Oct 17 12:13:40 2024
 
 
      Header of MO coefficients source file:
      *Guess orbitals                                                                 
 
 
      Cartesian coordinates in Angstrom:
      -----------------------------------------------------
      No.  Label        X            Y            Z        
      -----------------------------------------------------
       1   H1         0.00000000   0.00000000   0.00000000
       2   H2         0.00000000   0.00000000   2.95151500
       3   H3         0.00000000   0.00000000   5.90303000
       4   H4         0.00000000   0.00000000   8.85454500
       5   H5         0.00000000   0.00000000  11.80606100
       6   H6         0.00000000   0.00000000  14.75757600
       7   H7         0.00000000   0.00000000  17.70909100
       8   H8         0.00000000   0.00000000  20.66060600
       9   H9         0.00000000   0.00000000  23.61212100
      10   H10        0.00000000   0.00000000  26.56363600
      -----------------------------------------------------
      Nuclear repulsion energy =    3.45844760
 
      Orbital specifications:
      -----------------------
 
      Symmetry species:              1
      Number of basis functions:    50
      Frozen orbitals:               0
      Deleted orbitals:              0
      Number of orbitals used:      50

       SYMMETRY  BASIS FUNCTIONS       ORBITALS      INTEGRALS   CPU(SEC)  I/O(SEC)
 
        1 1 1 1   50  50  50  50    50  50  50  50      813450       0.00      0.00

       TOTAL CPU TIME(SEC)   13.48TOTAL I/O TIME(SEC)   19.87
 
--- Stop Module: motra at Thu Oct 17 12:14:01 2024 /rc=_RC_ALL_IS_WELL_ ---
*** files: xmldump
    saved to directory /home/grierjones/DDCASPT2/hydrogen_comps/minimal_2e_2o/chains/even/H10_chain/H10_2.95
--- Module motra spent 19 seconds ---

>>> COPY /tmp/H10_2.95/GMJ_one_int_indx.csv /home/grierjones/DDCASPT2/hydrogen_comps/minimal_2e_2o/chains/even/H10_chain/H10_2.95/H10_2.95.GMJ_one_int_indx.csv

>>> COPY /tmp/H10_2.95/GMJ_one_int.csv /home/grierjones/DDCASPT2/hydrogen_comps/minimal_2e_2o/chains/even/H10_chain/H10_2.95/H10_2.95.GMJ_one_int.csv

>>> COPY /tmp/H10_2.95/GMJ_two_int_indx.csv /home/grierjones/DDCASPT2/hydrogen_comps/minimal_2e_2o/chains/even/H10_chain/H10_2.95/H10_2.95.GMJ_two_int_indx.csv

>>> COPY /tmp/H10_2.95/GMJ_two_int.csv /home/grierjones/DDCASPT2/hydrogen_comps/minimal_2e_2o/chains/even/H10_chain/H10_2.95/H10_2.95.GMJ_two_int.csv

*** symbolic link created: INPORB -> H10_2.95.GssOrb
--- Start Module: scf at Thu Oct 17 12:14:01 2024 ---
 
()()()()()()()()()()()()()()()()()()()()()()()()()()()()()()()()()()()()()()()()()()()()()()()()()()

                                                &SCF

                                   only a single process is used
                       available to each process: 2.0 GB of memory, 1 thread?
()()()()()()()()()()()()()()()()()()()()()()()()()()()()()()()()()()()()()()()()()()()()()()()()()()
 
++    Input section:
      --------------
 
      Header of the integral files:
      
       Integrals generated by seward 4.2.0  , Thu Oct 17 12:13:40 2024
 
 
      Cartesian coordinates in Angstrom:
      -----------------------------------------------------
      No.  Label        X            Y            Z        
      -----------------------------------------------------
       1   H1         0.00000000   0.00000000   0.00000000
       2   H2         0.00000000   0.00000000   2.95151500
       3   H3         0.00000000   0.00000000   5.90303000
       4   H4         0.00000000   0.00000000   8.85454500
       5   H5         0.00000000   0.00000000  11.80606100
       6   H6         0.00000000   0.00000000  14.75757600
       7   H7         0.00000000   0.00000000  17.70909100
       8   H8         0.00000000   0.00000000  20.66060600
       9   H9         0.00000000   0.00000000  23.61212100
      10   H10        0.00000000   0.00000000  26.56363600
      -----------------------------------------------------
      Nuclear repulsion energy =    3.45844760
--
 
++    Orbital specifications:
      -----------------------
 
      Symmetry species               1
                                     a
      Frozen orbitals                0
      Occupied orbitals              5
      Secondary orbitals            45
      Deleted orbitals               0
      Total number of orbitals      50
      Number of basis functions     50
--
 
      Molecular charge                           0.000
 
++    Optimization specifications:
      ----------------------------
 
      SCF Algorithm: Conventional
      Minimized density differences are used
      Number of density matrices in core                5
      Maximum number of NDDO SCF iterations           400
      Maximum number of HF SCF iterations             400
      Threshold for SCF energy change            0.10E-08
      Threshold for density matrix               0.10E-03
      Threshold for Fock matrix                  0.15E-03
      Threshold for linear dependence            0.10E-08
      Threshold at which DIIS is turned on       0.15E+00
      Threshold at which QNR/C2DIIS is turned on 0.75E-01
      Threshold for Norm(delta) (QNR/C2DIIS)     0.20E-04
      DIIS extrapolation of the SCF procedure
      All orbitals punched on: SCFORB
--
 
      Input vectors read from INPORB
      Orbital file label: *Guess orbitals
 
 
++ Convergence information
                                   SCF        iterations: Energy and convergence statistics
 
Iter     Tot. SCF        One-elec.       Two-elec.     Energy      Max Dij or  Max Fij      DNorm      TNorm      AccCon     Time
         Energy          Energy          Energy        Change      Delta Norm                                                in Sec.
   1    -3.821256880   -11.978785481     4.699081004   0.00E+00    0.42E+00*   0.13E+00*    0.51E+01   0.83E+01   None         0.
   2    -4.147795504   -11.936032524     4.329789422  -0.33E+00*   0.17E+00*   0.25E-01*    0.16E+01   0.79E+01   EDIIS        0.
   3    -4.164347729   -11.862121837     4.239326511  -0.17E-01*   0.12E+00*   0.96E-02*    0.41E+00   0.79E+01   EDIIS        0.
   4    -4.168736459   -11.870793087     4.243609031  -0.44E-02*   0.75E-01*   0.61E-02*    0.23E+00   0.79E+01   c2DIIS       0.
   5    -4.170552178   -11.855503920     4.226504145  -0.18E-02*   0.45E-01*   0.49E-02*    0.63E-01   0.79E+01   QNRc2DIIS    0.
   6    -4.171524664   -11.862678742     4.232706480  -0.97E-03*   0.70E-01*   0.38E-02*    0.39E-01   0.79E+01   QNRc2DIIS    0.
   7    -4.172245401   -11.857536899     4.226843900  -0.72E-03*   0.83E-02*   0.10E-02*    0.24E-01   0.79E+01   QNRc2DIIS    0.
   8    -4.172257723   -11.855800280     4.225094960  -0.12E-04*   0.32E-02*   0.50E-03*    0.11E-01   0.79E+01   QNRc2DIIS    0.
   9    -4.172264767   -11.856659033     4.225946668  -0.70E-05*   0.66E-03*   0.37E-04     0.38E-02   0.79E+01   QNRc2DIIS    0.
  10    -4.172264870   -11.856678063     4.225965596  -0.10E-06*   0.23E-03*   0.13E-04     0.10E-02   0.79E+01   QNRc2DIIS    0.
  11    -4.172264885   -11.856676802     4.225964320  -0.15E-07*   0.74E-04*   0.33E-05     0.25E-03   0.79E+01   QNRc2DIIS    0.
  12    -4.172264886   -11.856675271     4.225962788  -0.12E-08*   0.47E-05    0.55E-06     0.20E-04   0.79E+01   QNRc2DIIS    0.
  13    -4.172264886   -11.856675854     4.225963371  -0.97E-11    0.94E-06    0.73E-07     0.66E-04   0.79E+01   QNRc2DIIS    0.
 
       Convergence after 13 Macro Iterations
--
 
 *****************************************************************************************************************************
 *                                                                                                                           *
 *                                             SCF/KS-DFT Program, Final results                                             *
 *                                                                                                                           *
 *                                                                                                                           *
 *                                                                                                                           *
 *                                                       Final Results                                                       *
 *                                                                                                                           *
 *****************************************************************************************************************************
 
::    Total SCF energy                                 -4.1722648859
      One-electron energy                             -11.8566758538
      Two-electron energy                               4.2259633707
      Nuclear repulsion energy                          3.4584475973
      Kinetic energy (interpolated)                     3.2951682218
      Virial theorem                                    1.2661765971
      Total spin, S(S+1)                                0.0000000000
      Total spin, S                                     0.0000000000
      Max non-diagonal density matrix element           0.0000008899
      Max non-diagonal Fock matrix element              0.0000000264
 
 
      All orbitals with orbital energies smaller than  E(LUMO)+0.5 are printed
 
++    Molecular orbitals:
      -------------------
 
      Title: SCF orbitals

      Molecular orbitals for symmetry species 1: a  
 
          Orbital            1         2         3         4         5         6         7         8         9        10    
          Energy           -0.3603   -0.3530   -0.3421   -0.3292   -0.3178   -0.1619   -0.1461   -0.1282   -0.1122   -0.1016
          Occ. No.          2.0000    2.0000    2.0000    2.0000    2.0000    0.0000    0.0000    0.0000    0.0000    0.0000
 
        1 H1     1s         0.1343   -0.2605    0.3502   -0.3620    0.2455   -0.2634    0.4116   -0.4292    0.3450   -0.1920
        2 H1     2s         0.0285   -0.0558    0.0763   -0.0806    0.0558   -0.0778    0.1247   -0.1332    0.1086   -0.0607
        3 H1     2px        0.0000   -0.0000    0.0000   -0.0000    0.0000   -0.0000    0.0000   -0.0000    0.0000   -0.0000
        4 H1     2py       -0.0000    0.0000   -0.0000    0.0000   -0.0000   -0.0000    0.0000   -0.0000    0.0000   -0.0000
        5 H1     2pz        0.0035   -0.0063    0.0076   -0.0068    0.0041    0.0019   -0.0046    0.0071   -0.0076    0.0050
        6 H2     1s         0.1716   -0.3107    0.3743   -0.3355    0.1986    0.1534   -0.3264    0.4503   -0.4441    0.2780
        7 H2     2s         0.0309   -0.0629    0.0875   -0.0905    0.0597    0.0408   -0.0978    0.1448   -0.1469    0.0925
        8 H2     2px        0.0000   -0.0000    0.0000   -0.0000    0.0000    0.0000   -0.0000    0.0000   -0.0000    0.0000
        9 H2     2py        0.0000    0.0000    0.0000   -0.0000   -0.0000    0.0000    0.0000    0.0000    0.0000   -0.0000
       10 H2     2pz       -0.0010    0.0029   -0.0056    0.0077   -0.0062    0.0081   -0.0104    0.0069   -0.0015   -0.0010
       11 H3     1s         0.2934   -0.3432    0.0854    0.2747   -0.3501    0.3814   -0.3001   -0.1177    0.4550   -0.4000
       12 H3     2s         0.0616   -0.0694    0.0085    0.0757   -0.0910    0.1144   -0.0896   -0.0422    0.1498   -0.1304
       13 H3     2px        0.0000    0.0000   -0.0000   -0.0000    0.0000    0.0000   -0.0000    0.0000    0.0000   -0.0000
       14 H3     2py       -0.0000    0.0000   -0.0000   -0.0000    0.0000    0.0000    0.0000   -0.0000   -0.0000    0.0000
       15 H3     2pz        0.0046   -0.0036   -0.0022    0.0073   -0.0063   -0.0069    0.0105   -0.0066   -0.0020    0.0054
       16 H4     1s         0.3168   -0.3110   -0.0140    0.3333   -0.3208   -0.3124    0.4096   -0.0977   -0.3731    0.4468
       17 H4     2s         0.0612   -0.0710    0.0076    0.0785   -0.0889   -0.0899    0.1297   -0.0359   -0.1207    0.1471
       18 H4     2px        0.0000    0.0000    0.0000   -0.0000   -0.0000   -0.0000   -0.0000   -0.0000    0.0000    0.0000
       19 H4     2py       -0.0000   -0.0000   -0.0000    0.0000   -0.0000   -0.0000    0.0000    0.0000   -0.0000    0.0000
       20 H4     2pz       -0.0031    0.0055   -0.0034   -0.0041    0.0078   -0.0103    0.0044    0.0069   -0.0078    0.0019
       21 H5     1s         0.3664   -0.0388   -0.3632    0.0512    0.3739   -0.3993   -0.1052    0.4453    0.0854   -0.4890
       22 H5     2s         0.0740    0.0006   -0.0849    0.0027    0.1002   -0.1177   -0.0383    0.1429    0.0306   -0.1602
       23 H5     2px        0.0000   -0.0000   -0.0000    0.0000   -0.0000    0.0000    0.0000   -0.0000    0.0000    0.0000
       24 H5     2py       -0.0000   -0.0000   -0.0000   -0.0000   -0.0000    0.0000    0.0000    0.0000    0.0000   -0.0000
       25 H5     2pz        0.0046    0.0023   -0.0058   -0.0028    0.0079    0.0099   -0.0059   -0.0072    0.0060    0.0042
       26 H6     1s         0.3664    0.0388   -0.3632   -0.0512    0.3739    0.3993   -0.1052   -0.4453    0.0854    0.4890
       27 H6     2s         0.0740   -0.0006   -0.0849   -0.0027    0.1002    0.1177   -0.0383   -0.1429    0.0306    0.1602
       28 H6     2px       -0.0000    0.0000   -0.0000   -0.0000    0.0000   -0.0000    0.0000    0.0000   -0.0000   -0.0000
       29 H6     2py       -0.0000    0.0000    0.0000    0.0000   -0.0000    0.0000    0.0000   -0.0000   -0.0000    0.0000
       30 H6     2pz       -0.0046    0.0023    0.0058   -0.0028   -0.0079    0.0099    0.0059   -0.0072   -0.0060    0.0042
       31 H7     1s         0.3168    0.3110   -0.0140   -0.3333   -0.3208    0.3124    0.4096    0.0977   -0.3731   -0.4468
       32 H7     2s         0.0612    0.0710    0.0076   -0.0785   -0.0889    0.0899    0.1297    0.0359   -0.1207   -0.1471
       33 H7     2px        0.0000    0.0000   -0.0000   -0.0000   -0.0000   -0.0000    0.0000   -0.0000   -0.0000   -0.0000
       34 H7     2py        0.0000    0.0000   -0.0000    0.0000   -0.0000    0.0000    0.0000   -0.0000    0.0000    0.0000
       35 H7     2pz        0.0031    0.0055    0.0034   -0.0041   -0.0078   -0.0103   -0.0044    0.0069    0.0078    0.0019
       36 H8     1s         0.2934    0.3432    0.0854   -0.2747   -0.3501   -0.3814   -0.3001    0.1177    0.4550    0.4000
       37 H8     2s         0.0616    0.0694    0.0085   -0.0757   -0.0910   -0.1144   -0.0896    0.0422    0.1498    0.1304
       38 H8     2px        0.0000   -0.0000   -0.0000   -0.0000    0.0000    0.0000    0.0000   -0.0000   -0.0000   -0.0000
       39 H8     2py        0.0000   -0.0000    0.0000   -0.0000    0.0000    0.0000   -0.0000    0.0000   -0.0000   -0.0000
       40 H8     2pz       -0.0046   -0.0036    0.0022    0.0073    0.0063   -0.0069   -0.0105   -0.0066    0.0020    0.0054
       41 H9     1s         0.1716    0.3107    0.3743    0.3355    0.1986   -0.1534   -0.3264   -0.4503   -0.4441   -0.2780
       42 H9     2s         0.0309    0.0629    0.0875    0.0905    0.0597   -0.0408   -0.0978   -0.1448   -0.1469   -0.0925
       43 H9     2px        0.0000   -0.0000   -0.0000    0.0000    0.0000   -0.0000    0.0000   -0.0000   -0.0000   -0.0000
       44 H9     2py        0.0000    0.0000   -0.0000   -0.0000   -0.0000    0.0000    0.0000    0.0000    0.0000   -0.0000
       45 H9     2pz        0.0010    0.0029    0.0056    0.0077    0.0062    0.0081    0.0104    0.0069    0.0015   -0.0010
       46 H10    1s         0.1343    0.2605    0.3502    0.3620    0.2455    0.2634    0.4116    0.4292    0.3450    0.1920
       47 H10    2s         0.0285    0.0558    0.0763    0.0806    0.0558    0.0778    0.1247    0.1332    0.1086    0.0607
       48 H10    2px        0.0000    0.0000   -0.0000   -0.0000   -0.0000   -0.0000   -0.0000    0.0000    0.0000   -0.0000
       49 H10    2py       -0.0000    0.0000    0.0000    0.0000    0.0000   -0.0000    0.0000   -0.0000   -0.0000    0.0000
       50 H10    2pz       -0.0035   -0.0063   -0.0076   -0.0068   -0.0041    0.0019    0.0046    0.0071    0.0076    0.0050
 
          Orbital           11        12        13    
          Energy            0.3104    0.3176    0.3298
          Occ. No.          0.0000    0.0000    0.0000
 
        1 H1     1s        -0.0759    0.1319   -0.1523
        2 H1     2s         0.1361   -0.2583    0.3482
        3 H1     2px        0.0000   -0.0000    0.0000
        4 H1     2py       -0.0000    0.0000   -0.0000
        5 H1     2pz        0.0006   -0.0014    0.0019
        6 H2     1s        -0.1316    0.1987   -0.1741
        7 H2     2s         0.1769   -0.2867    0.2829
        8 H2     2px       -0.0000    0.0000   -0.0000
        9 H2     2py       -0.0000   -0.0000   -0.0000
       10 H2     2pz        0.0029   -0.0021   -0.0047
       11 H3     1s        -0.1598    0.1855   -0.0667
       12 H3     2s         0.2283   -0.2852    0.1162
       13 H3     2px       -0.0000    0.0000    0.0000
       14 H3     2py        0.0000   -0.0000   -0.0000
       15 H3     2pz       -0.0003    0.0033   -0.0099
       16 H4     1s        -0.1881    0.1329    0.0770
       17 H4     2s         0.2657   -0.2033   -0.1321
       18 H4     2px       -0.0000    0.0000   -0.0000
       19 H4     2py       -0.0000    0.0000    0.0000
       20 H4     2pz        0.0032    0.0026   -0.0105
       21 H5     1s        -0.2005    0.0516    0.1683
       22 H5     2s         0.2853   -0.0781   -0.2949
       23 H5     2px        0.0000    0.0000    0.0000
       24 H5     2py       -0.0000   -0.0000   -0.0000
       25 H5     2pz       -0.0021    0.0060   -0.0024
       26 H6     1s        -0.2005   -0.0516    0.1683
       27 H6     2s         0.2853    0.0781   -0.2949
       28 H6     2px        0.0000    0.0000   -0.0000
       29 H6     2py        0.0000    0.0000    0.0000
       30 H6     2pz        0.0021    0.0060    0.0024
       31 H7     1s        -0.1881   -0.1329    0.0770
       32 H7     2s         0.2657    0.2033   -0.1321
       33 H7     2px        0.0000    0.0000    0.0000
       34 H7     2py       -0.0000    0.0000   -0.0000
       35 H7     2pz       -0.0032    0.0026    0.0105
       36 H8     1s        -0.1598   -0.1855   -0.0667
       37 H8     2s         0.2283    0.2852    0.1162
       38 H8     2px       -0.0000   -0.0000   -0.0000
       39 H8     2py       -0.0000   -0.0000   -0.0000
       40 H8     2pz        0.0003    0.0033    0.0099
       41 H9     1s        -0.1316   -0.1987   -0.1741
       42 H9     2s         0.1769    0.2867    0.2829
       43 H9     2px       -0.0000   -0.0000   -0.0000
       44 H9     2py       -0.0000    0.0000    0.0000
       45 H9     2pz       -0.0029   -0.0021    0.0047
       46 H10    1s        -0.0759   -0.1319   -0.1523
       47 H10    2s         0.1361    0.2583    0.3482
       48 H10    2px        0.0000    0.0000   -0.0000
       49 H10    2py       -0.0000    0.0000    0.0000
       50 H10    2pz       -0.0006   -0.0014   -0.0019
--
 
 
++    Molecular charges:
      ------------------
 
      Mulliken charges per centre and basis function type
      ---------------------------------------------------
 
                H1      H2      H3      H4      H5      H6      H7      H8      H9      H10   
      1s       0.8847  0.9179  0.9016  0.9064  0.9039  0.9039  0.9064  0.9016  0.9179  0.8847
      2s       0.0928  0.0988  0.0934  0.0947  0.0943  0.0943  0.0947  0.0934  0.0988  0.0928
      2px      0.0000  0.0000  0.0000  0.0000  0.0000  0.0000  0.0000  0.0000  0.0000  0.0000
      2pz      0.0021  0.0023  0.0023  0.0023  0.0023  0.0023  0.0023  0.0023  0.0023  0.0021
      2py      0.0000  0.0000  0.0000  0.0000  0.0000  0.0000  0.0000  0.0000  0.0000  0.0000
      Total    0.9796  1.0191  0.9974  1.0035  1.0005  1.0005  1.0035  0.9974  1.0191  0.9796
 
      N-E      0.0204 -0.0191  0.0026 -0.0035 -0.0005 -0.0005 -0.0035  0.0026 -0.0191  0.0204
 
      Total electronic charge=   10.000000
 
      Total            charge=   -0.000000
--
 
 
  Input file to MOLDEN was generated!
 
 
++    Static properties:
      ------------------
 
 
      LoProp Charges per center
 

                   H1       H2       H3       H4       H5       H6       H7       H8       H9       H10   
      Nuclear      1.0000   1.0000   1.0000   1.0000   1.0000   1.0000   1.0000   1.0000   1.0000   1.0000
      Electronic  -0.9859  -1.0123  -0.9980  -1.0033  -1.0005  -1.0005  -1.0033  -0.9980  -1.0123  -0.9859
 
      Total        0.0141  -0.0123   0.0020  -0.0033  -0.0005  -0.0005  -0.0033   0.0020  -0.0123   0.0141
--
 
 
++    Natural Bond Order analysis
      ---------------------------
      Based on LoProp computed density
      -------------------------------------------------------------------------------------
      Atom A       Atom B       Bond Order
      -------------------------------------------------------------------------------------
      NBO located      0.980 non-bonded electrons on atom H1        
      NBO located      1.003 non-bonded electrons on atom H3        
      NBO located      1.008 non-bonded electrons on atom H4        
      NBO located      1.005 non-bonded electrons on atom H5        
      NBO located      1.005 non-bonded electrons on atom H6        
      NBO located      1.008 non-bonded electrons on atom H7        
      NBO located      1.003 non-bonded electrons on atom H8        
      NBO located      0.980 non-bonded electrons on atom H10       
      The remaining    2.007 electrons are to be considered as diffuse
--
 
 
++    Molecular properties:
      ---------------------
 
      Charge (e):
                      =   -0.0000
      Dipole Moment (Debye):
      Origin of the operator (Ang)=    0.0000    0.0000    0.0000
                   X= -3.5721E-13               Y=  4.3084E-14               Z= -2.0404E-08           Total=  2.0404E-08
      Quadrupole Moment (Debye*Ang):
      Origin of the operator (Ang)=    0.0000    0.0000   13.2818
                  XX= -2.4895E+01              XY=  1.0517E-27              XZ=  4.6066E-12              YY= -2.4895E+01
                  YZ= -6.9106E-13              ZZ=  8.9627E-01
      In traceless form (Debye*Ang)
                  XX= -1.2896E+01              XY=  1.5775E-27              XZ=  6.9099E-12              YY= -1.2896E+01
                  YZ= -1.0366E-12              ZZ=  2.5791E+01
--
 
 
  Input file to MOLDEN was generated!
 
 ###############################################################################
 ###############################################################################
 ###                                                                         ###
 ###                                                                         ###
 ###    RunFile label nBas                                                   ###
 ###    was used       78 times                                              ###
 ###                                                                         ###
 ###                                                                         ###
 ###############################################################################
 ###############################################################################
--- Stop Module: scf at Thu Oct 17 12:14:01 2024 /rc=_RC_ALL_IS_WELL_ ---
*** files: H10_2.95.LprOrb H10_2.95.LoProp.molden H10_2.95.scf.molden H10_2.95.ScfOrb H10_2.95.scf.h5 xmldump
    saved to directory /home/grierjones/DDCASPT2/hydrogen_comps/minimal_2e_2o/chains/even/H10_chain/H10_2.95

>>> COPY /tmp/H10_2.95/H10_2.95.scf.h5 /home/grierjones/DDCASPT2/hydrogen_comps/minimal_2e_2o/chains/even/H10_chain/H10_2.95/

*** symbolic link created: INPORB -> H10_2.95.ScfOrb
--- Start Module: rasscf at Thu Oct 17 12:14:01 2024 ---
 
()()()()()()()()()()()()()()()()()()()()()()()()()()()()()()()()()()()()()()()()()()()()()()()()()()

                                              &RASSCF

                                   only a single process is used
                       available to each process: 2.0 GB of memory, 1 thread?
()()()()()()()()()()()()()()()()()()()()()()()()()()()()()()()()()()()()()()()()()()()()()()()()()()
 
 
      Header of the ONEINT file:
      --------------------------
      
      Integrals generated by seward 4.2.0  , Thu Oct 17 12:13:40 2024
 
 
      OrdInt status: non-squared
 
 
      Cartesian coordinates in Angstrom:
      -----------------------------------------------------
      No.  Label        X            Y            Z        
      -----------------------------------------------------
       1   H1         0.00000000   0.00000000   0.00000000
       2   H2         0.00000000   0.00000000   2.95151500
       3   H3         0.00000000   0.00000000   5.90303000
       4   H4         0.00000000   0.00000000   8.85454500
       5   H5         0.00000000   0.00000000  11.80606100
       6   H6         0.00000000   0.00000000  14.75757600
       7   H7         0.00000000   0.00000000  17.70909100
       8   H8         0.00000000   0.00000000  20.66060600
       9   H9         0.00000000   0.00000000  23.61212100
      10   H10        0.00000000   0.00000000  26.56363600
      -----------------------------------------------------
      Nuclear repulsion energy =    3.45844760
 
++    Wave function specifications:
      -----------------------------
 
      Number of closed shell electrons           0
      Number of electrons in active shells      10
      Max number of holes in RAS1 space          0
      Max nr of electrons in RAS3 space          0
      Number of inactive orbitals                0
      Number of active orbitals                 10
      Number of secondary orbitals              40
      Spin quantum number                      0.0
      State symmetry                             1
--
 
++    Orbital specifications:
      -----------------------
 
      Symmetry species                           1
                                                 a
      Frozen orbitals                            0
      Inactive orbitals                          0
      Active orbitals                           10
      RAS1 orbitals                              0
      RAS2 orbitals                             10
      RAS3 orbitals                              0
      Secondary orbitals                        40
      Deleted orbitals                           0
      Number of basis functions                 50
--
 
++    CI expansion specifications:
      ----------------------------
 
      Number of CSFs                         19404
      Number of determinants                 31878
      Number of root(s) required                 1
      Root chosen for geometry opt.              1
      CI root used                               1
         
      highest root included in the CI            1
      max. size of the explicit Hamiltonian    500
--
 
++    Optimization specifications:
      ----------------------------
 
      RASSCF algorithm: Conventional
      Maximum number of macro iterations       200
      Maximum number of SX iterations          100
      Threshold for RASSCF energy            0.100E-07
      Threshold for max MO rotation          0.100E+00
      Threshold for max BLB element          0.100E-03
      Level shift parameter                  0.500E+00
      Make Quasi-Newton update
--
 
      The MO-coefficients are taken from the file:
      /home/grierjones/DDCASPT2/hydrogen_comps/minimal_2e_2o/chains/even/H10_chain/H10_2.93/H10_2.93.RasOrb                           
      Title: RASSCF average (pseudo-natural) orbitals                                      
 
      Total molecular charge    0.00
 
      ************************************************************************************************************************
      *                                                                                                                      *
      *                                            Wave function control section                                             *
      *                                                                                                                      *
      ************************************************************************************************************************
 
 
                                         RASSCF iterations: Energy and convergence statistics
                                         ----------------------------------------------------
 
      Iter CI   SX   CI       RASSCF       Energy    max ROT     max BLB   max BLB  Level Ln srch  Step   QN   Walltime
          iter iter root      energy       change     param      element    value   shift minimum  type update hh:mm:ss
 Nr of preliminary CI iterations:   9
        1   1    4    1    -4.98677054    0.00E+00   0.13E-02    9  16 1 -0.75E-03*  0.01   0.00    SX    NO    0:00:00
        2   1    3    1    -4.98677607   -0.55E-05*  0.36E-03    5  17 1  0.20E-03*  0.01   0.00    SX    NO    0:00:00
        3   1    3    1    -4.98677658   -0.51E-06*  0.14E-03    4  12 1  0.76E-04   0.01   0.00    SX    NO    0:00:00
        No convergence in the CI section: MAXJT will be increased to 
                    60
        4  48    3    1    -4.98706913   -0.29E-03* -0.56E-03    8  13 1  0.28E-03*  0.01   0.00    SX    NO    0:00:01
        5  35    3    1    -4.98716644   -0.97E-04*  0.79E-03    9  16 1  0.24E-03*  0.01   1.00    QN   YES    0:00:01
        6  65    4    1    -4.98718270   -0.16E-04* -0.38E-03    5  17 1 -0.20E-03*  0.01   0.97    QN   YES    0:00:02
        7  84    3    1    -4.98718719   -0.45E-05* -0.16E-03    9  16 1  0.13E-03*  0.01   0.97    QN   YES    0:00:03
        8  71    3    1    -4.98718822   -0.10E-05*  0.11E-03    9  16 1  0.55E-04   0.01   1.02    QN   YES    0:00:03
        9 102    3    1    -4.98718852   -0.30E-06*  0.94E-05    3  13 1 -0.51E-05   0.01   1.00    QN   YES    0:00:04
       10   1    3    1    -4.98718852   -0.15E-09   0.38E-05    3  13 1  0.30E-05   0.01   0.61    QN   YES    0:00:00
      Convergence after 10 iterations
       11   1    3    1    -4.98718852   -0.99E-10   0.38E-05    5  15 1 -0.30E-06   0.01   0.61    QN   YES    0:00:00
 
      ************************************************************************************************************************
                                                      Wave function printout:
                       occupation of active orbitals, and spin coupling of open shells (u,d: Spin up or down)
      ************************************************************************************************************************
 
      Note: transformation to natural orbitals
      has been made, which may change the order of the CSFs.
 
      printout of CI-coefficients larger than  0.05 for root  1
      energy=      -4.987189
      conf/sym  1111111111     Coeff  Weight
             1  2222200000  -0.20809 0.04330
            36  2222000020   0.11151 0.01244
            50  222ud00ud0   0.12477 0.01557
            64  22u2d0u0d0   0.10290 0.01059
            78  2u22du00d0   0.09170 0.00841
            90  u222du0d00  -0.05395 0.00291
           100  u222d000ud  -0.10993 0.01208
           107  2220200200   0.08072 0.00652
           121  22ud20ud00   0.10099 0.01020
           135  2u2d2u0d00   0.10079 0.01016
           145  2u2d2000ud   0.05400 0.00292
           159  u22d200u0d  -0.08608 0.00741
           164  2202202000   0.07332 0.00538
           178  2ud22ud000   0.09104 0.00829
           203  u2d220u00d  -0.08581 0.00736
           207  2022220000   0.06529 0.00426
           232  ud222u000d  -0.08959 0.00803
           251  0222200002   0.07047 0.00497
          1971  2220000220  -0.07496 0.00562
          2020  22ud00ud20  -0.07951 0.00632
          2069  2u2d0u0d20  -0.07492 0.00561
          2141  u22d000u2d  -0.06771 0.00459
          2168  2202002020  -0.05773 0.00333
          2217  2ud20ud020  -0.06662 0.00444
          2290  u2d200u02d  -0.05945 0.00353
          2389  ud220u002d  -0.05956 0.00355
          2451  0222000022  -0.05362 0.00288
          2465  22u0d0u2d0  -0.06896 0.00476
          2514  2u20du02d0  -0.05663 0.00321
          2585  u220d002ud  -0.06121 0.00375
          2612  220ud02ud0  -0.06178 0.00382
          2661  2udududud0  -0.07846 0.00616
          2738  u2dud0uudd  -0.06031 0.00364
          2760  202ud20ud0  -0.05352 0.00286
          2837  ud2udu0udd  -0.05396 0.00291
          2900  022ud00ud2  -0.05596 0.00313
          2913  2uudduudd0  -0.07190 0.00517
          2984  u2udd0udud  -0.06010 0.00361
          3033  uu2ddu0dud  -0.07649 0.00585
          3132  u202d020ud  -0.06051 0.00366
          3236  udu2duu0dd  -0.05458 0.00298
          3331  uud2dud0ud  -0.05579 0.00311
          3380  u022d200ud  -0.05232 0.00274
          3448  0u22du00d2  -0.05005 0.00251
          3457  2200202200  -0.05046 0.00255
          3506  2ud02ud200  -0.05499 0.00302
          3605  2020220200  -0.05057 0.00256
          3754  2u0d2u2d00  -0.06422 0.00412
          3853  20ud22ud00  -0.05073 0.00257
          3927  udud2uud0d  -0.05783 0.00334
          3996  02ud20ud02  -0.05246 0.00275
          4025  uudd2udu0d  -0.05843 0.00341
          4145  0u2d2u0d02  -0.05365 0.00288
          4322  u0d222u00d  -0.05197 0.00270
          4393  0ud22ud002  -0.05266 0.00277
         12211  2200002220   0.05618 0.00316
         12260  2ud00ud220   0.06081 0.00370
         12331  u2d000u22d  -0.05743 0.00330
         12430  ud200u022d  -0.05065 0.00257
         12508  2u0d0u2d20   0.05775 0.00334
         12607  20ud02ud20   0.05279 0.00279
         12679  udud0uud2d  -0.05568 0.00310
         12777  uudd0udu2d  -0.05590 0.00313
         12899  0u2d0u0d22   0.05540 0.00307
         13518  u020d202ud  -0.05050 0.00255
         13841  0udududud2   0.05846 0.00342
         13917  uu0ddu2dud  -0.06349 0.00403
         14043  0uudduudd2   0.05356 0.00287
         18928  2000022220  -0.05243 0.00275
         18947  ud000u222d  -0.06401 0.00410
         18976  u0d002u22d  -0.05755 0.00331
         19001  0ud00ud222  -0.05817 0.00338
         19020  u00d022u2d  -0.05319 0.00283
         19044  0u0d0u2d22  -0.05989 0.00359
         19058  00ud02ud22  -0.05639 0.00318
         19079  u000d222ud  -0.06282 0.00395
         19101  0u00du22d2  -0.05035 0.00254
         19115  00u0d2u2d2  -0.05349 0.00286
         19129  000ud22ud2  -0.06028 0.00363
         19404  0000022222   0.08593 0.00738
 
      Natural orbitals and occupation numbers for root  1
      sym 1:   1.202136   1.183898   1.154445   1.116171   1.073847   0.815202   0.845597   0.884752   0.927633   0.796319

 
      ************************************************************************************************************************
      *                                                                                                                      *
      *                                                    Final results                                                     *
      *                                                                                                                      *
      ************************************************************************************************************************
 
 
++    Wave function specifications:
      -----------------------------
 
      Number of closed shell electrons           0
      Number of electrons in active shells      10
      Max number of holes in RAS1 space          0
      Max nr of electrons in RAS3 space          0
      Number of inactive orbitals                0
      Number of active orbitals                 10
      Number of secondary orbitals              40
      Spin quantum number                      0.0
      State symmetry                             1
--
 
++    Orbital specifications:
      -----------------------
 
      Symmetry species                           1
                                                 a
      Frozen orbitals                            0
      Inactive orbitals                          0
      Active orbitals                           10
      RAS1 orbitals                              0
      RAS2 orbitals                             10
      RAS3 orbitals                              0
      Secondary orbitals                        40
      Deleted orbitals                           0
      Number of basis functions                 50
--
 
++    CI expansion specifications:
      ----------------------------
 
      Number of CSFs                         19404
      Number of determinants                 31878
      Number of root(s) required                 1
      CI root used                               1
      highest root included in the CI            1
      Root passed to geometry opt.               1
--
 
++    Final optimization conditions:
      ------------------------------
 
      Average CI energy                              -4.98718852
      RASSCF energy for state  1                     -4.98718852
      Super-CI energy                                -0.00000000
      RASSCF energy change                            0.00000000
      Max change in MO coefficients               0.235E-05
      Max non-diagonal density matrix element     0.376E-05
      Maximum BLB matrix element                 -0.303E-06
      (orbital pair   5,  15 in symmetry   1)
      Norm of electronic gradient            0.652E-06
--
 
 
      Final state energy(ies):
      ------------------------
 
::    RASSCF root number  1 Total energy:     -4.98718852
 
++    Molecular orbitals:
      -------------------
 
      Pseudonatural active orbitals and approximate occupation numbers
 
 
 
 
      Molecular orbitals for symmetry species 1: a  
 
 
      Orbital                1         2         3         4         5         6         7         8         9        10
      Energy            0.0000    0.0000    0.0000    0.0000    0.0000    0.0000    0.0000    0.0000    0.0000    0.0000
      Occ. No.          1.2021    1.1839    1.1544    1.1162    1.0738    0.8152    0.8456    0.8848    0.9276    0.7963
 
    1 H1     1s         0.1601    0.2912    0.3687   -0.3698    0.2691    0.3315   -0.4104   -0.4007   -0.2832    0.1851
    2 H1     2s         0.0121    0.0221    0.0284   -0.0293    0.0221    0.0411   -0.0475   -0.0428   -0.0280    0.0241
    3 H1     2px        0.0000    0.0000    0.0000   -0.0000    0.0000   -0.0000    0.0000    0.0000    0.0000   -0.0000
    4 H1     2py        0.0000   -0.0000   -0.0000    0.0000   -0.0000   -0.0000    0.0000    0.0000    0.0000    0.0000
    5 H1     2pz        0.0001    0.0001    0.0000    0.0001   -0.0001    0.0017   -0.0015   -0.0009   -0.0004    0.0011
    6 H2     1s         0.2217    0.3682    0.3944   -0.3024    0.1448   -0.4381    0.4425    0.3119    0.1313   -0.2735
    7 H2     2s         0.0145    0.0267    0.0335   -0.0314    0.0194   -0.0641    0.0567    0.0319    0.0082   -0.0431
    8 H2     2px       -0.0000    0.0000    0.0000   -0.0000   -0.0000    0.0000   -0.0000   -0.0000   -0.0000    0.0000
    9 H2     2py       -0.0000   -0.0000   -0.0000    0.0000   -0.0000    0.0000    0.0000   -0.0000   -0.0000    0.0000
   10 H2     2pz        0.0002    0.0003    0.0002   -0.0001    0.0001    0.0000   -0.0007   -0.0011   -0.0007   -0.0003
   11 H3     1s         0.3063    0.3534    0.0912    0.2684   -0.3923    0.4263   -0.1214    0.2792    0.4082    0.3709
   12 H3     2s         0.0219    0.0241    0.0022    0.0277   -0.0379    0.0647   -0.0206    0.0307    0.0445    0.0577
   13 H3     2px        0.0000    0.0000    0.0000    0.0000   -0.0000    0.0000   -0.0000   -0.0000    0.0000    0.0000
   14 H3     2py        0.0000    0.0000   -0.0000   -0.0000    0.0000    0.0000   -0.0000   -0.0000   -0.0000   -0.0000
   15 H3     2pz       -0.0002   -0.0003   -0.0002   -0.0002    0.0004    0.0002    0.0010    0.0012    0.0004    0.0008
   16 H4     1s         0.3429    0.2895   -0.1011    0.3905   -0.2949   -0.3379   -0.1301   -0.4309   -0.2948   -0.4203
   17 H4     2s         0.0233    0.0232   -0.0038    0.0326   -0.0314   -0.0486   -0.0215   -0.0538   -0.0287   -0.0667
   18 H4     2px       -0.0000   -0.0000    0.0000    0.0000    0.0000    0.0000   -0.0000    0.0000    0.0000    0.0000
   19 H4     2py       -0.0000   -0.0000    0.0000   -0.0000   -0.0000    0.0000   -0.0000    0.0000    0.0000   -0.0000
   20 H4     2pz        0.0003    0.0001   -0.0002    0.0003   -0.0003    0.0011   -0.0011    0.0003    0.0010    0.0002
   21 H5     1s         0.3726    0.0682   -0.3714    0.1204    0.3945    0.0919    0.4235    0.1477   -0.4048    0.4544
   22 H5     2s         0.0260    0.0020   -0.0301    0.0059    0.0394    0.0164    0.0573    0.0224   -0.0424    0.0716
   23 H5     2px       -0.0000   -0.0000    0.0000    0.0000    0.0000    0.0000   -0.0000   -0.0000   -0.0000    0.0000
   24 H5     2py        0.0000   -0.0000    0.0000   -0.0000   -0.0000   -0.0000    0.0000   -0.0000   -0.0000   -0.0000
   25 H5     2pz       -0.0002   -0.0002    0.0002   -0.0001   -0.0004   -0.0010    0.0008   -0.0009   -0.0009    0.0005
   26 H6     1s         0.3726   -0.0682   -0.3714   -0.1204    0.3945    0.0919   -0.4235    0.1477    0.4048   -0.4544
   27 H6     2s         0.0260   -0.0020   -0.0301   -0.0059    0.0394    0.0164   -0.0573    0.0224    0.0424   -0.0716
   28 H6     2px       -0.0000    0.0000   -0.0000   -0.0000    0.0000    0.0000   -0.0000    0.0000   -0.0000   -0.0000
   29 H6     2py       -0.0000    0.0000    0.0000   -0.0000   -0.0000    0.0000   -0.0000    0.0000   -0.0000   -0.0000
   30 H6     2pz        0.0002   -0.0002   -0.0002   -0.0001    0.0004    0.0010    0.0008    0.0009   -0.0009    0.0005
   31 H7     1s         0.3429   -0.2895   -0.1011   -0.3905   -0.2949   -0.3379    0.1301   -0.4309    0.2948    0.4203
   32 H7     2s         0.0233   -0.0232   -0.0038   -0.0326   -0.0314   -0.0486    0.0215   -0.0538    0.0287    0.0667
   33 H7     2px        0.0000    0.0000    0.0000   -0.0000   -0.0000   -0.0000    0.0000    0.0000    0.0000    0.0000
   34 H7     2py       -0.0000    0.0000    0.0000   -0.0000    0.0000    0.0000    0.0000   -0.0000   -0.0000    0.0000
   35 H7     2pz       -0.0003    0.0001    0.0002    0.0003    0.0003   -0.0011   -0.0011   -0.0003    0.0010    0.0002
   36 H8     1s         0.3063   -0.3534    0.0912   -0.2684   -0.3923    0.4263    0.1214    0.2792   -0.4082   -0.3709
   37 H8     2s         0.0219   -0.0241    0.0022   -0.0277   -0.0379    0.0647    0.0206    0.0307   -0.0445   -0.0577
   38 H8     2px        0.0000   -0.0000    0.0000   -0.0000    0.0000    0.0000    0.0000    0.0000    0.0000    0.0000
   39 H8     2py       -0.0000   -0.0000    0.0000    0.0000    0.0000    0.0000    0.0000   -0.0000    0.0000    0.0000
   40 H8     2pz        0.0002   -0.0003    0.0002   -0.0002   -0.0004   -0.0002    0.0010   -0.0012    0.0004    0.0008
   41 H9     1s         0.2218   -0.3682    0.3944    0.3024    0.1448   -0.4381   -0.4425    0.3119   -0.1313    0.2735
   42 H9     2s         0.0145   -0.0267    0.0335    0.0314    0.0194   -0.0641   -0.0567    0.0319   -0.0082    0.0431
   43 H9     2px        0.0000   -0.0000    0.0000    0.0000    0.0000   -0.0000   -0.0000    0.0000    0.0000    0.0000
   44 H9     2py       -0.0000   -0.0000    0.0000   -0.0000   -0.0000   -0.0000    0.0000    0.0000    0.0000   -0.0000
   45 H9     2pz       -0.0002    0.0003   -0.0002   -0.0001   -0.0001   -0.0000   -0.0007    0.0011   -0.0007   -0.0003
   46 H10    1s         0.1601   -0.2912    0.3687    0.3698    0.2691    0.3315    0.4104   -0.4007    0.2832   -0.1851
   47 H10    2s         0.0121   -0.0221    0.0284    0.0293    0.0221    0.0411    0.0475   -0.0428    0.0280   -0.0241
   48 H10    2px        0.0000    0.0000   -0.0000   -0.0000   -0.0000   -0.0000    0.0000   -0.0000   -0.0000   -0.0000
   49 H10    2py        0.0000    0.0000    0.0000    0.0000   -0.0000   -0.0000    0.0000    0.0000    0.0000   -0.0000
   50 H10    2pz       -0.0001    0.0001   -0.0000    0.0001    0.0001   -0.0017   -0.0015    0.0009   -0.0004    0.0011
 
 
      Orbital               11        12        13        14        15        16        17        18        19        20
      Energy            0.3197    0.3264    0.3388    0.3583    0.3867    0.4261    0.4825    0.5575    0.6511    0.7531
      Occ. No.          0.0000    0.0000    0.0000    0.0000    0.0000    0.0000    0.0000    0.0000    0.0000    0.0000
 
    1 H1     1s        -0.0554    0.0897    0.0930   -0.0677    0.0227    0.0297   -0.0785   -0.1099   -0.1123    0.0895
    2 H1     2s         0.1449   -0.2653   -0.3519    0.4083   -0.4421    0.4494   -0.4332   -0.3935   -0.3167    0.2208
    3 H1     2px        0.0000   -0.0000   -0.0000    0.0000   -0.0000    0.0000   -0.0000   -0.0000   -0.0000   -0.0000
    4 H1     2py       -0.0000    0.0000    0.0000    0.0000    0.0000    0.0000   -0.0000    0.0000   -0.0000   -0.0000
    5 H1     2pz        0.0018   -0.0032   -0.0034    0.0014    0.0049   -0.0178    0.0418    0.0822    0.1462   -0.2682
    6 H2     1s        -0.0980    0.1431    0.1204   -0.0580    0.0041    0.0019    0.0498    0.1268    0.1666   -0.1258
    7 H2     2s         0.1885   -0.2988   -0.2918    0.1711    0.0347   -0.2746    0.4989    0.6313    0.5940   -0.3821
    8 H2     2px       -0.0000    0.0000    0.0000   -0.0000   -0.0000    0.0000   -0.0000    0.0000   -0.0000    0.0000
    9 H2     2py       -0.0000   -0.0000    0.0000    0.0000   -0.0000    0.0000    0.0000   -0.0000    0.0000   -0.0000
   10 H2     2pz        0.0014   -0.0002    0.0059   -0.0182    0.0348   -0.0479    0.0446    0.0059   -0.0893    0.2816
   11 H3     1s        -0.1200    0.1326    0.0396    0.0564   -0.0674    0.0118    0.0079   -0.0770   -0.1851    0.1563
   12 H3     2s         0.2364   -0.2895   -0.1100   -0.1903    0.4159   -0.3884    0.0622   -0.3967   -0.6604    0.4666
   13 H3     2px       -0.0000    0.0000    0.0000    0.0000   -0.0000    0.0000   -0.0000    0.0000    0.0000   -0.0000
   14 H3     2py       -0.0000    0.0000    0.0000   -0.0000    0.0000   -0.0000    0.0000   -0.0000    0.0000    0.0000
   15 H3     2pz        0.0014    0.0017    0.0097   -0.0155    0.0046    0.0333   -0.0888   -0.1128   -0.0319   -0.2191
   16 H4     1s        -0.1365    0.0965   -0.0518    0.1047   -0.0295   -0.0090   -0.0494   -0.0275    0.1428   -0.1739
   17 H4     2s         0.2694   -0.2064    0.1395   -0.3705    0.1675    0.3161   -0.5490   -0.1436    0.5062   -0.5144
   18 H4     2px        0.0000   -0.0000    0.0000   -0.0000    0.0000    0.0000   -0.0000    0.0000    0.0000   -0.0000
   19 H4     2py        0.0000   -0.0000    0.0000   -0.0000   -0.0000    0.0000   -0.0000    0.0000    0.0000    0.0000
   20 H4     2pz        0.0009    0.0040    0.0097   -0.0001   -0.0292    0.0410    0.0219    0.1398    0.1498    0.1356
   21 H5     1s        -0.1452    0.0335   -0.1197    0.0503    0.0547   -0.0107    0.0279    0.1143   -0.0529    0.1818
   22 H5     2s         0.2860   -0.0758    0.3085   -0.1861   -0.3297    0.3533    0.3239    0.5749   -0.1894    0.5374
   23 H5     2px        0.0000   -0.0000    0.0000    0.0000    0.0000   -0.0000    0.0000    0.0000    0.0000   -0.0000
   24 H5     2py        0.0000   -0.0000    0.0000   -0.0000   -0.0000   -0.0000    0.0000   -0.0000    0.0000    0.0000
   25 H5     2pz        0.0002    0.0053    0.0037    0.0164   -0.0194   -0.0371    0.0732   -0.0622   -0.2202   -0.0459
   26 H6     1s        -0.1452   -0.0335   -0.1197   -0.0503    0.0547    0.0107    0.0279   -0.1143   -0.0529   -0.1818
   27 H6     2s         0.2860    0.0758    0.3085    0.1861   -0.3297   -0.3533    0.3239   -0.5749   -0.1894   -0.5374
   28 H6     2px        0.0000    0.0000   -0.0000   -0.0000    0.0000    0.0000   -0.0000    0.0000    0.0000    0.0000
   29 H6     2py        0.0000    0.0000    0.0000   -0.0000   -0.0000   -0.0000   -0.0000   -0.0000    0.0000    0.0000
   30 H6     2pz       -0.0002    0.0053   -0.0037    0.0164    0.0194   -0.0371   -0.0732   -0.0622    0.2202   -0.0459
   31 H7     1s        -0.1365   -0.0965   -0.0518   -0.1047   -0.0295    0.0090   -0.0494    0.0275    0.1428    0.1739
   32 H7     2s         0.2694    0.2065    0.1395    0.3705    0.1675   -0.3161   -0.5490    0.1436    0.5062    0.5144
   33 H7     2px       -0.0000    0.0000    0.0000   -0.0000   -0.0000    0.0000    0.0000    0.0000   -0.0000   -0.0000
   34 H7     2py        0.0000    0.0000    0.0000    0.0000    0.0000   -0.0000    0.0000   -0.0000    0.0000   -0.0000
   35 H7     2pz       -0.0009    0.0040   -0.0097   -0.0001    0.0292    0.0410   -0.0219    0.1398   -0.1498    0.1356
   36 H8     1s        -0.1200   -0.1326    0.0396   -0.0564   -0.0674   -0.0118    0.0079    0.0770   -0.1851   -0.1563
   37 H8     2s         0.2364    0.2895   -0.1100    0.1903    0.4159    0.3884    0.0622    0.3967   -0.6604   -0.4666
   38 H8     2px       -0.0000   -0.0000    0.0000   -0.0000   -0.0000    0.0000   -0.0000   -0.0000    0.0000   -0.0000
   39 H8     2py        0.0000   -0.0000    0.0000    0.0000    0.0000    0.0000    0.0000    0.0000    0.0000   -0.0000
   40 H8     2pz       -0.0014    0.0017   -0.0097   -0.0155   -0.0046    0.0333    0.0888   -0.1128    0.0319   -0.2191
   41 H9     1s        -0.0980   -0.1431    0.1204    0.0580    0.0041   -0.0019    0.0498   -0.1268    0.1666    0.1258
   42 H9     2s         0.1885    0.2988   -0.2918   -0.1711    0.0347    0.2746    0.4989   -0.6313    0.5940    0.3821
   43 H9     2px       -0.0000   -0.0000    0.0000    0.0000    0.0000   -0.0000   -0.0000    0.0000   -0.0000   -0.0000
   44 H9     2py        0.0000   -0.0000    0.0000   -0.0000   -0.0000    0.0000   -0.0000   -0.0000   -0.0000    0.0000
   45 H9     2pz       -0.0014   -0.0002   -0.0059   -0.0182   -0.0348   -0.0479   -0.0446    0.0059    0.0893    0.2816
   46 H10    1s        -0.0554   -0.0897    0.0930    0.0677    0.0227   -0.0297   -0.0785    0.1099   -0.1123   -0.0895
   47 H10    2s         0.1449    0.2653   -0.3519   -0.4083   -0.4421   -0.4494   -0.4332    0.3935   -0.3167   -0.2208
   48 H10    2px       -0.0000    0.0000   -0.0000   -0.0000   -0.0000   -0.0000    0.0000   -0.0000   -0.0000   -0.0000
   49 H10    2py       -0.0000    0.0000    0.0000    0.0000   -0.0000    0.0000   -0.0000   -0.0000   -0.0000    0.0000
   50 H10    2pz       -0.0018   -0.0032    0.0034    0.0014   -0.0049   -0.0178   -0.0418    0.0822   -0.1462   -0.2682
 
 
      Orbital               21        22        23        24        25        26        27        28        29        30
      Energy            0.7968    0.8957    0.8957    0.9019    0.9019    0.9119    0.9119    0.9250    0.9250    0.9385
      Occ. No.          0.0000    0.0000    0.0000    0.0000    0.0000    0.0000    0.0000    0.0000    0.0000    0.0000
 
    1 H1     1s        -0.0500   -0.0000   -0.0000   -0.0000    0.0000    0.0000   -0.0000    0.0000    0.0000    0.0302
    2 H1     2s        -0.1189   -0.0000   -0.0000   -0.0000    0.0000    0.0000    0.0000   -0.0000   -0.0000    0.0697
    3 H1     2px        0.0000    0.1068    0.0430    0.2089   -0.0733   -0.1646   -0.2645    0.3646    0.1040    0.0000
    4 H1     2py       -0.0000   -0.0430    0.1068    0.0733    0.2089    0.2645   -0.1646   -0.1040    0.3646   -0.0000
    5 H1     2pz        0.2631   -0.0000   -0.0000   -0.0000   -0.0000   -0.0000   -0.0000    0.0000   -0.0000    0.2212
    6 H2     1s         0.0490    0.0000   -0.0000    0.0000    0.0000    0.0000    0.0000   -0.0000    0.0000   -0.1106
    7 H2     2s         0.1489    0.0000    0.0000    0.0000   -0.0000   -0.0000   -0.0000   -0.0000    0.0000   -0.2805
    8 H2     2px       -0.0000    0.2083    0.0840    0.3579   -0.1256   -0.2202   -0.3539    0.3123    0.0890    0.0000
    9 H2     2py        0.0000   -0.0840    0.2083    0.1256    0.3579    0.3539   -0.2202   -0.0890    0.3123    0.0000
   10 H2     2pz       -0.3099    0.0000    0.0000    0.0000   -0.0000   -0.0000   -0.0000   -0.0000    0.0000   -0.2822
   11 H3     1s        -0.0397   -0.0000   -0.0000   -0.0000    0.0000    0.0000    0.0000    0.0000   -0.0000    0.2033
   12 H3     2s        -0.1168   -0.0000   -0.0000   -0.0000    0.0000    0.0000    0.0000    0.0000   -0.0000    0.5305
   13 H3     2px        0.0000    0.2919    0.1177    0.3909   -0.1372   -0.1213   -0.1949   -0.1109   -0.0316   -0.0000
   14 H3     2py        0.0000   -0.1177    0.2919    0.1372    0.3909    0.1949   -0.1213    0.0316   -0.1109    0.0000
   15 H3     2pz        0.3003   -0.0000   -0.0000   -0.0000    0.0000   -0.0000    0.0000    0.0000   -0.0000    0.2463
   16 H4     1s         0.0250    0.0000    0.0000   -0.0000   -0.0000    0.0000   -0.0000   -0.0000    0.0000   -0.2784
   17 H4     2s         0.0704    0.0000    0.0000    0.0000   -0.0000    0.0000   -0.0000   -0.0000    0.0000   -0.7329
   18 H4     2px        0.0000    0.3512    0.1416    0.2990   -0.1050    0.0615    0.0988   -0.4019   -0.1146   -0.0000
   19 H4     2py        0.0000   -0.1416    0.3512    0.1050    0.2990   -0.0988    0.0615    0.1146   -0.4019   -0.0000
   20 H4     2pz       -0.2867   -0.0000   -0.0000    0.0000    0.0000    0.0000   -0.0000   -0.0000    0.0000   -0.1635
   21 H5     1s        -0.0080   -0.0000    0.0000    0.0000   -0.0000   -0.0000    0.0000    0.0000   -0.0000    0.3201
   22 H5     2s        -0.0233   -0.0000   -0.0000   -0.0000    0.0000   -0.0000    0.0000    0.0000   -0.0000    0.8429
   23 H5     2px        0.0000    0.3822    0.1541    0.1112   -0.0390    0.2021    0.3249   -0.2198   -0.0627    0.0000
   24 H5     2py        0.0000   -0.1541    0.3822    0.0390    0.1112   -0.3249    0.2021    0.0627   -0.2198   -0.0000
   25 H5     2pz        0.2795    0.0000    0.0000    0.0000   -0.0000   -0.0000    0.0000   -0.0000   -0.0000    0.0566
   26 H6     1s        -0.0080   -0.0000    0.0000    0.0000   -0.0000    0.0000   -0.0000   -0.0000    0.0000   -0.3201
   27 H6     2s        -0.0233    0.0000    0.0000    0.0000   -0.0000    0.0000   -0.0000   -0.0000    0.0000   -0.8429
   28 H6     2px        0.0000    0.3822    0.1541   -0.1112    0.0390    0.2021    0.3249    0.2198    0.0627    0.0000
   29 H6     2py        0.0000   -0.1541    0.3822   -0.0390   -0.1112   -0.3249    0.2021   -0.0627    0.2198   -0.0000
   30 H6     2pz       -0.2795   -0.0000   -0.0000   -0.0000    0.0000    0.0000   -0.0000    0.0000   -0.0000    0.0566
   31 H7     1s         0.0250   -0.0000    0.0000    0.0000   -0.0000   -0.0000    0.0000    0.0000   -0.0000    0.2784
   32 H7     2s         0.0704   -0.0000    0.0000   -0.0000    0.0000   -0.0000    0.0000    0.0000   -0.0000    0.7329
   33 H7     2px       -0.0000    0.3512    0.1416   -0.2990    0.1050    0.0615    0.0988    0.4019    0.1146   -0.0000
   34 H7     2py       -0.0000   -0.1416    0.3512   -0.1050   -0.2990   -0.0988    0.0615   -0.1146    0.4019    0.0000
   35 H7     2pz        0.2867    0.0000    0.0000    0.0000   -0.0000    0.0000   -0.0000   -0.0000    0.0000   -0.1635
   36 H8     1s        -0.0397    0.0000   -0.0000    0.0000   -0.0000    0.0000   -0.0000   -0.0000    0.0000   -0.2033
   37 H8     2s        -0.1168    0.0000   -0.0000    0.0000   -0.0000    0.0000   -0.0000   -0.0000    0.0000   -0.5305
   38 H8     2px       -0.0000    0.2919    0.1177   -0.3909    0.1372   -0.1213   -0.1949    0.1109    0.0316   -0.0000
   39 H8     2py        0.0000   -0.1177    0.2919   -0.1372   -0.3909    0.1949   -0.1213   -0.0316    0.1109    0.0000
   40 H8     2pz       -0.3003   -0.0000   -0.0000   -0.0000    0.0000   -0.0000    0.0000    0.0000   -0.0000    0.2463
   41 H9     1s         0.0490   -0.0000    0.0000    0.0000   -0.0000    0.0000    0.0000    0.0000   -0.0000    0.1106
   42 H9     2s         0.1489   -0.0000    0.0000   -0.0000    0.0000   -0.0000    0.0000    0.0000   -0.0000    0.2805
   43 H9     2px       -0.0000    0.2083    0.0840   -0.3579    0.1256   -0.2202   -0.3539   -0.3123   -0.0890    0.0000
   44 H9     2py       -0.0000   -0.0840    0.2083   -0.1256   -0.3579    0.3539   -0.2202    0.0890   -0.3123   -0.0000
   45 H9     2pz        0.3099    0.0000   -0.0000    0.0000   -0.0000    0.0000   -0.0000   -0.0000    0.0000   -0.2822
   46 H10    1s        -0.0500   -0.0000    0.0000   -0.0000    0.0000   -0.0000    0.0000    0.0000    0.0000   -0.0302
   47 H10    2s        -0.1189    0.0000   -0.0000    0.0000    0.0000    0.0000   -0.0000   -0.0000    0.0000   -0.0697
   48 H10    2px       -0.0000    0.1068    0.0430   -0.2089    0.0733   -0.1646   -0.2645   -0.3646   -0.1040    0.0000
   49 H10    2py       -0.0000   -0.0430    0.1068   -0.0733   -0.2089    0.2645   -0.1646    0.1040   -0.3646   -0.0000
   50 H10    2pz       -0.2631   -0.0000    0.0000   -0.0000    0.0000   -0.0000    0.0000    0.0000   -0.0000    0.2212
 
 
      Orbital               31        32        33        34        35        36        37        38        39        40
      Energy            0.9402    0.9402    0.9565    0.9565    0.9723    0.9723    0.9793    0.9864    0.9864    0.9976
      Occ. No.          0.0000    0.0000    0.0000    0.0000    0.0000    0.0000    0.0000    0.0000    0.0000    0.0000
 
    1 H1     1s        -0.0000    0.0000   -0.0000   -0.0000   -0.0000    0.0000   -0.0510    0.0000    0.0000    0.0000
    2 H1     2s        -0.0000    0.0000   -0.0000   -0.0000   -0.0000    0.0000   -0.1218    0.0000    0.0000    0.0000
    3 H1     2px        0.3439    0.2359   -0.3801   -0.1878   -0.3330    0.2168    0.0000    0.2745    0.1913   -0.0180
    4 H1     2py       -0.2359    0.3439    0.1878   -0.3801    0.2168    0.3330    0.0000    0.1913   -0.2745   -0.2405
    5 H1     2pz       -0.0000    0.0000   -0.0000   -0.0000   -0.0000    0.0000   -0.2933    0.0000    0.0000    0.0000
    6 H2     1s         0.0000   -0.0000    0.0000   -0.0000    0.0000   -0.0000    0.1513   -0.0000   -0.0000   -0.0000
    7 H2     2s         0.0000   -0.0000    0.0000    0.0000    0.0000   -0.0000    0.3926   -0.0000   -0.0000   -0.0000
    8 H2     2px        0.1067    0.0732    0.1001    0.0494    0.2679   -0.1744   -0.0000   -0.3507   -0.2444    0.0297
    9 H2     2py       -0.0732    0.1067   -0.0494    0.1001   -0.1744   -0.2679    0.0000   -0.2444    0.3507    0.3959
   10 H2     2pz        0.0000   -0.0000    0.0000    0.0000    0.0000   -0.0000    0.3044   -0.0000   -0.0000    0.0000
   11 H3     1s        -0.0000    0.0000   -0.0000   -0.0000   -0.0000    0.0000   -0.2177    0.0000    0.0000    0.0000
   12 H3     2s        -0.0000    0.0000   -0.0000   -0.0000   -0.0000    0.0000   -0.5799    0.0000    0.0000    0.0000
   13 H3     2px       -0.3169   -0.2174    0.3515    0.1737    0.1073   -0.0698   -0.0000    0.1886    0.1314   -0.0321
   14 H3     2py        0.2174   -0.3169   -0.1737    0.3515   -0.0698   -0.1073   -0.0000    0.1314   -0.1886   -0.4288
   15 H3     2pz       -0.0000    0.0000    0.0000   -0.0000    0.0000   -0.0000   -0.0873   -0.0000   -0.0000    0.0000
   16 H4     1s         0.0000   -0.0000    0.0000   -0.0000    0.0000   -0.0000    0.1927    0.0000   -0.0000    0.0000
   17 H4     2s         0.0000   -0.0000    0.0000    0.0000    0.0000   -0.0000    0.5166    0.0000   -0.0000   -0.0000
   18 H4     2px       -0.1929   -0.1323   -0.2051   -0.1013   -0.3570    0.2324    0.0000    0.1015    0.0707    0.0245
   19 H4     2py        0.1323   -0.1929    0.1013   -0.2051    0.2324    0.3570    0.0000    0.0707   -0.1015    0.3270
   20 H4     2pz        0.0000    0.0000   -0.0000   -0.0000   -0.0000    0.0000   -0.1969    0.0000    0.0000    0.0000
   21 H5     1s        -0.0000    0.0000   -0.0000   -0.0000   -0.0000    0.0000   -0.0762   -0.0000   -0.0000    0.0000
   22 H5     2s        -0.0000    0.0000   -0.0000   -0.0000   -0.0000    0.0000   -0.2060   -0.0000    0.0000    0.0000
   23 H5     2px        0.2650    0.1818   -0.2913   -0.1439    0.1933   -0.1259   -0.0000   -0.3230   -0.2251   -0.0091
   24 H5     2py       -0.1818    0.2650    0.1439   -0.2913   -0.1259   -0.1933   -0.0000   -0.2251    0.3230   -0.1215
   25 H5     2pz       -0.0000   -0.0000    0.0000    0.0000    0.0000   -0.0000    0.3902   -0.0000   -0.0000   -0.0000
   26 H6     1s         0.0000   -0.0000   -0.0000    0.0000   -0.0000    0.0000   -0.0762   -0.0000    0.0000    0.0000
   27 H6     2s         0.0000   -0.0000    0.0000    0.0000   -0.0000    0.0000   -0.2060    0.0000    0.0000   -0.0000
   28 H6     2px        0.2650    0.1818    0.2913    0.1439    0.1933   -0.1259   -0.0000    0.3230    0.2251   -0.0091
   29 H6     2py       -0.1818    0.2650   -0.1439    0.2913   -0.1259   -0.1933   -0.0000    0.2251   -0.3230   -0.1215
   30 H6     2pz       -0.0000    0.0000   -0.0000   -0.0000   -0.0000    0.0000   -0.3902   -0.0000    0.0000   -0.0000
   31 H7     1s        -0.0000    0.0000   -0.0000    0.0000    0.0000   -0.0000    0.1927   -0.0000   -0.0000   -0.0000
   32 H7     2s        -0.0000    0.0000   -0.0000   -0.0000    0.0000   -0.0000    0.5166   -0.0000   -0.0000    0.0000
   33 H7     2px       -0.1929   -0.1323    0.2051    0.1013   -0.3570    0.2324    0.0000   -0.1015   -0.0707    0.0245
   34 H7     2py        0.1323   -0.1929   -0.1013    0.2051    0.2324    0.3570   -0.0000   -0.0707    0.1015    0.3270
   35 H7     2pz        0.0000   -0.0000   -0.0000    0.0000    0.0000   -0.0000    0.1969    0.0000    0.0000    0.0000
   36 H8     1s         0.0000    0.0000   -0.0000   -0.0000   -0.0000    0.0000   -0.2177    0.0000    0.0000   -0.0000
   37 H8     2s         0.0000   -0.0000    0.0000    0.0000   -0.0000    0.0000   -0.5799    0.0000    0.0000   -0.0000
   38 H8     2px       -0.3169   -0.2174   -0.3515   -0.1737    0.1073   -0.0698    0.0000   -0.1886   -0.1314   -0.0321
   39 H8     2py        0.2174   -0.3169    0.1737   -0.3515   -0.0698   -0.1073    0.0000   -0.1314    0.1886   -0.4288
   40 H8     2pz       -0.0000    0.0000    0.0000   -0.0000    0.0000   -0.0000    0.0873   -0.0000   -0.0000   -0.0000
   41 H9     1s        -0.0000   -0.0000    0.0000    0.0000    0.0000   -0.0000    0.1513   -0.0000   -0.0000    0.0000
   42 H9     2s        -0.0000   -0.0000   -0.0000   -0.0000    0.0000   -0.0000    0.3926   -0.0000   -0.0000    0.0000
   43 H9     2px        0.1067    0.0732   -0.1001   -0.0494    0.2679   -0.1744   -0.0000    0.3507    0.2444    0.0297
   44 H9     2py       -0.0732    0.1067    0.0494   -0.1001   -0.1744   -0.2679   -0.0000    0.2444   -0.3507    0.3959
   45 H9     2pz        0.0000    0.0000    0.0000    0.0000   -0.0000    0.0000   -0.3044    0.0000    0.0000   -0.0000
   46 H10    1s         0.0000    0.0000    0.0000    0.0000   -0.0000   -0.0000   -0.0510    0.0000   -0.0000    0.0000
[...]
    2 H1     2s        -0.0000    0.0000   -0.0000    0.1482   -0.1572    0.1518   -0.1341    0.1068   -0.0736    0.0374
    3 H1     2px       -0.2405    0.0413   -0.1191   -0.0000    0.0000   -0.0000    0.0000   -0.0000    0.0000   -0.0000
    4 H1     2py        0.0180    0.1191    0.0413    0.0000    0.0000    0.0000   -0.0000    0.0000   -0.0000    0.0000
    5 H1     2pz       -0.0000    0.0000   -0.0000    0.3421   -0.3803    0.3967   -0.3801    0.3257   -0.2378    0.1254
    6 H2     1s         0.0000   -0.0000    0.0000   -0.1436    0.1154   -0.0800    0.0448   -0.0158   -0.0016    0.0054
    7 H2     2s         0.0000   -0.0000    0.0000   -0.3819    0.3066   -0.2047    0.1082   -0.0372    0.0000    0.0081
    8 H2     2px        0.3959   -0.0777    0.2239    0.0000   -0.0000    0.0000   -0.0000    0.0000   -0.0000   -0.0000
    9 H2     2py       -0.0297   -0.2239   -0.0777   -0.0000   -0.0000   -0.0000    0.0000   -0.0000    0.0000   -0.0000
   10 H2     2pz        0.0000   -0.0000    0.0000   -0.2093    0.0326    0.1873   -0.3814    0.4787   -0.4363    0.2591
   11 H3     1s        -0.0000    0.0000    0.0000    0.1310   -0.0385   -0.0200    0.0363   -0.0217   -0.0003    0.0085
   12 H3     2s        -0.0000   -0.0000   -0.0000    0.3559   -0.1006   -0.0574    0.0907   -0.0478   -0.0021    0.0174
   13 H3     2px       -0.4288    0.1083   -0.3123   -0.0000    0.0000   -0.0000    0.0000    0.0000    0.0000    0.0000
   14 H3     2py        0.0321    0.3123    0.1083    0.0000    0.0000   -0.0000   -0.0000   -0.0000    0.0000    0.0000
   15 H3     2pz        0.0000   -0.0000    0.0000   -0.2195    0.4440   -0.4174    0.1257    0.2558   -0.4677    0.3585
   16 H4     1s         0.0000    0.0000    0.0000   -0.0059   -0.0752    0.0480    0.0097   -0.0331    0.0149    0.0041
   17 H4     2s         0.0000    0.0000   -0.0000   -0.0133   -0.2104    0.1290    0.0224   -0.0731    0.0311    0.0068
   18 H4     2px        0.3270   -0.1302    0.3756    0.0000    0.0000    0.0000   -0.0000    0.0000   -0.0000   -0.0000
   19 H4     2py       -0.0245   -0.3756   -0.1302    0.0000   -0.0000   -0.0000   -0.0000   -0.0000    0.0000    0.0000
   20 H4     2pz       -0.0000    0.0000   -0.0000    0.4519   -0.2271   -0.2585    0.4561   -0.1255   -0.3623    0.4351
   21 H5     1s         0.0000   -0.0000   -0.0000   -0.1185    0.0567    0.0425   -0.0382   -0.0124    0.0202    0.0016
   22 H5     2s         0.0000   -0.0000    0.0000   -0.3281    0.1575    0.1118   -0.0929   -0.0285    0.0407    0.0040
   23 H5     2px       -0.1215    0.1417   -0.4087   -0.0000   -0.0000   -0.0000    0.0000   -0.0000    0.0000    0.0000
   24 H5     2py        0.0091    0.4087    0.1417   -0.0000    0.0000   -0.0000   -0.0000    0.0000   -0.0000    0.0000
   25 H5     2pz        0.0000    0.0000    0.0000   -0.2280   -0.3505    0.3443    0.2542   -0.4274   -0.1340    0.4735
   26 H6     1s        -0.0000    0.0000   -0.0000    0.1185    0.0567   -0.0425   -0.0382    0.0124    0.0202   -0.0016
   27 H6     2s        -0.0000    0.0000   -0.0000    0.3281    0.1575   -0.1118   -0.0929    0.0285    0.0407   -0.0040
   28 H6     2px       -0.1215   -0.1417    0.4087    0.0000    0.0000    0.0000    0.0000    0.0000   -0.0000    0.0000
   29 H6     2py        0.0091   -0.4087   -0.1417    0.0000   -0.0000    0.0000    0.0000   -0.0000   -0.0000    0.0000
   30 H6     2pz        0.0000   -0.0000    0.0000   -0.2280    0.3505    0.3443   -0.2542   -0.4274    0.1340    0.4735
   31 H7     1s         0.0000   -0.0000    0.0000    0.0059   -0.0752   -0.0480    0.0097    0.0331    0.0149   -0.0041
   32 H7     2s         0.0000    0.0000   -0.0000    0.0133   -0.2104   -0.1290    0.0224    0.0731    0.0311   -0.0068
   33 H7     2px        0.3270    0.1302   -0.3756   -0.0000   -0.0000   -0.0000    0.0000    0.0000   -0.0000   -0.0000
   34 H7     2py       -0.0245    0.3756    0.1302   -0.0000    0.0000   -0.0000   -0.0000   -0.0000    0.0000    0.0000
   35 H7     2pz       -0.0000    0.0000   -0.0000    0.4519    0.2271   -0.2585   -0.4560   -0.1255    0.3623    0.4351
   36 H8     1s        -0.0000   -0.0000    0.0000   -0.1310   -0.0385    0.0200    0.0363    0.0217   -0.0003   -0.0085
   37 H8     2s        -0.0000   -0.0000    0.0000   -0.3559   -0.1006    0.0574    0.0907    0.0478   -0.0021   -0.0174
   38 H8     2px       -0.4288   -0.1083    0.3123   -0.0000    0.0000   -0.0000   -0.0000    0.0000    0.0000   -0.0000
   39 H8     2py        0.0321   -0.3123   -0.1083    0.0000   -0.0000   -0.0000    0.0000    0.0000   -0.0000   -0.0000
   40 H8     2pz        0.0000   -0.0000    0.0000   -0.2195   -0.4440   -0.4174   -0.1257    0.2558    0.4677    0.3585
   41 H9     1s        -0.0000    0.0000   -0.0000    0.1436    0.1154    0.0800    0.0448    0.0158   -0.0016   -0.0054
   42 H9     2s        -0.0000    0.0000   -0.0000    0.3819    0.3066    0.2047    0.1082    0.0372    0.0000   -0.0081
   43 H9     2px        0.3959    0.0777   -0.2239    0.0000   -0.0000    0.0000   -0.0000   -0.0000   -0.0000    0.0000
   44 H9     2py       -0.0297    0.2239    0.0777   -0.0000    0.0000   -0.0000   -0.0000   -0.0000   -0.0000   -0.0000
   45 H9     2pz        0.0000   -0.0000    0.0000   -0.2093   -0.0326    0.1873    0.3814    0.4787    0.4363    0.2591
   46 H10    1s        -0.0000   -0.0000    0.0000   -0.0586   -0.0594   -0.0566   -0.0511   -0.0427   -0.0311   -0.0165
   47 H10    2s         0.0000   -0.0000    0.0000   -0.1482   -0.1572   -0.1518   -0.1341   -0.1068   -0.0736   -0.0374
   48 H10    2px       -0.2405   -0.0413    0.1191   -0.0000    0.0000   -0.0000    0.0000    0.0000    0.0000   -0.0000
   49 H10    2py        0.0180   -0.1191   -0.0413    0.0000   -0.0000   -0.0000    0.0000    0.0000   -0.0000    0.0000
   50 H10    2pz       -0.0000    0.0000   -0.0000    0.3421    0.3803    0.3967    0.3801    0.3257    0.2378    0.1254
--
 
      Von Neumann Entropy (Root  1) =  4.91460
 

      Mulliken population analysis for root number:  1
      -----------------------------------------------
 
 
++    Molecular charges:
      ------------------
 
      Mulliken charges per centre and basis function type
      ---------------------------------------------------
 
                H1      H2      H3      H4      H5      H6      H7      H8      H9      H10   
      1s       0.9943  1.0000  1.0006  1.0004  1.0005  1.0005  1.0004  1.0006  1.0000  0.9943
      2s       0.0052  0.0007 -0.0004 -0.0003 -0.0003 -0.0003 -0.0003 -0.0004  0.0007  0.0052
      2px      0.0000  0.0000  0.0000  0.0000  0.0000  0.0000  0.0000  0.0000  0.0000  0.0000
      2pz     -0.0001 -0.0001 -0.0001 -0.0002 -0.0002 -0.0002 -0.0002 -0.0001 -0.0001 -0.0001
      2py      0.0000  0.0000  0.0000  0.0000  0.0000  0.0000  0.0000  0.0000  0.0000  0.0000
      Total    0.9994  1.0006  1.0000  1.0000  1.0000  1.0000  1.0000  1.0000  1.0006  0.9994
 
      N-E      0.0006 -0.0006  0.0000  0.0000 -0.0000 -0.0000  0.0000  0.0000 -0.0006  0.0006
 
      Total electronic charge=   10.000000
 
      Total            charge=   -0.000000
--
 
 

      Expectation values of various properties for root number:  1
      -----------------------------------------------------------
 
 
++    Molecular properties:
      ---------------------
 
      Charge (e):
                      =   -0.0000
      Dipole Moment (Debye):
      Origin of the operator (Ang)=    0.0000    0.0000    0.0000
                   X= -3.2355E-13               Y=  5.3169E-13               Z= -1.9975E-10           Total=  1.9975E-10
      Quadrupole Moment (Debye*Ang):
      Origin of the operator (Ang)=    0.0000    0.0000   13.2818
                  XX= -1.5043E+01              XY= -2.6729E-27              XZ= -1.2791E-12              YY= -1.5043E+01
                  YZ= -3.6610E-12              ZZ= -1.5611E+01
      In traceless form (Debye*Ang)
                  XX=  2.8360E-01              XY= -4.0094E-27              XZ= -1.9186E-12              YY=  2.8360E-01
                  YZ= -5.4915E-12              ZZ= -5.6721E-01
--
 

      LoProp population analysis for root number:  1
      -----------------------------------------------
 
 
++    LoProp analysis:
      ----------------
 
 
 
  Input file to MOLDEN was generated!
 
 
++    Static properties:
      ------------------
 
 
      LoProp Charges per center
 

                   H1       H2       H3       H4       H5       H6       H7       H8       H9       H10   
      Nuclear      1.0000   1.0000   1.0000   1.0000   1.0000   1.0000   1.0000   1.0000   1.0000   1.0000
      Electronic  -1.0001  -1.0000  -1.0000  -1.0000  -1.0000  -1.0000  -1.0000  -1.0000  -1.0000  -1.0001
 
      Total       -0.0001   0.0000   0.0000  -0.0000   0.0000   0.0000  -0.0000   0.0000   0.0000  -0.0001
--
 
 
      Natural Bond Order analysis for root number:  1
 
++    Natural Bond Order analysis
      ---------------------------
      Based on LoProp computed density
      -------------------------------------------------------------------------------------
      Atom A       Atom B       Bond Order
      -------------------------------------------------------------------------------------
      The remaining   10.000 electrons are to be considered as diffuse
--
 
--
 
 
  Input file to MOLDEN was generated!
 
      Average orbitals are written to the RASORB file
      Natural orbitals for root   1 are written to the RASORB.1 file
      Spin density orbitals for root   1 are written to the SPDORB.1 file
 
--- Stop Module: rasscf at Thu Oct 17 12:14:22 2024 /rc=_RC_ALL_IS_WELL_ ---
*** files: H10_2.95.LprOrb H10_2.95.rasscf.molden H10_2.95.LoProp.molden H10_2.95.RasOrb H10_2.95.RasOrb.1 H10_2.95.rasscf.h5 H10_2.95.SpdOrb.1 xmldump
    saved to directory /home/grierjones/DDCASPT2/hydrogen_comps/minimal_2e_2o/chains/even/H10_chain/H10_2.95
--- Module rasscf spent 20 seconds ---

>>> COPY /tmp/H10_2.95/H10_2.95.rasscf.h5 /home/grierjones/DDCASPT2/hydrogen_comps/minimal_2e_2o/chains/even/H10_chain/H10_2.95/

>>> COPY /tmp/H10_2.95/GMJ_Fock_MO.csv /home/grierjones/DDCASPT2/hydrogen_comps/minimal_2e_2o/chains/even/H10_chain/H10_2.95/H10_2.95.GMJ_Fock_MO.csv

*** symbolic link created: INPORB -> H10_2.95.RasOrb
--- Start Module: caspt2 at Thu Oct 17 12:14:22 2024 ---
 
()()()()()()()()()()()()()()()()()()()()()()()()()()()()()()()()()()()()()()()()()()()()()()()()()()

                                              &CASPT2

                                   only a single process is used
                       available to each process: 2.0 GB of memory, 1 thread?
()()()()()()()()()()()()()()()()()()()()()()()()()()()()()()()()()()()()()()()()()()()()()()()()()()
 
 Cholesky algorithm in CASPT2 =    1
 
 ###############################################################################
 ###############################################################################
 ###                                                                         ###
 ###                                                                         ###
 ###    User changed nr of frozen orbitals.                                  ###
 ###                                                                         ###
 ###                                                                         ###
 ###############################################################################
 ###############################################################################
 
++    Wave function specifications:
      -----------------------------
 
      Number of closed shell electrons           0
      Number of electrons in active shells      10
      Max number of holes in RAS1 space          0
      Max number of electrons in RAS3 space      0
      Number of inactive orbitals                0
      Number of active orbitals                 10
      Number of secondary orbitals              40
      Spin quantum number                      0.0
      State symmetry                             1
      Number of CSFs                         19404
      Number of root(s) available                1
      Root passed to geometry opt.               1
      A file JOBMIX will be created.
      This is a CASSCF or RASSCF reference function
--
 
++    Orbital specifications:
      -----------------------
 
      Symmetry species                           1
                                                 a
      Frozen orbitals                            0
      Inactive orbitals                          0
      Active orbitals                           10
      Secondary orbitals                        40
      Deleted orbitals                           0
      Number of basis functions                 50
--
 
      Type of Fock operator: STANDARD
      Type of 0-order Hamiltonian: STANDARD WITH DEFAULT IPEA
        "IP-EA" denominator shift =      0.25
      The input orbitals and the CI vector will be transformed.
 
--------------------------------------------------------------------------------
 Estimated memory requirements:
  POLY3 :                  3551880
  RHS:                      835500
  SIGMA :                   430400
  PRPCTL:                        0
 Available workspace:    230354915
 
++ CASPT2 computation for group   1
 
********************************************************************************
 Multi-State initialization phase begins for group   1
--------------------------------------------------------------------------------
********************************************************************************
 Compute H0 matrices for state    1
--------------------------------------------------------------------------------
--------------------------------------------------------------------------------
 H0 matrices have been computed.
 
********************************************************************************
  CASPT2 EQUATION SOLUTION
--------------------------------------------------------------------------------
 
  Total nr of CASPT2 parameters:
   Before reduction:      120200
   After  reduction:      118920
 
 The contributions to the second order correlation energy in atomic units.
-----------------------------------------------------------------------------------------------------------------------------
  IT.      VJTU        VJTI        ATVX        AIVX        VJAI        BVAT        BJAT        BJAI        TOTAL       RNORM  
-----------------------------------------------------------------------------------------------------------------------------
   1     0.000000    0.000000   -0.000283    0.000000    0.000000   -0.000890    0.000000    0.000000   -0.001172    0.000421
   2     0.000000    0.000000   -0.000286    0.000000    0.000000   -0.000890    0.000000    0.000000   -0.001176    0.000083
   3     0.000000    0.000000   -0.000286    0.000000    0.000000   -0.000891    0.000000    0.000000   -0.001177    0.000027
   4     0.000000    0.000000   -0.000286    0.000000    0.000000   -0.000891    0.000000    0.000000   -0.001177    0.000005
   5     0.000000    0.000000   -0.000286    0.000000    0.000000   -0.000891    0.000000    0.000000   -0.001177    0.000001
-------------------------------------------------------------------------------------------------------------------
 
  FINAL CASPT2 RESULT:
 
  Correlation energy /Case, /Symm, and sums:
 VJTU      0.00000000  0.00000000
 VJTIP     0.00000000  0.00000000
 VJTIM     0.00000000  0.00000000
 ATVX     -0.00028605 -0.00028605
 AIVX      0.00000000  0.00000000
 VJAIP     0.00000000  0.00000000
 VJAIM     0.00000000  0.00000000
 BVATP    -0.00075801 -0.00075801
 BVATM    -0.00013259 -0.00013259
 BJATP     0.00000000  0.00000000
 BJATM     0.00000000  0.00000000
 BJAIP     0.00000000  0.00000000
 BJAIM     0.00000000  0.00000000
 Summed:  -0.00117665 -0.00117665
 
      Reference energy:          -4.9871885184
      E2 (Non-variational):      -0.0011766466
      E2 (Variational):          -0.0011766464
      Total energy:              -4.9883651647
      Residual norm:              0.0000002140
      Reference weight:           0.99925
 
      Contributions to the CASPT2 correlation energy
      Active & Virtual Only:         -0.0011766466
      One Inactive Excited:           0.0000000000
      Two Inactive Excited:           0.0000000000
 
 
++ Denominators, etc.
----------------------------------------------------------------------------------------------------
 Report on small energy denominators, large coefficients, and large energy contributions.
CASE  SYMM ACTIVE-MIX  NON-ACTIVE INDICES          DENOMINATOR     RHS VALUE       COEFFICIENT     CONTRIBUTION
--
 
   (Skipping property calculation,
    use PROP keyword to activate)
--
 
  Total CASPT2 energies:
::    CASPT2 Root  1     Total energy:     -4.98836516
 
  A NEW JOBIPH FILE NAMED 'JOBMIX' IS PREPARED.
********************************************************************************
--- Stop Module: caspt2 at Thu Oct 17 12:14:25 2024 /rc=_RC_ALL_IS_WELL_ ---
*** files: xmldump
    saved to directory /home/grierjones/DDCASPT2/hydrogen_comps/minimal_2e_2o/chains/even/H10_chain/H10_2.95
--- Module caspt2 spent 3 seconds ---

>>> EXPORT i = B

>>> EXPORT j = P

>>> IF (-FILE GMJ_e2_${i}_${j}.csv)
(Skipped)

>>> END FOREACH

>>> EXPORT j = M

>>> IF (-FILE GMJ_e2_${i}_${j}.csv)
(Skipped)

>>> END FOREACH

>>> END FOREACH

>>> EXPORT i = E

>>> EXPORT j = P

>>> IF (-FILE GMJ_e2_${i}_${j}.csv)
(Skipped)

>>> END FOREACH

>>> EXPORT j = M

>>> IF (-FILE GMJ_e2_${i}_${j}.csv)
(Skipped)

>>> END FOREACH

>>> END FOREACH

>>> EXPORT i = F

>>> EXPORT j = P

>>> IF (-FILE GMJ_e2_${i}_${j}.csv)

>>> COPY /tmp/H10_2.95/GMJ_RHS_F_P.csv /home/grierjones/DDCASPT2/hydrogen_comps/minimal_2e_2o/chains/even/H10_chain/H10_2.95/GMJ_RHS_F_P.csv

>>> COPY /tmp/H10_2.95/GMJ_IVECW_F_P.csv /home/grierjones/DDCASPT2/hydrogen_comps/minimal_2e_2o/chains/even/H10_chain/H10_2.95/GMJ_IVECW_F_P.csv

>>> COPY /tmp/H10_2.95/GMJ_e2_F_P.csv /home/grierjones/DDCASPT2/hydrogen_comps/minimal_2e_2o/chains/even/H10_chain/H10_2.95/GMJ_e2_F_P.csv

>>> END FOREACH

>>> EXPORT j = M

>>> IF (-FILE GMJ_e2_${i}_${j}.csv)

>>> COPY /tmp/H10_2.95/GMJ_RHS_F_M.csv /home/grierjones/DDCASPT2/hydrogen_comps/minimal_2e_2o/chains/even/H10_chain/H10_2.95/GMJ_RHS_F_M.csv

>>> COPY /tmp/H10_2.95/GMJ_IVECW_F_M.csv /home/grierjones/DDCASPT2/hydrogen_comps/minimal_2e_2o/chains/even/H10_chain/H10_2.95/GMJ_IVECW_F_M.csv

>>> COPY /tmp/H10_2.95/GMJ_e2_F_M.csv /home/grierjones/DDCASPT2/hydrogen_comps/minimal_2e_2o/chains/even/H10_chain/H10_2.95/GMJ_e2_F_M.csv

>>> END FOREACH

>>> END FOREACH

>>> EXPORT i = G

>>> EXPORT j = P

>>> IF (-FILE GMJ_e2_${i}_${j}.csv)
(Skipped)

>>> END FOREACH

>>> EXPORT j = M

>>> IF (-FILE GMJ_e2_${i}_${j}.csv)
(Skipped)

>>> END FOREACH

>>> END FOREACH

>>> EXPORT i = H

>>> EXPORT j = P

>>> IF (-FILE GMJ_e2_${i}_${j}.csv)
(Skipped)

>>> END FOREACH

>>> EXPORT j = M

>>> IF (-FILE GMJ_e2_${i}_${j}.csv)
(Skipped)

>>> END FOREACH

>>> END FOREACH

>>> EXPORT i = A

>>> IF (-FILE GMJ_e2_$i.csv)
(Skipped)

>>> END FOREACH

>>> EXPORT i = C

>>> IF (-FILE GMJ_e2_$i.csv)

>>> COPY /tmp/H10_2.95/GMJ_RHS_C.csv /home/grierjones/DDCASPT2/hydrogen_comps/minimal_2e_2o/chains/even/H10_chain/H10_2.95/GMJ_RHS_C.csv

>>> COPY /tmp/H10_2.95/GMJ_IVECW_C.csv /home/grierjones/DDCASPT2/hydrogen_comps/minimal_2e_2o/chains/even/H10_chain/H10_2.95/GMJ_IVECW_C.csv

>>> COPY /tmp/H10_2.95/GMJ_e2_C.csv /home/grierjones/DDCASPT2/hydrogen_comps/minimal_2e_2o/chains/even/H10_chain/H10_2.95/GMJ_e2_C.csv

>>> END FOREACH

>>> EXPORT i = D

>>> IF (-FILE GMJ_e2_$i.csv)
(Skipped)

>>> END FOREACH

.########################.
.# Non-zero return code #.
.########################.

    Timing: Wall=45.19 User=37.15 System=7.16
****************************************
*** WorkDir at /tmp/H10_2.95 cleaned ***
****************************************
