[Molden Format]
[N_Atoms]
                     2
[Atoms] (AU)
F1          1      9           0.00000000      0.00000000      0.00000000
O2          2      8           0.00000000      0.00000000      1.13383567
[Charge] (Mulliken)
 -6.186301788829063E-002
  6.186301788826221E-002
[GTO] (AU)
   1
   s  14
  1.031094600E+05  1.713099991E-04
  1.528100700E+04  7.123999962E-04
  3.441539200E+03  2.990479984E-03
  9.670948300E+02  1.164036994E-02
  3.140353400E+02  3.968642979E-02
  1.134423000E+02  1.128546094E-01
  4.464472700E+01  2.473650687E-01
  1.894287400E+01  3.672702681E-01
  8.532743000E+00  2.896286985E-01
  3.919401000E+00  7.786681959E-02
  1.568157000E+00  4.562139976E-03
  6.232900000E-01  2.468879987E-03
  2.408610000E-01  1.106309994E-03
  8.430100000E-02  1.739699991E-04
   s  14
  1.031094600E+05 -4.044999995E-05
  1.528100700E+04 -1.682299998E-04
  3.441539200E+03 -7.084299991E-04
  9.670948300E+02 -2.767999996E-03
  3.140353400E+02 -9.611379987E-03
  1.134423000E+02 -2.833957996E-02
  4.464472700E+01 -6.839343991E-02
  1.894287400E+01 -1.237379298E-01
  8.532743000E+00 -1.512859698E-01
  3.919401000E+00 -9.099909988E-03
  1.568157000E+00  3.716257695E-01
  6.232900000E-01  5.500214393E-01
  2.408610000E-01  2.092318697E-01
  8.430100000E-02  8.074639989E-03
   p   9
  2.453302900E+02  1.024860004E-03
  5.691900500E+01  8.344290032E-03
  1.760456800E+01  4.078927016E-02
  6.274995000E+00  1.351370605E-01
  2.447030000E+00  2.798830811E-01
  9.950600000E-01  3.597966414E-01
  4.039730000E-01  3.055347412E-01
  1.548100000E-01  1.354703905E-01
  5.418400000E-02  2.804449011E-02
 
   2
   s  14
  1.053749500E+05  1.238600013E-04
  1.567924000E+04  5.120100053E-04
  3.534544700E+03  2.152910022E-03
  9.873651600E+02  8.528440089E-03
  3.159787500E+02  3.018049031E-02
  1.116542800E+02  9.099702095E-02
  4.269945100E+01  2.177936423E-01
  1.739559600E+01  3.686245738E-01
  7.438309000E+00  3.366707335E-01
  3.222862000E+00  9.657630101E-02
  1.253877000E+00  2.144520022E-03
  4.951550000E-01  1.194350012E-03
  1.916650000E-01  5.390200056E-04
  6.708300000E-02  2.103400022E-04
   s  14
  1.053749500E+05 -2.815000008E-05
  1.567924000E+04 -1.163000003E-04
  3.534544700E+03 -4.909200013E-04
  9.873651600E+02 -1.946160005E-03
  3.159787500E+02 -7.005300019E-03
  1.116542800E+02 -2.167814006E-02
  4.269945100E+01 -5.641213015E-02
  1.739559600E+01 -1.127053003E-01
  7.438309000E+00 -1.589119704E-01
  3.222862000E+00 -3.355083009E-02
  1.253877000E+00  3.531902810E-01
  4.951550000E-01  5.534199315E-01
  1.916650000E-01  2.301839106E-01
  6.708300000E-02  1.127267003E-02
   p   9
  2.000000000E+02  9.173000030E-04
  4.653336700E+01  7.377140024E-03
  1.462180900E+01  3.483515011E-02
  5.313064000E+00  1.144397004E-01
  2.102525000E+00  2.554966408E-01
  8.502230000E-01  3.722557412E-01
  3.375970000E-01  3.323314911E-01
  1.288920000E-01  1.400847905E-01
  4.511200000E-02  2.395784008E-02
 
[MO]
Sym=     1a  
Ene=   -27.1490
Spin= Alpha
Occup=    1.00000
   1         1.00227072
   2         0.01085908
   3        -0.00000000
   4         0.00000000
   5         0.01305067
   6         0.00081917
   7        -0.01354078
   8         0.00000000
   9         0.00000000
  10         0.00334788
Sym=     1a  
Ene=   -27.1150
Spin= Beta
Occup=    1.00000
   1         1.00184143
   2         0.00811657
   3        -0.00000000
   4         0.00000000
   5         0.01240377
   6         0.00157413
   7        -0.01160631
   8         0.00000000
   9         0.00000000
  10         0.00237713
Sym=     2a  
Ene=   -21.3880
Spin= Alpha
Occup=    1.00000
   1        -0.01536754
   2        -0.00984134
   3        -0.00000000
   4        -0.00000000
   5         0.00324552
   6         1.00066890
   7         0.00904796
   8         0.00000000
   9         0.00000000
  10        -0.01496120
Sym=     2a  
Ene=   -21.3530
Spin= Beta
Occup=    1.00000
   1        -0.01506035
   2        -0.00767560
   3        -0.00000000
   4        -0.00000000
   5         0.00393495
   6         1.00021126
   7         0.00597915
   8         0.00000000
   9         0.00000000
  10        -0.01419270
Sym=     3a  
Ene=    -2.9521
Spin= Alpha
Occup=    1.00000
   1        -0.07479430
   2         0.59998169
   3         0.00000000
   4        -0.00000000
   5         0.50339497
   6        -0.20161251
   7         0.10860158
   8         0.00000000
   9        -0.00000000
  10        -0.31674992
Sym=     3a  
Ene=    -2.9122
Spin= Beta
Occup=    1.00000
   1         0.07562494
   2        -0.59043361
   3        -0.00000000
   4         0.00000000
   5        -0.51430924
   6         0.20210512
   7        -0.10292088
   8        -0.00000000
   9         0.00000000
  10         0.32756971
Sym=     4a  
Ene=    -1.5919
Spin= Alpha
Occup=    1.00000
   1         0.00000000
   2         0.00000000
   3         0.69156382
   4         0.09166336
   5         0.00000000
   6        -0.00000000
   7        -0.00000000
   8         0.41712950
   9         0.05528845
  10        -0.00000000
Sym=     4a  
Ene=    -1.5204
Spin= Beta
Occup=    1.00000
   1         0.00000000
   2         0.00000000
   3        -0.09207422
   4         0.69466358
   5        -0.00000000
   6         0.00000000
   7         0.00000000
   8        -0.05481758
   9         0.41357698
  10         0.00000000
Sym=     5a  
Ene=    -1.5397
Spin= Alpha
Occup=    1.00000
   1         0.00000000
   2         0.00000000
   3        -0.09195071
   4         0.69373177
   5        -0.00000000
   6         0.00000000
   7         0.00000000
   8        -0.05495929
   9         0.41464614
  10         0.00000000
Sym=     5a  
Ene=    -1.4177
Spin= Beta
Occup=    1.00000
   1         0.00000000
   2        -0.00000000
   3         0.68307006
   4         0.09053756
   5         0.00000000
   6        -0.00000000
   7        -0.00000000
   8         0.42680366
   9         0.05657071
  10        -0.00000000
Sym=     6a  
Ene=    -1.3251
Spin= Alpha
Occup=    1.00000
   1        -0.06056112
   2        -0.74643042
   3        -0.00000000
   4         0.00000000
   5         0.77811793
   6        -0.06362550
   7         0.14462455
   8        -0.00000000
   9         0.00000000
  10        -0.20020598
Sym=     6a  
Ene=    -1.2608
Spin= Beta
Occup=    1.00000
   1        -0.05301702
   2        -0.70464235
   3        -0.00000000
   4         0.00000000
   5         0.81069631
   6        -0.07652015
   7         0.03597956
   8        -0.00000000
   9         0.00000000
  10        -0.22814351
Sym=     7a  
Ene=    -1.0515
Spin= Alpha
Occup=    1.00000
   1         0.00079086
   2        -0.19178640
   3         0.00000000
   4        -0.00000000
   5        -0.32313334
   6         0.10148167
   7         0.94363359
   8         0.00000000
   9        -0.00000000
  10         0.62636466
Sym=     7a  
Ene=    -0.9653
Spin= Beta
Occup=    1.00000
   1         0.00331019
   2        -0.21049413
   3         0.00000000
   4        -0.00000000
   5        -0.23539253
   6         0.08616931
   7         0.91901972
   8         0.00000000
   9        -0.00000000
  10         0.62704370
Sym=     8a  
Ene=    -0.3266
Spin= Alpha
Occup=    1.00000
   1        -0.00000000
   2        -0.00000000
   3        -0.99215898
   4        -0.13150576
   5         0.00000000
   6        -0.00000000
   7        -0.00000000
   8         1.13518410
   9         0.15046303
  10        -0.00000000
Sym=     8a  
Ene=    -0.2297
Spin= Beta
Occup=    1.00000
   1        -0.00000000
   2        -0.00000000
   3         0.13121843
   4        -0.98999115
   5        -0.00000000
   6         0.00000000
   7         0.00000000
   8        -0.15063522
   9         1.13648319
  10         0.00000000
Sym=     9a  
Ene=    -0.2632
Spin= Alpha
Occup=    1.00000
   1        -0.00000000
   2        -0.00000000
   3         0.13130500
   4        -0.99064433
   5        -0.00000000
   6         0.00000000
   7         0.00000000
   8        -0.15058357
   9         1.13609354
  10         0.00000000
Sym=     9a  
Ene=     0.4903
Spin= Beta
Occup=    0.00000
   1        -0.00000000
   2        -0.00000000
   3        -0.99802568
   4        -0.13228336
   5         0.00000000
   6        -0.00000000
   7        -0.00000000
   8         1.13158234
   9         0.14998564
  10        -0.00000000
Sym=    10a  
Ene=     2.7256
Spin= Alpha
Occup=    0.00000
   1         0.69159482
   2         2.95160390
   3        -0.00000000
   4        -0.00000000
   5         1.43122640
   6        -0.72656499
   7        -2.78938823
   8        -0.00000000
   9         0.00000000
  10         1.83002976
Sym=    10a  
Ene=     2.7873
Spin= Beta
Occup=    0.00000
   1         0.69274429
   2         2.96252148
   3        -0.00000000
   4        -0.00000000
   5         1.42637917
   6        -0.72778977
   7        -2.80133038
   8        -0.00000000
   9         0.00000000
  10         1.82462252
