[Molden Format]
[N_Atoms]
                     2
[Atoms] (AU)
BE1         1      4           0.00000000      0.00000000      0.00000000
C2          2      6           0.00000000      0.00000000      1.13383567
[Charge] (Mulliken)
  0.982012103388592     
 -0.982012103388591     
[GTO] (AU)
   1
   s  14
  2.262859900E+04  8.443999941E-05
  3.372318100E+03  4.601499968E-04
  7.603504000E+02  2.285389984E-03
  2.117404800E+02  9.648129932E-03
  6.722346800E+01  3.494469975E-02
  2.337217700E+01  1.061099893E-01
  8.721373000E+00  2.458240383E-01
  3.468091000E+00  3.862428773E-01
  1.452144000E+00  3.105526078E-01
  6.086150000E-01  6.415933955E-02
  2.576860000E-01 -2.265049984E-03
  1.041760000E-01 -5.217499963E-04
  4.242700000E-02 -8.757499938E-04
  1.484900000E-02  1.242199991E-04
   s  14
  2.262859900E+04 -1.586999994E-05
  3.372318100E+03 -8.656999968E-05
  7.603504000E+02 -4.302199984E-04
  2.117404800E+02 -1.825079993E-03
  6.722346800E+01 -6.682749976E-03
  2.337217700E+01 -2.095119992E-02
  8.721373000E+00 -5.200308981E-02
  3.468091000E+00 -9.849176964E-02
  1.452144000E+00 -1.355800695E-01
  6.086150000E-01 -6.429875976E-02
  2.576860000E-01  3.125414989E-01
  1.041760000E-01  6.270468577E-01
  4.242700000E-02  2.110231492E-01
  1.484900000E-02 -4.104669985E-03
   p   9
  3.371018400E+01  1.069960000E-03
  8.057649500E+00  6.828550001E-03
  2.836471400E+00  2.119065000E-02
  1.099965700E+00  5.843696001E-02
  4.433964000E-01  2.020920800E-01
  1.822264000E-01  4.582953101E-01
  7.572410000E-02  3.691239601E-01
  3.168540000E-02  6.611471001E-02
  1.108990000E-02  1.405160000E-03
 
   2
   s  14
  5.055750100E+04  1.128874000E-04
  7.524785600E+03  5.295373000E-04
  1.694327600E+03  2.450038300E-03
  4.728227900E+02  1.005398470E-02
  1.517107500E+02  3.545398060E-02
  5.391874600E+01  1.044071086E-01
  2.065931100E+01  2.412894918E-01
  8.383976000E+00  3.834225483E-01
  3.577015000E+00  3.078514393E-01
  1.547118000E+00  6.872442990E-02
  6.130130000E-01  2.224445000E-04
  2.460680000E-01  1.976748900E-03
  9.908700000E-02  2.057859400E-03
  3.468000000E-02  4.182020000E-04
   s  14
  5.055750100E+04 -2.507420000E-05
  7.524785600E+03 -1.175945000E-04
  1.694327600E+03 -5.456275000E-04
  4.728227900E+02 -2.245077100E-03
  1.517107500E+02 -8.043471800E-03
  5.391874600E+01 -2.442588710E-02
  2.065931100E+01 -6.136791180E-02
  8.383976000E+00 -1.177767835E-01
  3.577015000E+00 -1.550487783E-01
  1.547118000E+00 -1.933316860E-02
  6.130130000E-01  3.996930678E-01
  2.460680000E-01  5.589420949E-01
  9.908700000E-02  1.711195023E-01
  3.468000000E-02  7.456244600E-03
   p   9
  8.333315500E+01  1.344656000E-03
  1.955761100E+01  1.023555500E-02
  6.080365000E+00  4.520067100E-02
  2.179317000E+00  1.410756198E-01
  8.651500000E-01  3.047388085E-01
  3.619440000E-01  3.995281011E-01
  1.547400000E-01  2.719163432E-01
  6.542900000E-02  5.857669330E-02
  2.290000000E-02 -1.263813000E-04
 
[MO]
Sym=     1a  
Ene=   -11.8420
Spin= Alpha
Occup=    2.00000
   1         0.02521070
   2        -0.00119007
   3         0.00000000
   4        -0.00000000
   5         0.01004863
   6         0.99543969
   7        -0.00661900
   8         0.00000000
   9        -0.00000000
  10        -0.01321051
Sym=     2a  
Ene=    -5.7246
Spin= Alpha
Occup=    2.00000
   1        -1.00031604
   2        -0.00937928
   3        -0.00000000
   4        -0.00000000
   5        -0.04110635
   6         0.13315151
   7         0.02968880
   8         0.00000000
   9         0.00000000
  10         0.03178095
Sym=     3a  
Ene=    -0.7378
Spin= Alpha
Occup=    2.00000
   1        -0.24760807
   2         0.20618279
   3        -0.00000000
   4         0.00000000
   5         0.03767077
   6        -0.00073974
   7         0.85747638
   8        -0.00000000
   9        -0.00000000
  10         0.06069872
Sym=     4a  
Ene=    -0.6032
Spin= Alpha
Occup=    2.00000
   1        -0.00000000
   2         0.00000000
   3         0.20147432
   4        -0.00780002
   5         0.00000000
   6        -0.00000000
   7         0.00000000
   8         0.84266522
   9        -0.03262353
  10        -0.00000000
Sym=     5a  
Ene=    -0.6027
Spin= Alpha
Occup=    1.99784
   1         0.00000000
   2        -0.00000000
   3         0.00780925
   4         0.20171289
   5         0.00000000
   6        -0.00000000
   7         0.00000000
   8         0.03261591
   9         0.84246839
  10         0.00000000
Sym=     6a  
Ene=    -0.0003
Spin= Alpha
Occup=    0.00216
   1         0.28512907
   2        -0.66246918
   3         0.00000000
   4        -0.00000000
   5        -0.38120636
   6         0.11951487
   7         0.56703008
   8        -0.00000000
   9         0.00000000
  10         1.06559993
Sym=     7a  
Ene=     0.1196
Spin= Alpha
Occup=    0.00000
   1         0.13310871
   2         0.03161688
   3         0.00000000
   4        -0.00000000
   5        -1.34814577
   6         0.23205944
   7         0.48617940
   8        -0.00000000
   9         0.00000000
  10         0.65688612
Sym=     8a  
Ene=     0.3614
Spin= Alpha
Occup=    0.00000
   1         0.00000000
   2         0.00000000
   3        -1.44782020
   4         0.05605194
   5        -0.00000000
   6         0.00000000
   7        -0.00000000
   8         1.19444152
   9        -0.04624246
  10         0.00000000
Sym=     9a  
Ene=     0.3614
Spin= Alpha
Occup=    0.00000
   1        -0.00000000
   2         0.00000000
   3        -0.05605065
   4        -1.44778698
   5         0.00000000
   6        -0.00000000
   7        -0.00000000
   8         0.04624783
   9         1.19458036
  10        -0.00000000
Sym=    10a  
Ene=     0.6542
Spin= Alpha
Occup=    0.00000
   1         1.05159703
   2         2.10653475
   3         0.00000000
   4         0.00000000
   5         0.97024250
   6        -0.50221936
   7        -2.37594351
   8        -0.00000000
   9        -0.00000000
  10         0.50472484
