[Molden Format]
[N_Atoms]
                     2
[Atoms] (AU)
B1          1      5           0.00000000      0.00000000      0.00000000
O2          2      8           0.00000000      0.00000000      4.53534270
[Charge] (Mulliken)
  0.427475855335553     
 -0.427475855335583     
[GTO] (AU)
   1
   s  14
  3.336021700E+04  1.039699991E-04
  4.972095200E+03  5.254399956E-04
  1.125641700E+03  2.509059979E-03
  3.164913600E+02  1.031887991E-02
  1.020072600E+02  3.636632969E-02
  3.629587300E+01  1.064607991E-01
  1.397141000E+01  2.403999880E-01
  5.741156000E+00  3.748581168E-01
  2.494268000E+00  3.100066974E-01
  1.114202000E+00  7.922455933E-02
  4.215490000E-01 -4.947589958E-03
  1.696330000E-01 -7.737119935E-03
  6.853500000E-02 -1.501079987E-03
  2.398700000E-02 -1.333299989E-04
   s  14
  3.336021700E+04 -2.030000008E-05
  4.972095200E+03 -1.025700004E-04
  1.125641700E+03 -4.911300020E-04
  3.164913600E+02 -2.026570008E-03
  1.020072600E+02 -7.261010030E-03
  3.629587300E+01 -2.197722009E-02
  1.397141000E+01 -5.408428022E-02
  5.741156000E+00 -1.022402604E-01
  2.494268000E+00 -1.423595206E-01
  1.114202000E+00 -4.658690019E-02
  4.215490000E-01  3.799402916E-01
  1.696330000E-01  5.890463624E-01
  6.853500000E-02  1.749075107E-01
  2.398700000E-02 -1.142030005E-03
   p   9
  5.500000000E+01  1.229800005E-03
  1.336610100E+01  8.827380035E-03
  4.135394000E+00  3.843340015E-02
  1.481256000E+00  1.150031805E-01
  6.021360000E-01  2.733674011E-01
  2.556360000E-01  4.061972116E-01
  1.111510000E-01  3.014967912E-01
  4.764800000E-02  7.684809030E-02
  1.667700000E-02 -8.170000032E-06
 
   2
   s  14
  1.053749500E+05  1.238600013E-04
  1.567924000E+04  5.120100053E-04
  3.534544700E+03  2.152910022E-03
  9.873651600E+02  8.528440089E-03
  3.159787500E+02  3.018049031E-02
  1.116542800E+02  9.099702095E-02
  4.269945100E+01  2.177936423E-01
  1.739559600E+01  3.686245738E-01
  7.438309000E+00  3.366707335E-01
  3.222862000E+00  9.657630101E-02
  1.253877000E+00  2.144520022E-03
  4.951550000E-01  1.194350012E-03
  1.916650000E-01  5.390200056E-04
  6.708300000E-02  2.103400022E-04
   s  14
  1.053749500E+05 -2.815000008E-05
  1.567924000E+04 -1.163000003E-04
  3.534544700E+03 -4.909200013E-04
  9.873651600E+02 -1.946160005E-03
  3.159787500E+02 -7.005300019E-03
  1.116542800E+02 -2.167814006E-02
  4.269945100E+01 -5.641213015E-02
  1.739559600E+01 -1.127053003E-01
  7.438309000E+00 -1.589119704E-01
  3.222862000E+00 -3.355083009E-02
  1.253877000E+00  3.531902810E-01
  4.951550000E-01  5.534199315E-01
  1.916650000E-01  2.301839106E-01
  6.708300000E-02  1.127267003E-02
   p   9
  2.000000000E+02  9.173000030E-04
  4.653336700E+01  7.377140024E-03
  1.462180900E+01  3.483515011E-02
  5.313064000E+00  1.144397004E-01
  2.102525000E+00  2.554966408E-01
  8.502230000E-01  3.722557412E-01
  3.375970000E-01  3.323314911E-01
  1.288920000E-01  1.400847905E-01
  4.511200000E-02  2.395784008E-02
 
[MO]
Sym=     1a  
Ene=   -20.3070
Spin= Alpha
Occup=    2.00000
   1        -0.00055490
   2        -0.03118432
   3        -0.00000055
   4         0.00000205
   5         0.03487258
   6         0.99679865
   7         0.02153084
   8        -0.00000762
   9         0.00002891
  10        -0.05314763
Sym=     2a  
Ene=    -7.8158
Spin= Alpha
Occup=    2.00000
   1         0.99990085
   2         0.01210825
   3        -0.00000002
   4         0.00000007
   5         0.00204801
   6         0.00007578
   7         0.00066152
   8        -0.00000027
   9         0.00000098
  10        -0.00187876
Sym=     3a  
Ene=    -1.0195
Spin= Alpha
Occup=    2.00000
   1        -0.00262391
   2         0.21774647
   3         0.00000277
   4        -0.00001033
   5        -0.12046950
   6        -0.00059733
   7         0.94778532
   8         0.00003858
   9        -0.00014609
  10         0.21425175
Sym=     4a  
Ene=    -0.5603
Spin= Alpha
Occup=    2.00000
   1        -0.01512763
   2         0.87578218
   3        -0.00000247
   4         0.00000925
   5         0.07451191
   6        -0.00573230
   7        -0.17079191
   8        -0.00003461
   9         0.00013093
  10        -0.36438203
Sym=     5a  
Ene=    -0.4103
Spin= Alpha
Occup=    2.00000
   1         0.00000292
   2         0.00007747
   3        -0.01771019
   4         0.06724335
   5        -0.00021422
   6         0.00000255
   7         0.00006026
   8        -0.25287458
   9         0.96013247
  10         0.00036205
Sym=     6a  
Ene=    -0.1144
Spin= Alpha
Occup=    1.00000
   1        -0.00000001
   2         0.00000001
   3        -0.03343907
   4        -0.00880700
   5        -0.00000002
   6         0.00000001
   7         0.00000005
   8        -0.96417946
   9        -0.25394045
  10         0.00000026
Sym=     7a  
Ene=     0.0193
Spin= Alpha
Occup=    2.00000
   1        -0.00568732
   2        -0.40940671
   3        -0.00000727
   4         0.00002707
   5         0.46433469
   6        -0.08014133
   7         0.26805395
   8        -0.00010075
   9         0.00038184
  10        -0.69913830
Sym=     8a  
Ene=     0.0327
Spin= Alpha
Occup=    0.00000
   1        -0.00000000
   2        -0.00000022
   3         0.25466201
   4        -0.96691913
   5        -0.00000033
   6         0.00000001
   7         0.00000008
   8        -0.03494032
   9         0.13266392
  10        -0.00000066
Sym=     9a  
Ene=     0.0337
Spin= Alpha
Occup=    0.00000
   1         0.00000000
   2         0.00000008
   3        -0.96867750
   4        -0.25512512
   5         0.00000011
   6        -0.00000000
   7        -0.00000003
   8         0.09905671
   9         0.02608903
  10         0.00000023
Sym=    10a  
Ene=     0.0771
Spin= Alpha
Occup=    0.00000
   1        -0.00349313
   2        -0.21110375
   3        -0.00000034
   4         0.00000050
   5        -0.90608844
   6         0.01352268
   7         0.19207191
   8        -0.00000006
   9        -0.00000005
  10        -0.61518594
