[Molden Format]
[N_Atoms]
                     2
[Atoms] (AU)
B1          1      5           0.00000000      0.00000000      0.00000000
O2          2      8           0.00000000      0.00000000      4.53534270
[Charge] (Mulliken)
  0.288427080257529     
 -0.288427080257602     
[GTO] (AU)
   1
   s  14
  3.336021700E+04  1.039699991E-04
  4.972095200E+03  5.254399956E-04
  1.125641700E+03  2.509059979E-03
  3.164913600E+02  1.031887991E-02
  1.020072600E+02  3.636632969E-02
  3.629587300E+01  1.064607991E-01
  1.397141000E+01  2.403999880E-01
  5.741156000E+00  3.748581168E-01
  2.494268000E+00  3.100066974E-01
  1.114202000E+00  7.922455933E-02
  4.215490000E-01 -4.947589958E-03
  1.696330000E-01 -7.737119935E-03
  6.853500000E-02 -1.501079987E-03
  2.398700000E-02 -1.333299989E-04
   s  14
  3.336021700E+04 -2.030000008E-05
  4.972095200E+03 -1.025700004E-04
  1.125641700E+03 -4.911300020E-04
  3.164913600E+02 -2.026570008E-03
  1.020072600E+02 -7.261010030E-03
  3.629587300E+01 -2.197722009E-02
  1.397141000E+01 -5.408428022E-02
  5.741156000E+00 -1.022402604E-01
  2.494268000E+00 -1.423595206E-01
  1.114202000E+00 -4.658690019E-02
  4.215490000E-01  3.799402916E-01
  1.696330000E-01  5.890463624E-01
  6.853500000E-02  1.749075107E-01
  2.398700000E-02 -1.142030005E-03
   p   9
  5.500000000E+01  1.229800005E-03
  1.336610100E+01  8.827380035E-03
  4.135394000E+00  3.843340015E-02
  1.481256000E+00  1.150031805E-01
  6.021360000E-01  2.733674011E-01
  2.556360000E-01  4.061972116E-01
  1.111510000E-01  3.014967912E-01
  4.764800000E-02  7.684809030E-02
  1.667700000E-02 -8.170000032E-06
 
   2
   s  14
  1.053749500E+05  1.238600013E-04
  1.567924000E+04  5.120100053E-04
  3.534544700E+03  2.152910022E-03
  9.873651600E+02  8.528440089E-03
  3.159787500E+02  3.018049031E-02
  1.116542800E+02  9.099702095E-02
  4.269945100E+01  2.177936423E-01
  1.739559600E+01  3.686245738E-01
  7.438309000E+00  3.366707335E-01
  3.222862000E+00  9.657630101E-02
  1.253877000E+00  2.144520022E-03
  4.951550000E-01  1.194350012E-03
  1.916650000E-01  5.390200056E-04
  6.708300000E-02  2.103400022E-04
   s  14
  1.053749500E+05 -2.815000008E-05
  1.567924000E+04 -1.163000003E-04
  3.534544700E+03 -4.909200013E-04
  9.873651600E+02 -1.946160005E-03
  3.159787500E+02 -7.005300019E-03
  1.116542800E+02 -2.167814006E-02
  4.269945100E+01 -5.641213015E-02
  1.739559600E+01 -1.127053003E-01
  7.438309000E+00 -1.589119704E-01
  3.222862000E+00 -3.355083009E-02
  1.253877000E+00  3.531902810E-01
  4.951550000E-01  5.534199315E-01
  1.916650000E-01  2.301839106E-01
  6.708300000E-02  1.127267003E-02
   p   9
  2.000000000E+02  9.173000030E-04
  4.653336700E+01  7.377140024E-03
  1.462180900E+01  3.483515011E-02
  5.313064000E+00  1.144397004E-01
  2.102525000E+00  2.554966408E-01
  8.502230000E-01  3.722557412E-01
  3.375970000E-01  3.323314911E-01
  1.288920000E-01  1.400847905E-01
  4.511200000E-02  2.395784008E-02
 
[MO]
Sym=     1a  
Ene=   -20.5110
Spin= Alpha
Occup=    1.00000
   1        -0.00000804
   2        -0.00014690
   3        -0.00000000
   4         0.00000000
   5        -0.00017548
   6         1.00000320
   7         0.00035541
   8        -0.00000000
   9         0.00000000
  10        -0.00018077
Sym=     1a  
Ene=   -20.5030
Spin= Beta
Occup=    1.00000
   1        -0.00001146
   2        -0.00017336
   3        -0.00000000
   4         0.00000000
   5        -0.00022441
   6         1.00000404
   7        -0.00009715
   8        -0.00000000
   9         0.00000000
  10        -0.00028480
Sym=     2a  
Ene=    -7.7663
Spin= Alpha
Occup=    1.00000
   1         0.99989244
   2         0.01455646
   3        -0.00000000
   4         0.00000000
   5         0.00009294
   6        -0.00002347
   7        -0.00007407
   8        -0.00000000
   9         0.00000000
  10        -0.00016371
Sym=     2a  
Ene=    -7.7562
Spin= Beta
Occup=    1.00000
   1         0.99992146
   2         0.01258762
   3         0.00000000
   4        -0.00000000
   5         0.00033797
   6        -0.00001243
   7        -0.00008444
   8        -0.00000000
   9        -0.00000000
  10         0.00005400
Sym=     3a  
Ene=    -1.1659
Spin= Alpha
Occup=    1.00000
   1         0.00248403
   2        -0.03823717
   3         0.00000000
   4        -0.00000000
   5        -0.03659545
   6         0.00102742
   7        -0.98935935
   8        -0.00000000
   9         0.00000000
  10        -0.02624016
Sym=     3a  
Ene=    -1.1212
Spin= Beta
Occup=    1.00000
   1        -0.00276627
   2         0.02517199
   3        -0.00000000
   4         0.00000000
   5         0.01140824
   6        -0.00015477
   7         0.99483177
   8        -0.00000000
   9         0.00000000
  10        -0.03470429
Sym=     4a  
Ene=    -0.5806
Spin= Alpha
Occup=    1.00000
   1        -0.01546658
   2         0.97153274
   3        -0.00000000
   4         0.00000000
   5        -0.08373742
   6        -0.00414799
   7        -0.09762469
   8         0.00000000
   9        -0.00000000
  10        -0.14077771
Sym=     4a  
Ene=    -0.5054
Spin= Beta
Occup=    1.00000
   1         0.01283717
   2        -0.99317318
   3        -0.00000000
   4         0.00000000
   5        -0.03894699
   6         0.00596523
   7         0.12345599
   8         0.00000000
   9        -0.00000000
  10         0.05692167
Sym=     5a  
Ene=    -0.4635
Spin= Alpha
Occup=    1.00000
   1         0.00000000
   2         0.00000000
   3         0.00024829
   4         0.04475441
   5        -0.00000000
   6         0.00000000
   7         0.00000000
   8         0.00552531
   9         0.99595203
  10         0.00000000
Sym=     5a  
Ene=    -0.4527
Spin= Beta
Occup=    1.00000
   1        -0.00000000
   2         0.00000000
   3         0.04136186
   4        -0.00016340
   5        -0.00000000
   6        -0.00000000
   7        -0.00000000
   8         0.99633524
   9        -0.00393612
  10         0.00000000
Sym=     6a  
Ene=    -0.4635
Spin= Alpha
Occup=    1.00000
   1        -0.00000000
   2        -0.00000000
   3         0.04475441
   4        -0.00024829
   5         0.00000000
   6        -0.00000000
   7        -0.00000000
   8         0.99595203
   9        -0.00552531
  10        -0.00000000
Sym=     6a  
Ene=    -0.4527
Spin= Beta
Occup=    1.00000
   1         0.00000000
   2        -0.00000000
   3         0.00016340
   4         0.04136186
   5         0.00000000
   6         0.00000000
   7         0.00000000
   8         0.00393612
   9         0.99633524
  10        -0.00000000
Sym=     7a  
Ene=    -0.3508
Spin= Alpha
Occup=    1.00000
   1         0.00387611
   2         0.05973453
   3         0.00000000
   4        -0.00000000
   5        -0.82928008
   6         0.01124807
   7         0.14665506
   8         0.00000000
   9        -0.00000000
  10         0.45727495
Sym=     7a  
Ene=     0.0643
Spin= Beta
Occup=    0.00000
   1         0.00000000
   2         0.00000000
   3         0.01886788
   4         1.00127610
   5        -0.00000000
   6         0.00000000
   7         0.00000000
   8        -0.00205709
   9        -0.10916506
  10         0.00000000
Sym=     8a  
Ene=     0.0486
Spin= Alpha
Occup=    0.00000
   1        -0.00000000
   2         0.00000000
   3         1.00101467
   4         0.02423344
   5         0.00000000
   6        -0.00000000
   7        -0.00000000
   8        -0.11252668
   9        -0.00272414
  10         0.00000000
Sym=     8a  
Ene=     0.0643
Spin= Beta
Occup=    0.00000
   1        -0.00000000
   2        -0.00000000
   3         1.00127610
   4        -0.01886788
   5         0.00000000
   6        -0.00000000
   7        -0.00000000
   8        -0.10916506
   9         0.00205709
  10        -0.00000000
Sym=     9a  
Ene=     0.0486
Spin= Alpha
Occup=    0.00000
   1         0.00000000
   2         0.00000000
   3         0.02423344
   4        -1.00101467
   5         0.00000000
   6        -0.00000000
   7        -0.00000000
   8        -0.00272414
   9         0.11252668
  10         0.00000000
Sym=     9a  
Ene=     0.0682
Spin= Beta
Occup=    0.00000
   1        -0.00352869
   2        -0.12616982
   3        -0.00000000
   4         0.00000000
   5         0.80028789
   6        -0.01052040
   7        -0.14884118
   8         0.00000000
   9        -0.00000000
  10        -0.49479523
Sym=    10a  
Ene=     0.0930
Spin= Alpha
Occup=    0.00000
   1         0.00608264
   2         0.28033484
   3        -0.00000000
   4         0.00000000
   5         0.60152436
   6        -0.00975134
   7        -0.16372266
   8         0.00000000
   9        -0.00000000
  10         0.90506749
Sym=    10a  
Ene=     0.2411
Spin= Beta
Occup=    0.00000
   1         0.00738076
   2         0.15684958
   3         0.00000000
   4        -0.00000000
   5         0.64481032
   6        -0.00958631
   7        -0.09792912
   8        -0.00000000
   9         0.00000000
  10         0.89414073
