[Molden Format]
[N_Atoms]
                     2
[Atoms] (AU)
C1          1      6           0.00000000      0.00000000      0.00000000
LI2         2      3           0.00000000      0.00000000      1.51178090
[Charge] (Mulliken)
 -0.566086830079310     
  0.566086830079300     
[GTO] (AU)
   1
   s  14
  5.055750100E+04  1.128874000E-04
  7.524785600E+03  5.295373000E-04
  1.694327600E+03  2.450038300E-03
  4.728227900E+02  1.005398470E-02
  1.517107500E+02  3.545398060E-02
  5.391874600E+01  1.044071086E-01
  2.065931100E+01  2.412894918E-01
  8.383976000E+00  3.834225483E-01
  3.577015000E+00  3.078514393E-01
  1.547118000E+00  6.872442990E-02
  6.130130000E-01  2.224445000E-04
  2.460680000E-01  1.976748900E-03
  9.908700000E-02  2.057859400E-03
  3.468000000E-02  4.182020000E-04
   s  14
  5.055750100E+04 -2.507420000E-05
  7.524785600E+03 -1.175945000E-04
  1.694327600E+03 -5.456275000E-04
  4.728227900E+02 -2.245077100E-03
  1.517107500E+02 -8.043471800E-03
  5.391874600E+01 -2.442588710E-02
  2.065931100E+01 -6.136791180E-02
  8.383976000E+00 -1.177767835E-01
  3.577015000E+00 -1.550487783E-01
  1.547118000E+00 -1.933316860E-02
  6.130130000E-01  3.996930678E-01
  2.460680000E-01  5.589420949E-01
  9.908700000E-02  1.711195023E-01
  3.468000000E-02  7.456244600E-03
   p   9
  8.333315500E+01  1.344656000E-03
  1.955761100E+01  1.023555500E-02
  6.080365000E+00  4.520067100E-02
  2.179317000E+00  1.410756198E-01
  8.651500000E-01  3.047388085E-01
  3.619440000E-01  3.995281011E-01
  1.547400000E-01  2.719163432E-01
  6.542900000E-02  5.857669330E-02
  2.290000000E-02 -1.263813000E-04
 
   2
   s  14
  9.497934400E+03  9.668999974E-05
  1.416811200E+03  6.087099984E-04
  3.214599400E+02  3.101519992E-03
  9.112416300E+01  1.266904997E-02
  2.999989100E+01  4.248012989E-02
  1.101763100E+01  1.150183297E-01
  4.372801000E+00  2.398650094E-01
  1.831256000E+00  3.584300090E-01
  8.022610000E-01  3.048527792E-01
  3.626480000E-01  8.824261976E-02
  1.139950000E-01 -8.445899977E-04
  5.123700000E-02 -7.943959979E-03
  2.246800000E-02 -3.764419990E-03
  7.860000000E-03 -8.868999976E-05
   s  14
  9.497934400E+03 -1.244999993E-05
  1.416811200E+03 -7.838999954E-05
  3.214599400E+02 -4.007099976E-04
  9.112416300E+01 -1.645249990E-03
  2.999989100E+01 -5.634599967E-03
  1.101763100E+01 -1.590780991E-02
  4.372801000E+00 -3.612581979E-02
  1.831256000E+00 -6.459927962E-02
  8.022610000E-01 -1.008321794E-01
  3.626480000E-01 -9.757613942E-02
  1.139950000E-01  2.301215886E-01
  5.123700000E-02  6.102389764E-01
  2.246800000E-02  2.849406083E-01
  7.860000000E-03  4.026899976E-03
   p   9
  1.311950400E+01  1.524940000E-03
  3.077424200E+00  8.314830000E-03
  1.098800500E+00  1.933203000E-02
  4.357784000E-01  4.934293000E-02
  1.802432000E-01  1.623554000E-01
  7.613330000E-02  3.847505400E-01
  3.254650000E-02  4.336100400E-01
  1.401820000E-02  1.287005900E-01
  4.906400000E-03 -1.018520000E-03
 
[MO]
Sym=     1a  
Ene=   -11.3860
Spin= Alpha
Occup=    1.00000
   1         1.00006516
   2         0.00214481
   3         0.00000000
   4        -0.00000000
   5         0.00641523
   6         0.00014434
   7        -0.00317239
   8        -0.00000000
   9         0.00000000
  10        -0.00096095
Sym=     1a  
Ene=   -11.3600
Spin= Beta
Occup=    1.00000
   1         0.99993818
   2        -0.00106817
   3         0.00000000
   4        -0.00000000
   5         0.00597194
   6         0.00099984
   7        -0.00234257
   8        -0.00000000
   9         0.00000000
  10        -0.00125008
Sym=     2a  
Ene=    -3.0482
Spin= Alpha
Occup=    1.00000
   1        -0.06623058
   2         0.03599509
   3         0.00000000
   4        -0.00000000
   5         0.05215617
   6         0.96220680
   7        -0.00895771
   8         0.00000000
   9         0.00000000
  10        -0.02133563
Sym=     2a  
Ene=    -3.0342
Spin= Beta
Occup=    1.00000
   1        -0.06611388
   2         0.02370885
   3         0.00000000
   4        -0.00000000
   5         0.04797923
   6         0.96916667
   7        -0.00729561
   8         0.00000000
   9         0.00000000
  10        -0.02106175
Sym=     3a  
Ene=    -0.6531
Spin= Alpha
Occup=    1.00000
   1        -0.01181902
   2        -0.97085076
   3        -0.00000000
   4        -0.00000000
   5         0.10975912
   6         0.33225644
   7        -0.07609596
   8        -0.00000000
   9         0.00000000
  10         0.06628586
Sym=     3a  
Ene=    -0.5346
Spin= Beta
Occup=    1.00000
   1        -0.00524285
   2        -0.90751310
   3         0.00000000
   4        -0.00000000
   5         0.15485374
   6         0.27562438
   7        -0.13538918
   8        -0.00000000
   9         0.00000000
  10         0.08811738
Sym=     4a  
Ene=    -0.4930
Spin= Alpha
Occup=    1.00000
   1        -0.00000000
   2        -0.00000000
   3        -0.18906046
   4         0.92382758
   5        -0.00000000
   6         0.00000000
   7         0.00000000
   8        -0.02197478
   9         0.10737789
  10        -0.00000000
Sym=     4a  
Ene=    -0.3869
Spin= Beta
Occup=    1.00000
   1        -0.00000000
   2        -0.00000000
   3         0.85771922
   4         0.17553144
   5         0.00000000
   6        -0.00000000
   7         0.00000000
   8         0.21630668
   9         0.04426696
  10        -0.00000000
Sym=     5a  
Ene=    -0.4313
Spin= Alpha
Occup=    1.00000
   1        -0.00000000
   2        -0.00000000
   3         0.89461234
   4         0.18308158
   5         0.00000000
   6        -0.00000000
   7         0.00000000
   8         0.15749151
   9         0.03223049
  10        -0.00000000
Sym=     5a  
Ene=    -0.0045
Spin= Beta
Occup=    0.00000
   1         0.01396195
   2        -0.12698032
   3        -0.00000000
   4         0.00000000
   5         0.01049720
   6         0.04923304
   7         0.75212254
   8         0.00000000
   9         0.00000000
  10         0.66800462
Sym=     6a  
Ene=    -0.0073
Spin= Alpha
Occup=    0.00000
   1         0.01073337
   2        -0.13726178
   3        -0.00000000
   4        -0.00000000
   5         0.01348299
   6         0.05155186
   7         0.77445886
   8         0.00000000
   9        -0.00000000
  10         0.64527997
Sym=     6a  
Ene=    -0.0004
Spin= Beta
Occup=    0.00000
   1         0.00000000
   2         0.00000000
   3         0.08756118
   4        -0.42786013
   5        -0.00000000
   6        -0.00000000
   7         0.00000000
   8         0.14330768
   9        -0.70026060
  10         0.00000000
Sym=     7a  
Ene=     0.1348
Spin= Alpha
Occup=    0.00000
   1         0.00000000
   2         0.00000000
   3         0.12787568
   4        -0.62485348
   5         0.00000000
   6        -0.00000000
   7        -0.00000000
   8        -0.22718529
   9         1.11012128
  10         0.00000000
Sym=     7a  
Ene=     0.1646
Spin= Beta
Occup=    0.00000
   1        -0.00000000
   2        -0.00000000
   3        -0.71289341
   4        -0.14589297
   5         0.00000000
   6         0.00000000
   7        -0.00000000
   8         1.09412554
   9         0.22391177
  10        -0.00000000
Sym=     8a  
Ene=     0.1542
Spin= Alpha
Occup=    0.00000
   1        -0.00000000
   2        -0.00000000
   3        -0.66600904
   4        -0.13629813
   5         0.00000000
   6         0.00000000
   7        -0.00000000
   8         1.10412667
   9         0.22595849
  10        -0.00000000
Sym=     8a  
Ene=     0.2367
Spin= Beta
Occup=    0.00000
   1         0.16177635
   2         1.06476323
   3         0.00000000
   4        -0.00000000
   5        -0.28565953
   6        -0.25850813
   7        -0.95729054
   8         0.00000000
   9         0.00000000
  10         1.00063529
Sym=     9a  
Ene=     0.2219
Spin= Alpha
Occup=    0.00000
   1         0.16219954
   2         1.03842702
   3        -0.00000000
   4         0.00000000
   5        -0.25619800
   6        -0.26408064
   7        -0.95096960
   8         0.00000000
   9        -0.00000000
  10         1.01508660
Sym=     9a  
Ene=     0.2631
Spin= Beta
Occup=    0.00000
   1        -0.00000000
   2        -0.00000000
   3         0.21078208
   4        -1.02996844
   5         0.00000000
   6        -0.00000000
   7         0.00000000
   8        -0.17764840
   9         0.86806358
  10        -0.00000000
Sym=    10a  
Ene=     0.5115
Spin= Alpha
Occup=    0.00000
   1        -0.05086936
   2        -0.47799636
   3         0.00000000
   4        -0.00000000
   5        -1.19756058
   6         0.79942313
   7         0.30182461
   8        -0.00000000
   9         0.00000000
  10         0.13226880
Sym=    10a  
Ene=     0.5545
Spin= Beta
Occup=    0.00000
   1        -0.05501514
   2        -0.54361331
   3         0.00000000
   4        -0.00000000
   5        -1.18606497
   6         0.81437438
   7         0.31721643
   8        -0.00000000
   9         0.00000000
  10         0.11584923
