   This run of MOLCAS is using the pymolcas driver

                             OPE
                             OPE          NMOL  CASOP  ENMOLC A   SO
                 OPE        NMOLC        AS  OP EN  MO LC     AS  OP
                OPENM       OL CA        SO  PE NM  OL CA     SOP EN
                OP EN      MO   LC       AS  OP ENMOL  CASO   PENMOL
                OP  EN     MO   LC       AS  OP EN     MO     LC ASO
               OP   E  NMOL  C  AS       OP  EN MO     LC     AS  OP
               OP  E   NMO   LC AS        OPEN  MO     LCASOP EN   M
               O  PEN   MO  LCA  SO
            OPE   NMO   L   CAS    OP
        OPENMOL  CASOP     ENMOL   CASOPE
     OPENMOLCA   SOPENMOLCASOPEN   MOLCASOPE
    OPENMOLCAS   OP           EN   MOL    CAS
    OPENMOLCAS       OP  ENM        O     LCA
    OPENMOLCAS    OPEN  MOLCASO     P  E  NMO
    OPENMOLCAS     OP               E  N  MOL
    OPENMOLCA   SO           PENM   O  L  CAS    OPEN    MO    LCAS
    OPENMOLCA   SOP           ENM   O  L  CAS   OP  EN  MOLC  AS   O
    OPENMOLCA   SOPE           NM      O  LCA   S      OP  EN MO
    OPENMOLC                AS         O  PEN   M      OL  CA  SOPE
    OPENMO        LCASOPE  NMOL        C  ASO   P      ENMOLC     AS
    OPE     NMO      LCA  SO     P     E   NM   OL  CA SO  PE N   MO
          OPENMOLCA            SOPE   NMO        LCAS  O    P  ENMO
     OPENMOLCASOPENMOLCASOPENMOLCASOPENMOLCA
        OPENMOLCASOPENMOLCASOPENMOLCASOPE
            OPENMOLCASOPENMOLCASOPENM
               OPENMOLCASOPENMOLCA        version: ea724fe96-dirty
                   OPENMOLCASO
                       OPE                tag:

 OpenMolcas is free software; you can redistribute it and/or modify it
 under the terms of the GNU Lesser General Public License version 2.1.
 OpenMolcas is distributed in the hope that it will be useful, but it
 is provided "as is" and without any express or implied warranties.
 For more details see the full text of the license in the file
 LICENSE or in <http://www.gnu.org/licenses/>.

                 Copyright (C) The OpenMolcas Authors
           For the author list and the recommended citation,
                   consult the file CONTRIBUTORS.md

           *************************************************
           * pymolcas version py2.28                       *
           *   build c4a6d18ded8cb6cad61d2372a9abd97c      *
           *   (after the EMIL interpreter by V. Veryazov) *
           *************************************************

configuration info
------------------
C Compiler ID: Intel
C flags: -std=gnu99
Fortran Compiler ID: Intel
Fortran flags: -fpp -i8 -r8 -heap-arrays
Definitions: _MOLCAS_;_I8_;_LINUX_
Parallel: OFF (GA=OFF)


   -------------------------------------------------------------------------------
  |
  |              Project: 1.84
  |       Submitted from: /home/grierjones/DDCASPT2/iron_oxo_DDCASPT2/cluster/1.84
  |         Scratch area: /tmp/1.84
  |      Save outputs to: /home/grierjones/DDCASPT2/iron_oxo_DDCASPT2/cluster/1.84
  |               Molcas: /home/grierjones/Test/build
  |
  | Scratch area is empty
  |
  |       MOLCAS_DRIVER = /usr/local/pymolcas
  | MOLCAS_KEEP_WORKDIR = NO
  |  MOLCAS_NEW_WORKDIR = YES
  |       MOLCAS_NPROCS = 1
  |        MOLCAS_PRINT = NORMAL
  |       MOLCAS_SOURCE = /home/grierjones/Test/build
  |    MOLCAS_STRUCTURE = 0
  |
   -------------------------------------------------------------------------------

++ ---------   Input file   ---------

&GATEWAY
coord=1.84.xyz
Basis = ANO-RCC-VDZP
Group = nosymm
Expert
End of Input

&SEWARD
End of Input

&SCF
UHF
charge
2
spin
5
FileOrb
/home/grierjones/DDCASPT2/iron_oxo_DDCASPT2/cluster/1.82/1.82.UhfOrb

>>> COPY $WorkDir/1.84.scf.h5 $CurrDir/

&RASSCF
Title= RASSCF
FileOrb
/home/grierjones/DDCASPT2/iron_oxo_DDCASPT2/cluster/1.82/1.82.RasOrb
NACTEL
10 0 0
RAS2
14
Symmetry
1
Spin
5
charge
2
orblisting
all
ITERation
300 200

>>> COPY $WorkDir/1.84.rasscf.h5 $CurrDir/

>>> COPY $WorkDir/GMJ_Fock_MO.csv $CurrDir/1.84.GMJ_Fock_MO.csv

>>> COPY $WorkDir/GMJ_PT2_Fock_MO.csv $CurrDir/1.84.GMJ_PT2_Fock_MO.csv

&MOTRA
Frozen=0
LUMORB

>>> COPY $WorkDir/GMJ_one_int_indx.csv $CurrDir/1.84.GMJ_one_int_indx.csv

>>> COPY $WorkDir/GMJ_one_int.csv $CurrDir/1.84.GMJ_one_int.csv

>>> COPY $WorkDir/GMJ_two_int_indx.csv $CurrDir/1.84.GMJ_two_int_indx.csv

>>> COPY $WorkDir/GMJ_two_int.csv $CurrDir/1.84.GMJ_two_int.csv

&CASPT2
Frozen
0
MAXITER
50

>>> FOREACH i IN (B,E,F,G,H)

  >>> FOREACH j IN (P,M)

    >>> IF (-FILE GMJ_e2_${i}_${j}.csv)

      >>> COPY $WorkDir/GMJ_RHS_${i}_${j}.csv $CurrDir/GMJ_RHS_${i}_${j}.csv

      >>> COPY $WorkDir/GMJ_IVECW_${i}_${j}.csv $CurrDir/GMJ_IVECW_${i}_${j}.csv

      >>> COPY $WorkDir/GMJ_IVECX_${i}_${j}.csv $CurrDir/GMJ_IVECX_${i}_${j}.csv

      >>> COPY $WorkDir/GMJ_IVECC2_${i}_${j}.csv $CurrDir/GMJ_IVECC2_${i}_${j}.csv

      >>> COPY $WorkDir/GMJ_e2_${i}_${j}.csv $CurrDir/GMJ_e2_${i}_${j}.csv

    >>> END IF

  >>> END FOREACH

>>> END FOREACH

>>> FOREACH i IN (A,C,D)

  >>> IF (-FILE GMJ_e2_$i.csv)

    >>> COPY $WorkDir/GMJ_RHS_$i.csv $CurrDir/GMJ_RHS_$i.csv

    >>> COPY $WorkDir/GMJ_IVECW_$i.csv $CurrDir/GMJ_IVECW_$i.csv

    >>> COPY $WorkDir/GMJ_IVECX_$i.csv $CurrDir/GMJ_IVECX_$i.csv

    >>> COPY $WorkDir/GMJ_IVECC2_$i.csv $CurrDir/GMJ_IVECC2_$i.csv

    >>> COPY $WorkDir/GMJ_e2_$i.csv $CurrDir/GMJ_e2_$i.csv

  >>> END IF

>>> END FOREACH

-- ----------------------------------

--- Start Module: gateway at Mon Dec 23 17:09:53 2024 ---
 
()()()()()()()()()()()()()()()()()()()()()()()()()()()()()()()()()()()()()()()()()()()()()()()()()()

                                              &GATEWAY

                                   only a single process is used
                       available to each process: 2.0 GB of memory, 1 thread?
()()()()()()()()()()()()()()()()()()()()()()()()()()()()()()()()()()()()()()()()()()()()()()()()()()
 
 ###############################################################################
 ###############################################################################
 ###                                                                         ###
 ###                                                                         ###
 ###                                                                         ###
 ###    WARNING: EXPERT option is ON!                                        ###
 ###                                                                         ###
 ###                                                                         ###
 ###############################################################################
 ###############################################################################
 
++    Symmetry information:
      ---------------------
 
                    Character Table for C1 
 
                             E  
                    a        1  x, y, xy, Rz, z, xz, Ry, yz, Rx, I
--
 
 
++    Basis set information:
      ----------------------
 
 
      Basis set label: O.ANO-RCC...3S2P1D.
 
      Electronic valence basis set:
      ------------------
      Associated Effective Charge   8.000000 au
      Associated Actual Charge      8.000000 au
      Nuclear Model: Point charge
 
      Shell  nPrim  nBasis  Cartesian Spherical Contaminant
         s      14       3        X                  
         p       9       2        X                  
         d       4       1                 X         
 
 
      Basis set label: FE.ANO-RCC...5S4P2D1F.
 
      Electronic valence basis set:
      ------------------
      Associated Effective Charge  26.000000 au
      Associated Actual Charge     26.000000 au
      Nuclear Model: Point charge
 
      Shell  nPrim  nBasis  Cartesian Spherical Contaminant
         s      21       5        X                  
         p      15       4        X                  
         d      10       2                 X         
         f       6       1                 X         
--
 
 
++    Molecular structure info:
      -------------------------
 
                    ************************************************ 
                    **** Cartesian Coordinates / Bohr, Angstrom **** 
                    ************************************************ 
 
     Center  Label                x              y              z                     x              y              z
        1      O1               0.000000       0.000000       3.247003              0.000000       0.000000       1.718240
        2      FE2              0.000000       0.000000      -0.223441              0.000000       0.000000      -0.118240
--
 
 
            Nuclear Potential Energy             59.93469018 au
 
 ###############################################################################
 ###############################################################################
 ###                                                                         ###
 ###                                                                         ###
 ###    There were warnings during the execution                             ###
 ###    Please, check the output with care!                                  ###
 ###                                                                         ###
 ###                                                                         ###
 ###############################################################################
 ###############################################################################
--- Stop Module: gateway at Mon Dec 23 17:09:53 2024 /rc=_RC_ALL_IS_WELL_ ---
*** files: xmldump
    saved to directory /home/grierjones/DDCASPT2/iron_oxo_DDCASPT2/cluster/1.84

--- Start Module: seward at Mon Dec 23 17:09:53 2024 ---
 
()()()()()()()()()()()()()()()()()()()()()()()()()()()()()()()()()()()()()()()()()()()()()()()()()()

                                              &SEWARD

                                   only a single process is used
                       available to each process: 2.0 GB of memory, 1 thread?
()()()()()()()()()()()()()()()()()()()()()()()()()()()()()()()()()()()()()()()()()()()()()()()()()()
 
 ###############################################################################
 ###############################################################################
 ###                                                                         ###
 ###                                                                         ###
 ###                                                                         ###
 ###    WARNING: EXPERT option is ON!                                        ###
 ###                                                                         ###
 ###                                                                         ###
 ###############################################################################
 ###############################################################################
               SEWARD will generate:
                  Multipole Moment integrals up to order  2
                  Kinetic Energy integrals
                  Nuclear Attraction integrals (point charge)
                  One-Electron Hamiltonian integrals
                  Velocity integrals
                  Relativistic Douglas-Kroll-Hess integrals:
                    - Parametrization         : EXP
                    - DKH order of Hamiltonian: 2
                    - DKH order of Properties : 0
                         - multipole moment operators
                         - electric potential operators
                         - contact operators
                  Atomic mean-field integrals
                  Two-Electron Repulsion integrals
 
                   Integrals are discarded if absolute value <: 0.10E-13
                   Integral cutoff threshold is set to       <: 0.10E-15
 
            Nuclear Potential Energy             59.93469018 au
 
 
      Basis set specifications :
      Symmetry species         a  
      Basis functions           48
 
 
  Input file to MOLDEN was generated!
 
 ###############################################################################
 ###############################################################################
 ###                                                                         ###
 ###                                                                         ###
 ###    There were warnings during the execution                             ###
 ###    Please, check the output with care!                                  ###
 ###                                                                         ###
 ###                                                                         ###
 ###############################################################################
 ###############################################################################
--- Stop Module: seward at Mon Dec 23 17:09:54 2024 /rc=_RC_ALL_IS_WELL_ ---
*** files: 1.84.GssOrb 1.84.guessorb.h5 1.84.guessorb.molden xmldump
    saved to directory /home/grierjones/DDCASPT2/iron_oxo_DDCASPT2/cluster/1.84
--- Module seward spent 1 second ---

*** symbolic link created: INPORB -> 1.84.GssOrb
--- Start Module: scf at Mon Dec 23 17:09:54 2024 ---
 
()()()()()()()()()()()()()()()()()()()()()()()()()()()()()()()()()()()()()()()()()()()()()()()()()()

                                                &SCF

                                   only a single process is used
                       available to each process: 2.0 GB of memory, 1 thread?
()()()()()()()()()()()()()()()()()()()()()()()()()()()()()()()()()()()()()()()()()()()()()()()()()()
 
 *** Possible bug in opening file
 *** isFreeUnit resets the unit number
++    Input section:
      --------------
 
      Header of the integral files:
      
       Integrals generated by seward 4.2.0  , Mon Dec 23 17:09:53 2024
 
 
      Cartesian coordinates in Angstrom:
      -----------------------------------------------------
      No.  Label        X            Y            Z        
      -----------------------------------------------------
       1   O1         0.00000000   0.00000000   1.71824000
       2   FE2        0.00000000   0.00000000  -0.11824000
      -----------------------------------------------------
      Nuclear repulsion energy =   59.93469018
--
 
++    Orbital specifications:
      -----------------------
 
      Symmetry species               1
                                     a
      Frozen orbitals                0
      Occupied orbitals alpha       18
      Occupied orbitals beta        14
      Secondary orbitals alpha      30
      Secondary orbitals beta       34
      Deleted orbitals               0
      Total number of orbitals      48
      Number of basis functions     48
--
 
      Molecular charge                           2.000
 
++    Optimization specifications:
      ----------------------------
 
      SCF Algorithm: Conventional USCF
      D(i)-D(i-1) density differences are used
      Number of density matrices in core                5
      Maximum number of NDDO SCF iterations           400
      Maximum number of HF SCF iterations             400
      Threshold for SCF energy change            0.10E-08
      Threshold for density matrix               0.10E-03
      Threshold for Fock matrix                  0.15E-03
      Threshold for linear dependence            0.10E-08
      Threshold at which DIIS is turned on       0.15E+00
      Threshold at which QNR/C2DIIS is turned on 0.75E-01
      Threshold for Norm(delta) (QNR/C2DIIS)     0.20E-04
      DIIS extrapolation of the SCF procedure
      All orbitals punched on: UHFORB
--
 
      Input vectors read from INPORB
      Orbital file label: * UHF orbitals
 
 
++ Convergence information
                               UHF SCF        iterations: Energy and convergence statistics
 
Iter     Tot. SCF        One-elec.       Two-elec.     Energy      Max Dij or  Max Fij      DNorm      TNorm      AccCon     Time
         Energy          Energy          Energy        Change      Delta Norm                                                in Sec.
 
 The total and one-electron energies are shifted by a value of      1000. a.u.
 
   1  -345.244389583  -955.229434629   550.050354866   0.00E+00    0.55E-02*   0.15E-02*    0.81E+01   0.19E+03   None         0.
   2  -345.244410430  -955.269369644   550.090269035  -0.21E-04*   0.29E-02*   0.13E-02*    0.13E-01   0.19E+03   EDIIS        0.
   3  -345.244412750  -955.196956992   550.017854063  -0.23E-05*   0.21E-02*   0.72E-03*    0.93E-02   0.19E+03   c2DIIS       0.
   4  -345.244421340  -955.258095576   550.078984057  -0.86E-05*   0.24E-02*   0.40E-03*    0.41E-02   0.19E+03   QNRc2DIIS    0.
   5  -345.244423422  -955.249464633   550.070351032  -0.21E-05*   0.11E-01*   0.40E-03*    0.30E-02   0.19E+03   QNRc2DIIS    0.
   6  -345.244428039  -955.280409860   550.101291642  -0.46E-05*   0.24E-02*   0.20E-03*    0.13E-01   0.19E+03   QNRc2DIIS    0.
   7  -345.244428511  -955.293054683   550.113935994  -0.47E-06*   0.14E-02*   0.12E-03     0.29E-02   0.19E+03   QNRc2DIIS    0.
   8  -345.244428657  -955.296122642   550.117003807  -0.15E-06*   0.25E-03*   0.25E-04     0.18E-02   0.19E+03   QNRc2DIIS    0.
   9  -345.244428663  -955.295809610   550.116690768  -0.61E-08*   0.68E-04*   0.83E-05     0.28E-03   0.19E+03   QNRc2DIIS    0.
  10  -345.244428664  -955.295758903   550.116640061  -0.83E-09    0.30E-04*   0.20E-05     0.94E-04   0.19E+03   QNRc2DIIS    0.
  11  -345.244428664  -955.295749737   550.116630894   0.84E-11    0.80E-05    0.19E-05     0.40E-04   0.19E+03   QNRc2DIIS    0.
 
       Convergence after 11 Macro Iterations
--
 
 *****************************************************************************************************************************
 *                                                                                                                           *
 *                                             SCF/KS-DFT Program, Final results                                             *
 *                                                                                                                           *
 *                                                                                                                           *
 *                                                                                                                           *
 *                                                       Final Results                                                       *
 *                                                                                                                           *
 *****************************************************************************************************************************
 
::    Total SCF energy                              -1345.2444286639
      One-electron energy                           -1955.2957497370
      Two-electron energy                             550.1166308944
      Nuclear repulsion energy                         59.9346901787
      Kinetic energy (interpolated)                  1399.6360614619
      Virial theorem                                    0.9611387315
      Total spin, S(S+1)                                7.0063321320
      Total spin, S                                     2.1937579943
      Max non-diagonal density matrix element           0.0000035220
      Max non-diagonal Fock matrix element              0.0000008948
 
 
      All orbitals with orbital energies smaller than  E(LUMO)+0.5 are printed
 
++    Molecular orbitals:
      -------------------
 
      Title: UHF orbitals (alpha)

      Molecular orbitals for symmetry species 1: a  
 
          Orbital            1         2         3         4         5         6         7         8         9        10    
          Energy         -264.4430  -33.2861  -28.3590  -28.3590  -28.3497  -21.2104   -5.2275   -3.7864   -3.7864   -3.7639
          Occ. No.          1.0000    1.0000    1.0000    1.0000    1.0000    1.0000    1.0000    1.0000    1.0000    1.0000
 
        1 O1     1s        -0.0000    0.0000    0.0000    0.0000    0.0000    1.0000    0.0001   -0.0000   -0.0000   -0.0002
        2 O1     2s        -0.0000    0.0001    0.0000    0.0000    0.0002   -0.0004    0.0033   -0.0000   -0.0000    0.0104
        3 O1     3s        -0.0000    0.0001    0.0000    0.0000    0.0002   -0.0011    0.0014   -0.0000   -0.0000    0.0013
        4 O1     2px        0.0000   -0.0000    0.0000   -0.0000   -0.0000    0.0000    0.0000   -0.0007    0.0019    0.0000
        5 O1     3px       -0.0000   -0.0000    0.0000   -0.0001   -0.0000    0.0000    0.0000   -0.0006    0.0017    0.0000
        6 O1     2py       -0.0000    0.0000   -0.0000   -0.0000    0.0000   -0.0000   -0.0000    0.0019    0.0007   -0.0000
        7 O1     3py        0.0000    0.0000   -0.0001   -0.0000    0.0000   -0.0000   -0.0000    0.0017    0.0006   -0.0000
        8 O1     2pz        0.0000   -0.0001   -0.0000   -0.0000   -0.0003    0.0001   -0.0021   -0.0000   -0.0000   -0.0044
        9 O1     3pz       -0.0000   -0.0001   -0.0000   -0.0000   -0.0004    0.0004   -0.0011    0.0000    0.0000    0.0009
       10 O1     3d2-      -0.0000   -0.0000   -0.0000    0.0000    0.0000    0.0000   -0.0000    0.0000   -0.0000    0.0000
       11 O1     3d1-       0.0000   -0.0000   -0.0000   -0.0000   -0.0000    0.0000    0.0000   -0.0005   -0.0002    0.0000
       12 O1     3d0        0.0000   -0.0000    0.0000    0.0000    0.0002   -0.0013    0.0003    0.0000    0.0000    0.0000
       13 O1     3d1+      -0.0000    0.0000    0.0000   -0.0000    0.0000   -0.0000   -0.0000    0.0002   -0.0005   -0.0000
       14 O1     3d2+      -0.0000   -0.0000   -0.0000   -0.0000    0.0000    0.0000   -0.0000    0.0000    0.0000    0.0000
       15 FE2    1s         1.0000   -0.0000   -0.0000   -0.0000    0.0000    0.0000   -0.0000    0.0000    0.0000   -0.0000
       16 FE2    2s         0.0000    1.0000   -0.0000   -0.0000   -0.0002    0.0001   -0.0034    0.0000    0.0000   -0.0002
       17 FE2    3s        -0.0000    0.0032   -0.0000   -0.0000   -0.0001    0.0003    0.9992   -0.0000   -0.0000    0.0002
       18 FE2    4s         0.0000   -0.0004   -0.0000   -0.0000   -0.0004    0.0005   -0.0049    0.0000    0.0000   -0.0044
       19 FE2    5s        -0.0000    0.0004    0.0000    0.0000    0.0002   -0.0002    0.0042   -0.0000   -0.0000    0.0020
       20 FE2    2px       -0.0000   -0.0000   -0.3413    0.9400    0.0000   -0.0000   -0.0000    0.0011   -0.0030   -0.0000
       21 FE2    3px        0.0000    0.0000   -0.0011    0.0029    0.0000   -0.0000   -0.0000   -0.3412    0.9396    0.0000
       22 FE2    4px       -0.0000    0.0000    0.0001   -0.0004   -0.0000   -0.0000   -0.0000    0.0054   -0.0150   -0.0000
       23 FE2    5px        0.0000    0.0000   -0.0004    0.0012    0.0000    0.0000    0.0000   -0.0036    0.0099    0.0000
       24 FE2    2py        0.0000    0.0000    0.9400    0.3413   -0.0000    0.0000    0.0000   -0.0030   -0.0011    0.0000
       25 FE2    3py       -0.0000   -0.0000    0.0029    0.0011   -0.0000    0.0000    0.0000    0.9396    0.3412   -0.0000
       26 FE2    4py        0.0000   -0.0000   -0.0004   -0.0001    0.0000    0.0000    0.0000   -0.0150   -0.0054    0.0000
       27 FE2    5py       -0.0000   -0.0000    0.0012    0.0004   -0.0000   -0.0000   -0.0000    0.0099    0.0036   -0.0000
       28 FE2    2pz       -0.0000    0.0002    0.0000    0.0000    1.0000    0.0000   -0.0001   -0.0000   -0.0000   -0.0030
       29 FE2    3pz        0.0000    0.0000    0.0000    0.0000    0.0029    0.0002   -0.0015    0.0000    0.0000    0.9989
       30 FE2    4pz        0.0000   -0.0001   -0.0000   -0.0000   -0.0007    0.0004   -0.0028   -0.0000   -0.0000   -0.0172
       31 FE2    5pz        0.0000    0.0001    0.0000    0.0000    0.0013   -0.0002    0.0017    0.0000    0.0000    0.0105
       32 FE2    3d2-      -0.0000   -0.0000   -0.0000    0.0000    0.0000   -0.0000   -0.0000   -0.0000    0.0000    0.0000
       33 FE2    4d2-       0.0000    0.0000    0.0000   -0.0000   -0.0000   -0.0000    0.0000    0.0000   -0.0000   -0.0000
       34 FE2    3d1-       0.0000    0.0000    0.0000    0.0000   -0.0000    0.0000    0.0000   -0.0014   -0.0005    0.0000
       35 FE2    4d1-      -0.0000   -0.0000    0.0000    0.0000    0.0000    0.0000    0.0000   -0.0025   -0.0009    0.0000
       36 FE2    3d0        0.0000   -0.0002   -0.0000   -0.0000   -0.0001    0.0002   -0.0046   -0.0000   -0.0000   -0.0019
       37 FE2    4d0        0.0000    0.0001    0.0000    0.0000   -0.0001    0.0002    0.0003    0.0000    0.0000   -0.0026
       38 FE2    3d1+      -0.0000   -0.0000   -0.0000    0.0000    0.0000   -0.0000   -0.0000    0.0005   -0.0014   -0.0000
       39 FE2    4d1+       0.0000    0.0000   -0.0000    0.0000   -0.0000   -0.0000   -0.0000    0.0009   -0.0025   -0.0000
       40 FE2    3d2+      -0.0000   -0.0000   -0.0000   -0.0000    0.0000   -0.0000   -0.0000   -0.0000   -0.0000    0.0000
       41 FE2    4d2+       0.0000    0.0000    0.0000    0.0000   -0.0000   -0.0000    0.0000    0.0000    0.0000   -0.0000
       42 FE2    4f3-      -0.0000   -0.0000   -0.0000   -0.0000    0.0000   -0.0000   -0.0000   -0.0000   -0.0000    0.0000
       43 FE2    4f2-       0.0000    0.0000   -0.0000    0.0000   -0.0000   -0.0000    0.0000   -0.0000    0.0000   -0.0000
       44 FE2    4f1-       0.0000   -0.0000   -0.0001   -0.0000    0.0000    0.0000   -0.0000   -0.0026   -0.0009    0.0000
       45 FE2    4f0        0.0000   -0.0000   -0.0000   -0.0000   -0.0001    0.0001   -0.0001    0.0000    0.0000   -0.0010
       46 FE2    4f1+      -0.0000    0.0000    0.0000   -0.0001   -0.0000   -0.0000    0.0000    0.0009   -0.0026   -0.0000
       47 FE2    4f2+       0.0000    0.0000   -0.0000   -0.0000   -0.0000   -0.0000    0.0000   -0.0000   -0.0000   -0.0000
       48 FE2    4f3+       0.0000   -0.0000    0.0000   -0.0000    0.0000    0.0000    0.0000    0.0000   -0.0000   -0.0000
 
          Orbital           11        12        13        14        15        16        17        18        19        20    
          Energy           -1.8033   -1.4829   -1.4829   -1.4642   -1.4642   -1.4551   -1.1302   -1.1302   -0.5856   -0.4528
          Occ. No.          1.0000    1.0000    1.0000    1.0000    1.0000    1.0000    1.0000    1.0000    0.0000    0.0000
 
        1 O1     1s        -0.0030   -0.0000   -0.0000   -0.0000   -0.0000   -0.0117    0.0000    0.0000   -0.0195    0.0161
        2 O1     2s         0.9525   -0.0000   -0.0000   -0.0000   -0.0000   -0.2814    0.0000    0.0000   -0.2580    0.2030
        3 O1     3s        -0.0158   -0.0000   -0.0000   -0.0000   -0.0000   -0.0314   -0.0000   -0.0000   -0.0413    0.0395
        4 O1     2px       -0.0000    0.0000   -0.0000   -0.0248    0.0684    0.0000    0.9266   -0.3364   -0.0000    0.0000
        5 O1     3px        0.0000   -0.0000    0.0000    0.0085   -0.0235   -0.0000   -0.0433    0.0157   -0.0000    0.0000
        6 O1     2py        0.0000   -0.0000   -0.0000    0.0684    0.0248   -0.0000    0.3364    0.9266    0.0000   -0.0000
        7 O1     3py       -0.0000    0.0000    0.0000   -0.0235   -0.0085    0.0000   -0.0157   -0.0433    0.0000   -0.0000
        8 O1     2pz       -0.1161   -0.0000   -0.0000    0.0000    0.0000   -0.0071    0.0000    0.0000   -0.2877    0.7619
        9 O1     3pz       -0.0087    0.0000    0.0000   -0.0000   -0.0000    0.0237   -0.0000   -0.0000   -0.0133    0.1373
       10 O1     3d2-       0.0000   -0.0003    0.0002    0.0000   -0.0000   -0.0000    0.0000   -0.0000   -0.0000    0.0000
       11 O1     3d1-       0.0000   -0.0000   -0.0000   -0.0021   -0.0008   -0.0000   -0.0095   -0.0261   -0.0000    0.0000
       12 O1     3d0       -0.0200    0.0000    0.0000   -0.0000   -0.0000    0.0105   -0.0000   -0.0000    0.0166   -0.0274
       13 O1     3d1+      -0.0000    0.0000   -0.0000    0.0008   -0.0021    0.0000   -0.0261    0.0095    0.0000   -0.0000
       14 O1     3d2+       0.0000   -0.0002   -0.0003    0.0000    0.0000   -0.0000   -0.0000   -0.0000   -0.0000    0.0000
       15 FE2    1s        -0.0008    0.0000    0.0000    0.0000    0.0000    0.0004    0.0000    0.0000   -0.0005    0.0026
       16 FE2    2s        -0.0063    0.0000    0.0000    0.0000    0.0000    0.0032    0.0000    0.0000   -0.0032    0.0185
       17 FE2    3s        -0.0406    0.0000    0.0000    0.0000    0.0000    0.0212    0.0000    0.0000   -0.0133    0.0913
       18 FE2    4s         0.0080    0.0000    0.0000    0.0000    0.0000    0.0159   -0.0000   -0.0000    0.8807    0.3732
       19 FE2    5s        -0.0097    0.0000    0.0000   -0.0000   -0.0000    0.0020    0.0000    0.0000   -0.2547    0.0110
       20 FE2    2px       -0.0000   -0.0000    0.0000    0.0000   -0.0000   -0.0000   -0.0008    0.0003    0.0000   -0.0000
       21 FE2    3px       -0.0000   -0.0000    0.0000   -0.0002    0.0005   -0.0000   -0.0193    0.0070    0.0000   -0.0000
       22 FE2    4px        0.0000    0.0000   -0.0000    0.0001   -0.0004   -0.0000    0.0345   -0.0125   -0.0000    0.0000
       23 FE2    5px       -0.0000   -0.0000    0.0000   -0.0023    0.0063    0.0000   -0.0069    0.0025   -0.0000    0.0000
       24 FE2    2py        0.0000    0.0000    0.0000   -0.0000   -0.0000    0.0000   -0.0003   -0.0008   -0.0000    0.0000
       25 FE2    3py        0.0000    0.0000    0.0000    0.0005    0.0002    0.0000   -0.0070   -0.0193   -0.0000    0.0000
       26 FE2    4py       -0.0000   -0.0000   -0.0000   -0.0004   -0.0001    0.0000    0.0125    0.0345    0.0000   -0.0000
       27 FE2    5py        0.0000    0.0000    0.0000    0.0063    0.0023   -0.0000   -0.0025   -0.0069    0.0000   -0.0000
       28 FE2    2pz       -0.0018    0.0000    0.0000    0.0000    0.0000    0.0007    0.0000    0.0000   -0.0007    0.0033
       29 FE2    3pz       -0.0533    0.0000    0.0000    0.0000    0.0000    0.0170    0.0000    0.0000   -0.0105    0.0568
       30 FE2    4pz        0.0146    0.0000    0.0000    0.0000    0.0000    0.0101   -0.0000   -0.0000   -0.1230   -0.5361
       31 FE2    5pz       -0.0064    0.0000    0.0000   -0.0000   -0.0000    0.0083    0.0000    0.0000   -0.0093   -0.0134
       32 FE2    3d2-       0.0000    0.7547   -0.6477    0.0000   -0.0000   -0.0000    0.0000   -0.0000    0.0000   -0.0000
       33 FE2    4d2-      -0.0000   -0.0795    0.0682   -0.0000    0.0000    0.0000   -0.0000    0.0000   -0.0000   -0.0000
       34 FE2    3d1-       0.0000   -0.0000   -0.0000    0.9300    0.3377    0.0000   -0.0467   -0.1285   -0.0000    0.0000
       35 FE2    4d1-      -0.0000    0.0000    0.0000   -0.0890   -0.0323    0.0000    0.0109    0.0301    0.0000   -0.0000
       36 FE2    3d0        0.1654    0.0000    0.0000    0.0000    0.0000    0.9856    0.0000    0.0000   -0.0146    0.0819
       37 FE2    4d0       -0.0084   -0.0000   -0.0000    0.0000    0.0000   -0.0906   -0.0000   -0.0000   -0.0056   -0.0022
       38 FE2    3d1+      -0.0000    0.0000   -0.0000   -0.3377    0.9300   -0.0000   -0.1285    0.0467    0.0000   -0.0000
       39 FE2    4d1+       0.0000   -0.0000    0.0000    0.0323   -0.0890   -0.0000    0.0301   -0.0109   -0.0000    0.0000
       40 FE2    3d2+       0.0000    0.6477    0.7547    0.0000    0.0000   -0.0000   -0.0000   -0.0000    0.0000   -0.0000
       41 FE2    4d2+      -0.0000   -0.0682   -0.0795   -0.0000   -0.0000    0.0000    0.0000    0.0000   -0.0000   -0.0000
       42 FE2    4f3-       0.0000    0.0000    0.0000    0.0000    0.0000   -0.0000    0.0000    0.0000    0.0000    0.0000
       43 FE2    4f2-       0.0000   -0.0015    0.0013   -0.0000    0.0000    0.0000   -0.0000    0.0000    0.0000   -0.0000
       44 FE2    4f1-      -0.0000    0.0000    0.0000   -0.0014   -0.0005    0.0000    0.0022    0.0060    0.0000   -0.0000
       45 FE2    4f0        0.0042   -0.0000   -0.0000   -0.0000   -0.0000   -0.0017   -0.0000   -0.0000    0.0022   -0.0055
       46 FE2    4f1+       0.0000   -0.0000    0.0000    0.0005   -0.0014   -0.0000    0.0060   -0.0022   -0.0000    0.0000
       47 FE2    4f2+       0.0000   -0.0013   -0.0015   -0.0000   -0.0000    0.0000    0.0000    0.0000    0.0000   -0.0000
       48 FE2    4f3+      -0.0000   -0.0000    0.0000   -0.0000    0.0000    0.0000    0.0000   -0.0000   -0.0000   -0.0000
 
          Orbital           21        22        23        24    
          Energy           -0.3891   -0.3891   -0.2589   -0.1998
          Occ. No.          0.0000    0.0000    0.0000    0.0000
 
        1 O1     1s         0.0000    0.0000   -0.0693   -0.0364
        2 O1     2s         0.0000    0.0000   -0.5815   -0.2857
        3 O1     3s         0.0000    0.0000   -0.1629   -0.0841
        4 O1     2px        0.0775   -0.2135    0.0000    0.0000
        5 O1     3px        0.0191   -0.0526    0.0000    0.0000
        6 O1     2py       -0.2135   -0.0775   -0.0000   -0.0000
        7 O1     3py       -0.0526   -0.0191   -0.0000   -0.0000
        8 O1     2pz        0.0000    0.0000    0.4265    0.6027
        9 O1     3pz        0.0000    0.0000    0.1656    0.2803
       10 O1     3d2-       0.0000   -0.0000   -0.0000   -0.0000
       11 O1     3d1-      -0.0020   -0.0007   -0.0000    0.0000
       12 O1     3d0       -0.0000   -0.0000   -0.0143   -0.0124
       13 O1     3d1+       0.0007   -0.0020    0.0000   -0.0000
       14 O1     3d2+       0.0000    0.0000   -0.0000   -0.0000
       15 FE2    1s         0.0000    0.0000    0.0031    0.0040
       16 FE2    2s         0.0000    0.0000    0.0228    0.0289
       17 FE2    3s         0.0000    0.0000    0.1173    0.1440
       18 FE2    4s         0.0000    0.0000    0.6989    0.2421
       19 FE2    5s         0.0000    0.0000    0.3674   -0.9741
       20 FE2    2px       -0.0003    0.0008   -0.0000   -0.0000
       21 FE2    3px       -0.0078    0.0216   -0.0000   -0.0000
       22 FE2    4px       -0.3558    0.9800   -0.0000   -0.0000
       23 FE2    5px       -0.0232    0.0639   -0.0000   -0.0000
       24 FE2    2py        0.0008    0.0003    0.0000    0.0000
       25 FE2    3py        0.0216    0.0078    0.0000    0.0000
       26 FE2    4py        0.9800    0.3558    0.0000    0.0000
       27 FE2    5py        0.0639    0.0232    0.0000    0.0000
       28 FE2    2pz        0.0000    0.0000    0.0049    0.0053
       29 FE2    3pz        0.0000    0.0000    0.1017    0.1013
       30 FE2    4pz       -0.0000   -0.0000    0.9692    0.5360
       31 FE2    5pz       -0.0000   -0.0000    0.0939    0.0743
       32 FE2    3d2-       0.0000   -0.0000   -0.0000   -0.0000
       33 FE2    4d2-      -0.0000    0.0000   -0.0000   -0.0000
       34 FE2    3d1-       0.0263    0.0095    0.0000    0.0000
       35 FE2    4d1-      -0.0348   -0.0126   -0.0000   -0.0000
       36 FE2    3d0        0.0000    0.0000    0.1102    0.0966
       37 FE2    4d0        0.0000    0.0000   -0.1005   -0.0627
       38 FE2    3d1+      -0.0095    0.0263   -0.0000   -0.0000
       39 FE2    4d1+       0.0126   -0.0348    0.0000    0.0000
       40 FE2    3d2+       0.0000    0.0000   -0.0000   -0.0000
       41 FE2    4d2+      -0.0000   -0.0000   -0.0000   -0.0000
       42 FE2    4f3-      -0.0000   -0.0000   -0.0000   -0.0000
       43 FE2    4f2-      -0.0000    0.0000   -0.0000   -0.0000
       44 FE2    4f1-      -0.0021   -0.0007   -0.0000   -0.0000
       45 FE2    4f0       -0.0000   -0.0000   -0.0072   -0.0051
       46 FE2    4f1+       0.0007   -0.0021    0.0000    0.0000
       47 FE2    4f2+      -0.0000   -0.0000   -0.0000   -0.0000
       48 FE2    4f3+       0.0000   -0.0000    0.0000    0.0000
--
 
 
  Input file to MOLDEN was generated!
 
 
++    Static properties:
      ------------------
 
 
      LoProp Charges per center
 

                   O1       FE2   
      Nuclear      8.0000  26.0000
      Electronic  -8.1257 -23.8743
 
      Total       -0.1257   2.1257
--
 
 
      All orbitals with orbital energies smaller than  E(LUMO)+0.5 are printed
 
++    Molecular orbitals:
      -------------------
 
      Title: UHF orbitals (beta)

      Molecular orbitals for symmetry species 1: a  
 
          Orbital            1         2         3         4         5         6         7         8         9        10    
          Energy         -264.4402  -33.1380  -28.2083  -28.2076  -28.2076  -21.2030   -4.8300   -3.3114   -3.2925   -3.2925
          Occ. No.          1.0000    1.0000    1.0000    1.0000    1.0000    1.0000    1.0000    1.0000    1.0000    1.0000
 
        1 O1     1s        -0.0000   -0.0000   -0.0000    0.0000    0.0000    1.0000   -0.0004   -0.0011    0.0000    0.0000
        2 O1     2s        -0.0000   -0.0002   -0.0001    0.0000    0.0000    0.0001    0.0020    0.0198   -0.0000   -0.0000
        3 O1     3s         0.0000   -0.0001   -0.0001    0.0000    0.0000   -0.0002   -0.0002    0.0004    0.0000    0.0000
        4 O1     2px       -0.0000    0.0000   -0.0000   -0.0000    0.0001    0.0000   -0.0000   -0.0000    0.0062   -0.0022
        5 O1     3px       -0.0000   -0.0000   -0.0000   -0.0000    0.0001   -0.0000   -0.0000   -0.0000    0.0003   -0.0001
        6 O1     2py        0.0000   -0.0000    0.0000    0.0001    0.0000   -0.0000    0.0000    0.0000    0.0022    0.0062
        7 O1     3py        0.0000    0.0000    0.0000    0.0001    0.0000    0.0000    0.0000    0.0000    0.0001    0.0003
        8 O1     2pz        0.0000    0.0001    0.0002   -0.0000   -0.0000   -0.0003   -0.0025   -0.0156    0.0000    0.0000
        9 O1     3pz       -0.0000    0.0001    0.0003   -0.0000   -0.0000   -0.0003    0.0000    0.0018   -0.0000   -0.0000
       10 O1     3d2-      -0.0000   -0.0000   -0.0000    0.0000   -0.0000   -0.0000    0.0000   -0.0000    0.0000   -0.0000
       11 O1     3d1-      -0.0000    0.0000   -0.0000    0.0000    0.0000   -0.0000    0.0000   -0.0000   -0.0005   -0.0014
       12 O1     3d0        0.0000   -0.0000   -0.0001    0.0000    0.0000    0.0009    0.0008    0.0032   -0.0000   -0.0000
       13 O1     3d1+       0.0000   -0.0000    0.0000   -0.0000    0.0000    0.0000   -0.0000    0.0000   -0.0014    0.0005
       14 O1     3d2+      -0.0000   -0.0000   -0.0000    0.0000    0.0000   -0.0000    0.0000   -0.0000   -0.0000   -0.0000
       15 FE2    1s         1.0000    0.0000    0.0000   -0.0000   -0.0000   -0.0000   -0.0000   -0.0000    0.0000    0.0000
       16 FE2    2s        -0.0000    1.0000   -0.0002   -0.0000   -0.0000   -0.0001    0.0008   -0.0002    0.0000    0.0000
       17 FE2    3s        -0.0000   -0.0008   -0.0001    0.0000    0.0000   -0.0002    0.9996    0.0063   -0.0000   -0.0000
       18 FE2    4s         0.0000    0.0003    0.0003   -0.0000   -0.0000   -0.0004    0.0016    0.0017    0.0000    0.0000
       19 FE2    5s        -0.0000   -0.0003   -0.0002    0.0000    0.0000    0.0002   -0.0003   -0.0007   -0.0000   -0.0000
       20 FE2    2px       -0.0000   -0.0000   -0.0000   -0.3413    0.9400    0.0000    0.0000   -0.0000    0.0026   -0.0010
       21 FE2    3px        0.0000   -0.0000    0.0000    0.0010   -0.0027    0.0000   -0.0000   -0.0000    0.9397   -0.3412
       22 FE2    4px        0.0000    0.0000   -0.0000   -0.0001    0.0003    0.0000    0.0000    0.0000   -0.0040    0.0014
       23 FE2    5px        0.0000   -0.0000    0.0000    0.0004   -0.0010    0.0000    0.0000   -0.0000   -0.0013    0.0005
       24 FE2    2py        0.0000    0.0000    0.0000    0.9400    0.3413   -0.0000   -0.0000    0.0000    0.0010    0.0026
       25 FE2    3py       -0.0000    0.0000   -0.0000   -0.0027   -0.0010   -0.0000    0.0000    0.0000    0.3412    0.9397
       26 FE2    4py       -0.0000   -0.0000    0.0000    0.0003    0.0001   -0.0000   -0.0000   -0.0000   -0.0014   -0.0040
       27 FE2    5py       -0.0000    0.0000   -0.0000   -0.0010   -0.0004   -0.0000   -0.0000    0.0000   -0.0005   -0.0013
       28 FE2    2pz        0.0000    0.0002    1.0000   -0.0000   -0.0000   -0.0000    0.0002    0.0025   -0.0000   -0.0000
       29 FE2    3pz        0.0000   -0.0001   -0.0025    0.0000    0.0000   -0.0002   -0.0087    0.9972   -0.0000   -0.0000
       30 FE2    4pz        0.0000    0.0002    0.0006   -0.0000   -0.0000   -0.0003    0.0008   -0.0005   -0.0000   -0.0000
       31 FE2    5pz        0.0000   -0.0000   -0.0011    0.0000    0.0000    0.0001    0.0005   -0.0028    0.0000    0.0000
       32 FE2    3d2-       0.0000    0.0000   -0.0000   -0.0000    0.0000    0.0000    0.0000   -0.0000    0.0000   -0.0000
       33 FE2    4d2-       0.0000    0.0000    0.0000    0.0000   -0.0000    0.0000    0.0000    0.0000    0.0000   -0.0000
       34 FE2    3d1-      -0.0000    0.0000    0.0000   -0.0000   -0.0000   -0.0000    0.0000    0.0000   -0.0027   -0.0073
       35 FE2    4d1-      -0.0000   -0.0000   -0.0000   -0.0000   -0.0000   -0.0000   -0.0000   -0.0000    0.0007    0.0019
       36 FE2    3d0        0.0000    0.0001    0.0001   -0.0000   -0.0000   -0.0001   -0.0005   -0.0046    0.0000    0.0000
       37 FE2    4d0        0.0000    0.0001    0.0000   -0.0000   -0.0000   -0.0002    0.0014    0.0017   -0.0000   -0.0000
       38 FE2    3d1+       0.0000   -0.0000   -0.0000    0.0000   -0.0000    0.0000   -0.0000   -0.0000   -0.0073    0.0027
       39 FE2    4d1+       0.0000    0.0000    0.0000    0.0000   -0.0000    0.0000    0.0000    0.0000    0.0019   -0.0007
       40 FE2    3d2+       0.0000    0.0000   -0.0000   -0.0000   -0.0000    0.0000    0.0000   -0.0000   -0.0000   -0.0000
       41 FE2    4d2+       0.0000    0.0000    0.0000    0.0000    0.0000    0.0000    0.0000    0.0000   -0.0000   -0.0000
       42 FE2    4f3-      -0.0000   -0.0000    0.0000   -0.0000   -0.0000   -0.0000   -0.0000    0.0000   -0.0000   -0.0000
       43 FE2    4f2-       0.0000   -0.0000    0.0000   -0.0000    0.0000    0.0000   -0.0000    0.0000    0.0000   -0.0000
       44 FE2    4f1-      -0.0000    0.0000   -0.0000    0.0002    0.0001   -0.0000    0.0000   -0.0000    0.0012    0.0034
       45 FE2    4f0       -0.0000    0.0000   -0.0003   -0.0000   -0.0000   -0.0001    0.0004   -0.0057   -0.0000   -0.0000
       46 FE2    4f1+       0.0000   -0.0000    0.0000   -0.0001    0.0002    0.0000   -0.0000    0.0000    0.0034   -0.0012
       47 FE2    4f2+       0.0000   -0.0000    0.0000   -0.0000   -0.0000    0.0000   -0.0000    0.0000   -0.0000   -0.0000
       48 FE2    4f3+       0.0000   -0.0000   -0.0000    0.0000   -0.0000    0.0000    0.0000   -0.0000   -0.0000    0.0000
 
          Orbital           11        12        13        14        15        16        17        18        19        20    
          Energy           -1.8015   -1.2202   -0.9625   -0.9625   -0.5549   -0.5549   -0.5344   -0.4687   -0.4687   -0.4441
          Occ. No.          1.0000    1.0000    1.0000    1.0000    0.0000    0.0000    0.0000    0.0000    0.0000    0.0000
 
        1 O1     1s        -0.0033   -0.0124    0.0000    0.0000   -0.0000   -0.0000    0.0117   -0.0000   -0.0000    0.0014
        2 O1     2s         0.9656   -0.1973    0.0000    0.0000   -0.0000   -0.0000    0.1443   -0.0000   -0.0000   -0.0234
        3 O1     3s        -0.0041    0.0031    0.0000    0.0000   -0.0000   -0.0000    0.0249   -0.0000   -0.0000    0.0066
        4 O1     2px        0.0000   -0.0000   -0.2445    0.6733   -0.5881    0.2135    0.0000    0.0000    0.0000    0.0000
        5 O1     3px       -0.0000    0.0000   -0.0054    0.0149   -0.0820    0.0298    0.0000    0.0000    0.0000   -0.0000
        6 O1     2py       -0.0000    0.0000    0.6733    0.2445   -0.2135   -0.5881   -0.0000   -0.0000    0.0000   -0.0000
        7 O1     3py        0.0000   -0.0000    0.0149    0.0054   -0.0298   -0.0820   -0.0000   -0.0000    0.0000    0.0000
        8 O1     2pz       -0.0710   -0.9184    0.0000    0.0000   -0.0000   -0.0000   -0.1429    0.0000    0.0000    0.1769
        9 O1     3pz       -0.0327    0.0504    0.0000    0.0000   -0.0000   -0.0000   -0.0204    0.0000    0.0000    0.0178
       10 O1     3d2-      -0.0000    0.0000    0.0000   -0.0000    0.0000   -0.0000   -0.0000    0.0041    0.0049   -0.0000
       11 O1     3d1-      -0.0000    0.0000   -0.0299   -0.0109   -0.0005   -0.0012   -0.0000   -0.0000    0.0000   -0.0000
       12 O1     3d0        0.0477    0.0191   -0.0000   -0.0000   -0.0000   -0.0000    0.0072    0.0000    0.0000    0.0135
       13 O1     3d1+       0.0000   -0.0000    0.0109   -0.0299   -0.0012    0.0005    0.0000    0.0000    0.0000    0.0000
       14 O1     3d2+      -0.0000    0.0000    0.0000    0.0000   -0.0000   -0.0000   -0.0000    0.0049   -0.0041   -0.0000
       15 FE2    1s        -0.0011   -0.0016    0.0000    0.0000   -0.0000   -0.0000   -0.0007    0.0000    0.0000    0.0005
       16 FE2    2s        -0.0084   -0.0117    0.0000    0.0000   -0.0000   -0.0000   -0.0046    0.0000    0.0000    0.0036
       17 FE2    3s        -0.0543   -0.0673    0.0000    0.0000   -0.0000   -0.0000   -0.0246    0.0000    0.0000    0.0196
       18 FE2    4s         0.0145    0.1021   -0.0000   -0.0000    0.0000    0.0000   -0.9627    0.0000    0.0000    0.1448
       19 FE2    5s        -0.0122   -0.0428    0.0000    0.0000   -0.0000   -0.0000    0.1875   -0.0000   -0.0000   -0.0159
       20 FE2    2px        0.0000    0.0000    0.0003   -0.0009    0.0010   -0.0004   -0.0000   -0.0000   -0.0000   -0.0000
       21 FE2    3px        0.0000    0.0000    0.0069   -0.0191    0.0278   -0.0101   -0.0000   -0.0000   -0.0000   -0.0000
       22 FE2    4px        0.0000   -0.0000   -0.0349    0.0962   -0.1127    0.0409    0.0000    0.0000    0.0000    0.0000
       23 FE2    5px        0.0000    0.0000    0.0019   -0.0053   -0.0054    0.0020    0.0000    0.0000    0.0000    0.0000
       24 FE2    2py       -0.0000   -0.0000   -0.0009   -0.0003    0.0004    0.0010    0.0000    0.0000   -0.0000    0.0000
       25 FE2    3py       -0.0000   -0.0000   -0.0191   -0.0069    0.0101    0.0278    0.0000    0.0000   -0.0000    0.0000
       26 FE2    4py       -0.0000    0.0000    0.0962    0.0349   -0.0409   -0.1127   -0.0000   -0.0000    0.0000   -0.0000
       27 FE2    5py       -0.0000   -0.0000   -0.0053   -0.0019   -0.0020   -0.0054   -0.0000   -0.0000    0.0000   -0.0000
       28 FE2    2pz       -0.0025   -0.0034    0.0000    0.0000   -0.0000   -0.0000   -0.0012    0.0000    0.0000    0.0010
       29 FE2    3pz       -0.0788   -0.0775    0.0000    0.0000   -0.0000   -0.0000   -0.0209    0.0000    0.0000    0.0207
       30 FE2    4pz        0.0279    0.0886   -0.0000   -0.0000    0.0000    0.0000    0.1936   -0.0000   -0.0000   -0.4972
       31 FE2    5pz       -0.0072   -0.0102    0.0000    0.0000   -0.0000   -0.0000    0.0106   -0.0000   -0.0000   -0.0389
       32 FE2    3d2-       0.0000    0.0000   -0.0000    0.0000    0.0000   -0.0000    0.0000    0.6246    0.7578   -0.0000
       33 FE2    4d2-      -0.0000    0.0000   -0.0000    0.0000    0.0000   -0.0000    0.0000    0.1188    0.1441   -0.0000
       34 FE2    3d1-      -0.0000    0.0000    0.5313    0.1929    0.2822    0.7771    0.0000    0.0000   -0.0000    0.0000
       35 FE2    4d1-      -0.0000    0.0000    0.0837    0.0304    0.0328    0.0904    0.0000    0.0000   -0.0000    0.0000
       36 FE2    3d0        0.0602    0.1674   -0.0000   -0.0000   -0.0000   -0.0000    0.2640    0.0000    0.0000    0.8315
       37 FE2    4d0        0.0154    0.0411   -0.0000   -0.0000   -0.0000   -0.0000    0.0540    0.0000    0.0000    0.1537
       38 FE2    3d1+       0.0000   -0.0000   -0.1929    0.5313    0.7771   -0.2822   -0.0000   -0.0000   -0.0000   -0.0000
       39 FE2    4d1+       0.0000   -0.0000   -0.0304    0.0837    0.0904   -0.0328   -0.0000   -0.0000   -0.0000   -0.0000
       40 FE2    3d2+       0.0000    0.0000   -0.0000   -0.0000   -0.0000   -0.0000    0.0000    0.7578   -0.6246   -0.0000
       41 FE2    4d2+      -0.0000    0.0000   -0.0000   -0.0000   -0.0000   -0.0000    0.0000    0.1441   -0.1188   -0.0000
       42 FE2    4f3-       0.0000   -0.0000    0.0000    0.0000   -0.0000   -0.0000   -0.0000    0.0000   -0.0000   -0.0000
       43 FE2    4f2-       0.0000    0.0000   -0.0000    0.0000    0.0000   -0.0000   -0.0000   -0.0012   -0.0014    0.0000
       44 FE2    4f1-      -0.0000    0.0000    0.0093    0.0034   -0.0026   -0.0072   -0.0000   -0.0000    0.0000    0.0000
       45 FE2    4f0        0.0048    0.0087   -0.0000   -0.0000    0.0000    0.0000    0.0019   -0.0000   -0.0000   -0.0035
       46 FE2    4f1+       0.0000   -0.0000   -0.0034    0.0093   -0.0072    0.0026    0.0000    0.0000    0.0000   -0.0000
       47 FE2    4f2+       0.0000    0.0000   -0.0000   -0.0000   -0.0000   -0.0000   -0.0000   -0.0014    0.0012    0.0000
       48 FE2    4f3+      -0.0000   -0.0000   -0.0000    0.0000   -0.0000    0.0000    0.0000   -0.0000   -0.0000    0.0000
 
          Orbital           21        22        23        24    
          Energy           -0.3586   -0.3586   -0.2333   -0.1942
          Occ. No.          0.0000    0.0000    0.0000    0.0000
 
        1 O1     1s        -0.0000   -0.0000   -0.0724   -0.0606
        2 O1     2s        -0.0000   -0.0000   -0.6355   -0.5419
        3 O1     3s        -0.0000   -0.0000   -0.1653   -0.1380
        4 O1     2px        0.1365   -0.3759   -0.0000   -0.0000
        5 O1     3px        0.0341   -0.0939   -0.0000   -0.0000
        6 O1     2py       -0.3759   -0.1365    0.0000    0.0000
        7 O1     3py       -0.0939   -0.0341    0.0000    0.0000
        8 O1     2pz       -0.0000   -0.0000    0.2689    0.5109
        9 O1     3pz       -0.0000   -0.0000    0.1110    0.2137
       10 O1     3d2-      -0.0000    0.0000    0.0000    0.0000
       11 O1     3d1-      -0.0055   -0.0020    0.0000    0.0000
       12 O1     3d0        0.0000    0.0000   -0.0150   -0.0061
       13 O1     3d1+       0.0020   -0.0055   -0.0000   -0.0000
       14 O1     3d2+      -0.0000   -0.0000    0.0000    0.0000
       15 FE2    1s        -0.0000   -0.0000    0.0024    0.0036
       16 FE2    2s        -0.0000   -0.0000    0.0176    0.0257
       17 FE2    3s        -0.0000   -0.0000    0.0921    0.1310
       18 FE2    4s        -0.0000   -0.0000    0.6194    0.3672
       19 FE2    5s        -0.0000   -0.0000    0.5503   -0.8824
       20 FE2    2px       -0.0002    0.0005    0.0000    0.0000
       21 FE2    3px       -0.0075    0.0205    0.0000    0.0000
       22 FE2    4px       -0.3560    0.9804    0.0000    0.0000
       23 FE2    5px       -0.0313    0.0862    0.0000    0.0000
       24 FE2    2py        0.0005    0.0002   -0.0000   -0.0000
       25 FE2    3py        0.0205    0.0075   -0.0000   -0.0000
       26 FE2    4py        0.9804    0.3560   -0.0000   -0.0000
       27 FE2    5py        0.0862    0.0313   -0.0000   -0.0000
       28 FE2    2pz       -0.0000   -0.0000    0.0037    0.0050
       29 FE2    3pz       -0.0000   -0.0000    0.0814    0.1030
       30 FE2    4pz        0.0000    0.0000    0.8674    0.7575
       31 FE2    5pz        0.0000    0.0000    0.0884    0.0893
       32 FE2    3d2-       0.0000   -0.0000   -0.0000   -0.0000
       33 FE2    4d2-       0.0000   -0.0000   -0.0000   -0.0000
       34 FE2    3d1-       0.1012    0.0367    0.0000    0.0000
       35 FE2    4d1-      -0.0151   -0.0055    0.0000    0.0000
       36 FE2    3d0        0.0000    0.0000    0.3932    0.3655
       37 FE2    4d0        0.0000    0.0000    0.0248    0.0204
       38 FE2    3d1+      -0.0367    0.1012   -0.0000   -0.0000
       39 FE2    4d1+       0.0055   -0.0151   -0.0000   -0.0000
       40 FE2    3d2+       0.0000    0.0000   -0.0000   -0.0000
       41 FE2    4d2+       0.0000    0.0000   -0.0000   -0.0000
       42 FE2    4f3-      -0.0000   -0.0000    0.0000    0.0000
       43 FE2    4f2-      -0.0000    0.0000    0.0000    0.0000
       44 FE2    4f1-      -0.0023   -0.0008    0.0000    0.0000
       45 FE2    4f0       -0.0000   -0.0000   -0.0077   -0.0078
       46 FE2    4f1+       0.0008   -0.0023   -0.0000   -0.0000
       47 FE2    4f2+      -0.0000   -0.0000    0.0000    0.0000
       48 FE2    4f3+       0.0000   -0.0000   -0.0000   -0.0000
--
 
 
++    Molecular charges:
      ------------------
 
      Mulliken charges per centre and basis function type
      ---------------------------------------------------
 
                            O1                      FE2   
                     alpha        beta       alpha        beta
      1s           1.0000      1.0000      1.0000      1.0000
      2s           0.9784      0.9761      1.0000      1.0000
      2px          0.9844      0.5818      1.0000      1.0000
      2pz          0.0165      0.8975      1.0000      1.0000
      2py          0.9844      0.5819      1.0000      1.0000
      3s          -0.0006      0.0002      0.9993      1.0000
      3px          0.0004      0.0025      0.9994      0.9996
      3pz          0.0006      0.0019      0.9989      0.9995
      3py          0.0004      0.0025      0.9994      0.9996
      4s           0.0000      0.0000      0.0011      0.0236
      3d2+        -0.0000      0.0000      0.9890      0.0000
      3d1+         0.0009      0.0039      0.9895      0.3599
      3d0          0.0013      0.0032      0.9848      0.0514
      3d1-         0.0009      0.0039      0.9895      0.3599
      3d2-        -0.0000      0.0000      0.9890      0.0000
      4px          0.0000      0.0000      0.0084      0.0267
      4pz          0.0000      0.0000      0.0053      0.0261
      4py          0.0000      0.0000      0.0084      0.0267
      5s           0.0000      0.0000      0.0004      0.0098
      4d2+         0.0000      0.0000      0.0110      0.0000
      4d1+         0.0000      0.0000      0.0166      0.0250
      4d0          0.0000      0.0000      0.0143      0.0083
      4d1-         0.0000      0.0000      0.0166      0.0250
      4d2-         0.0000      0.0000      0.0110      0.0000
      5px          0.0000      0.0000     -0.0002     -0.0002
      5pz          0.0000      0.0000     -0.0006      0.0012
      5py          0.0000      0.0000     -0.0002     -0.0002
      4f3+         0.0000      0.0000      0.0000      0.0000
      4f2+         0.0000      0.0000      0.0000      0.0000
      4f1+         0.0000      0.0000      0.0005      0.0007
      4f0          0.0000      0.0000      0.0004      0.0010
      4f1-         0.0000      0.0000      0.0005      0.0007
      4f2-         0.0000      0.0000      0.0000      0.0000
      4f3-         0.0000      0.0000      0.0000      0.0000
      Total        3.9675      4.0556     14.0325      9.9444
      Total              8.0231                 23.9769
 
      Charge           -0.0231                  2.0231
 
      Total electronic charge=   32.000000
 
      Total            charge=    2.000000
--
 
 
  Input file to MOLDEN was generated!
 
 
++    Static properties:
      ------------------
 
 
      LoProp Charges per center
 

                   O1       FE2   
      Nuclear      8.0000  26.0000
      Electronic  -8.1257 -23.8743
 
      Total       -0.1257   2.1257
--
 
 
++    Natural Bond Order analysis
      ---------------------------
      Based on LoProp computed density
      -------------------------------------------------------------------------------------
      Atom A       Atom B       Bond Order
        O1           FE2            1.982
      -------------------------------------------------------------------------------------
      NBO located     19.999 core electrons.
      NBO located      1.954 lone pair electrons.
      NBO located      3.964 electrons involved in    1 bonds.
      NBO located      0.917 non-bonded electrons on atom O1        
      NBO located      1.000 non-bonded electrons on atom FE2       
      NBO located      1.000 non-bonded electrons on atom FE2       
      The remaining    3.166 electrons are to be considered as diffuse
--
 
 
++    Molecular orbitals:
      -------------------
 
      Title: Natural orbitals

      Molecular orbitals for symmetry species 1: a  
 
          Orbital            1         2         3         4         5         6         7         8         9        10    
          Energy         -264.4416  -32.7186  -21.1132  -27.8235  -27.8227  -27.7565   -5.7195   -3.9947   -3.9956   -3.9135
          Occ. No.          2.0000    2.0000    2.0000    2.0000    2.0000    2.0000    2.0000    1.9999    1.9999    1.9999
 
        1 O1     1s        -0.0001   -0.0225    0.9797    0.0000    0.0000   -0.1553   -0.1201   -0.0000   -0.0000   -0.0276
        2 O1     2s         0.0000    0.0012   -0.0291   -0.0000   -0.0000   -0.0023   -0.0270   -0.0000   -0.0000   -0.1006
        3 O1     3s        -0.0000   -0.0001   -0.0003   -0.0000   -0.0000    0.0002    0.0008    0.0000    0.0000    0.0020
        4 O1     2px        0.0000    0.0000    0.0000   -0.0005    0.0014    0.0000   -0.0000    0.0079   -0.0218   -0.0000
        5 O1     3px       -0.0000   -0.0000   -0.0000    0.0001   -0.0002   -0.0000    0.0000   -0.0006    0.0015    0.0000
        6 O1     2py       -0.0000   -0.0000    0.0000    0.0014    0.0005    0.0000    0.0000   -0.0218   -0.0079    0.0000
        7 O1     3py        0.0000    0.0000    0.0000   -0.0002   -0.0001   -0.0000   -0.0000    0.0015    0.0006   -0.0000
        8 O1     2pz        0.0000   -0.0000    0.0031    0.0000    0.0000    0.0002    0.0027    0.0000    0.0000    0.0115
        9 O1     3pz       -0.0000    0.0000    0.0007    0.0000   -0.0000    0.0002    0.0000    0.0000    0.0000    0.0034
       10 O1     3d2-      -0.0000   -0.0000   -0.0000   -0.0000    0.0000    0.0000    0.0000   -0.0000    0.0000    0.0000
       11 O1     3d1-      -0.0000    0.0000    0.0000    0.0000    0.0000   -0.0000   -0.0000    0.0000    0.0000   -0.0000
       12 O1     3d0        0.0000   -0.0000   -0.0005   -0.0000   -0.0000    0.0001    0.0000   -0.0000   -0.0000   -0.0006
       13 O1     3d1+       0.0000   -0.0000    0.0000   -0.0000    0.0000    0.0000    0.0000   -0.0000    0.0000    0.0000
       14 O1     3d2+      -0.0000   -0.0000   -0.0000   -0.0000   -0.0000    0.0000    0.0000   -0.0000   -0.0000    0.0000
       15 FE2    1s         1.0000   -0.0000    0.0001    0.0000    0.0000    0.0000   -0.0001    0.0000    0.0000    0.0001
       16 FE2    2s         0.0000    0.9911    0.0356    0.0000    0.0000   -0.0184    0.1269    0.0000    0.0000    0.0024
       17 FE2    3s         0.0001   -0.1300    0.1202    0.0000    0.0000    0.0045    0.9832    0.0000    0.0000    0.0593
       18 FE2    4s         0.0000    0.0002   -0.0007   -0.0000   -0.0000   -0.0003   -0.0020   -0.0000   -0.0000   -0.0039
       19 FE2    5s        -0.0000   -0.0002    0.0006    0.0000    0.0000    0.0002    0.0023    0.0000    0.0000    0.0026
       20 FE2    2px        0.0000    0.0000    0.0000   -0.3381    0.9312    0.0000    0.0000   -0.0465    0.1281    0.0000
       21 FE2    3px       -0.0000   -0.0000   -0.0000    0.0465   -0.1281   -0.0000    0.0000   -0.3379    0.9307    0.0000
       22 FE2    4px        0.0000    0.0000    0.0000   -0.0005    0.0015    0.0000   -0.0000    0.0043   -0.0118   -0.0000
       23 FE2    5px        0.0000   -0.0000   -0.0000    0.0002   -0.0005   -0.0000    0.0000   -0.0016    0.0044    0.0000
       24 FE2    2py       -0.0000   -0.0000   -0.0000    0.9312    0.3381    0.0000   -0.0000    0.1280    0.0465   -0.0000
       25 FE2    3py        0.0000    0.0000    0.0000   -0.1279   -0.0465   -0.0000   -0.0000    0.9307    0.3379   -0.0000
       26 FE2    4py       -0.0000   -0.0000   -0.0000    0.0015    0.0005    0.0000    0.0000   -0.0118   -0.0043    0.0000
       27 FE2    5py       -0.0000    0.0000    0.0000   -0.0005   -0.0002   -0.0000   -0.0000    0.0044    0.0016   -0.0000
       28 FE2    2pz        0.0000   -0.0148   -0.1507    0.0000    0.0000   -0.9805    0.0135    0.0000    0.0000    0.1248
       29 FE2    3pz       -0.0000    0.0069    0.0380   -0.0000   -0.0000    0.1194   -0.0613    0.0000    0.0000    0.9898
       30 FE2    4pz        0.0000    0.0001   -0.0011   -0.0000    0.0000   -0.0012   -0.0012   -0.0000   -0.0000   -0.0124
       31 FE2    5pz        0.0000   -0.0001    0.0005    0.0000   -0.0000    0.0005    0.0011    0.0000    0.0000    0.0048
       32 FE2    3d2-       0.0000   -0.0000   -0.0000    0.0000   -0.0000   -0.0000    0.0000    0.0000   -0.0000   -0.0000
       33 FE2    4d2-       0.0000   -0.0000    0.0000    0.0000   -0.0000    0.0000    0.0000   -0.0000    0.0000    0.0000
       34 FE2    3d1-      -0.0000   -0.0000    0.0000    0.0028    0.0010    0.0000    0.0000   -0.0300   -0.0109    0.0000
       35 FE2    4d1-      -0.0000    0.0000   -0.0000    0.0001    0.0000    0.0000    0.0000   -0.0009   -0.0003    0.0000
       36 FE2    3d0        0.0000    0.0002   -0.0025   -0.0000   -0.0000   -0.0013   -0.0032   -0.0000   -0.0000   -0.0171
       37 FE2    4d0        0.0000   -0.0000   -0.0002   -0.0000    0.0000   -0.0001    0.0004   -0.0000   -0.0000   -0.0015
       38 FE2    3d1+       0.0000    0.0000    0.0000   -0.0010    0.0028    0.0000   -0.0000    0.0109   -0.0300   -0.0000
       39 FE2    4d1+       0.0000   -0.0000    0.0000   -0.0000    0.0001    0.0000   -0.0000    0.0003   -0.0009   -0.0000
       40 FE2    3d2+       0.0000   -0.0000   -0.0000    0.0000    0.0000   -0.0000    0.0000    0.0000    0.0000   -0.0000
       41 FE2    4d2+       0.0000   -0.0000    0.0000    0.0000    0.0000    0.0000    0.0000   -0.0000   -0.0000    0.0000
       42 FE2    4f3-      -0.0000   -0.0000   -0.0000    0.0000    0.0000    0.0000    0.0000   -0.0000   -0.0000    0.0000
       43 FE2    4f2-       0.0000    0.0000    0.0000    0.0000   -0.0000    0.0000   -0.0000   -0.0000    0.0000    0.0000
       44 FE2    4f1-      -0.0000   -0.0000    0.0000    0.0000    0.0000    0.0000    0.0000    0.0002    0.0001   -0.0000
       45 FE2    4f0        0.0000   -0.0000   -0.0002    0.0000    0.0000   -0.0003    0.0002   -0.0000   -0.0000   -0.0040
       46 FE2    4f1+       0.0000    0.0000    0.0000   -0.0000    0.0000    0.0000   -0.0000   -0.0001    0.0002    0.0000
       47 FE2    4f2+       0.0000    0.0000    0.0000    0.0000    0.0000    0.0000   -0.0000   -0.0000   -0.0000    0.0000
       48 FE2    4f3+       0.0000   -0.0000    0.0000   -0.0000    0.0000   -0.0000   -0.0000    0.0000   -0.0000   -0.0000
 
          Orbital           11        12        13        14        15        16        17        18        19        20    
          Energy           -1.8375   -1.1142   -1.1142   -0.9935   -0.9357   -0.9357   -0.9146   -0.9146   -0.7404    0.1398
          Occ. No.          1.9969    1.9821    1.9821    1.2675    1.0000    1.0000    1.0000    1.0000    0.7325    0.0179
 
        1 O1     1s         0.0201    0.0000    0.0000   -0.0154    0.0000    0.0000    0.0000    0.0000   -0.0002    0.0000
        2 O1     2s         0.9615    0.0000    0.0000   -0.2627    0.0000    0.0000    0.0000    0.0000   -0.0369    0.0000
        3 O1     3s        -0.0081    0.0000    0.0000   -0.0185    0.0000    0.0000    0.0000    0.0000    0.0298    0.0000
        4 O1     2px        0.0000   -0.2564    0.7060   -0.0000   -0.0000   -0.0000    0.2072   -0.5708   -0.0000   -0.3160
        5 O1     3px       -0.0000    0.0060   -0.0165    0.0000    0.0000    0.0000   -0.0042    0.0116    0.0000    0.3319
        6 O1     2py       -0.0000    0.7060    0.2564    0.0000    0.0000   -0.0000   -0.5708   -0.2073    0.0000   -0.1148
        7 O1     3py        0.0000   -0.0165   -0.0060   -0.0000   -0.0000    0.0000    0.0116    0.0042   -0.0000    0.1205
        8 O1     2pz       -0.1088    0.0000    0.0000   -0.5865    0.0000    0.0000   -0.0000   -0.0000   -0.7410   -0.0000
        9 O1     3pz       -0.0207   -0.0000   -0.0000    0.0467   -0.0000   -0.0000    0.0000    0.0000    0.0238    0.0000
       10 O1     3d2-      -0.0000    0.0000   -0.0000    0.0000   -0.0003    0.0002    0.0000   -0.0000    0.0000   -0.0000
       11 O1     3d1-       0.0000   -0.0254   -0.0092   -0.0000   -0.0000    0.0000    0.0159    0.0058   -0.0000   -0.0177
       12 O1     3d0        0.0137   -0.0000   -0.0000    0.0163   -0.0000   -0.0000    0.0000    0.0000    0.0075    0.0000
       13 O1     3d1+      -0.0000    0.0092   -0.0254    0.0000    0.0000    0.0000   -0.0058    0.0159    0.0000   -0.0487
       14 O1     3d2+      -0.0000    0.0000    0.0000    0.0000   -0.0002   -0.0003    0.0000    0.0000    0.0000    0.0000
       15 FE2    1s        -0.0010    0.0000    0.0000   -0.0008   -0.0000   -0.0000   -0.0000   -0.0000   -0.0016    0.0000
       16 FE2    2s        -0.0041    0.0000    0.0000   -0.0055   -0.0000   -0.0000   -0.0000   -0.0000   -0.0114    0.0000
       17 FE2    3s        -0.0091    0.0000    0.0000   -0.0294   -0.0000   -0.0000   -0.0000   -0.0000   -0.0631   -0.0000
       18 FE2    4s         0.0119   -0.0000   -0.0000    0.0742   -0.0000   -0.0000    0.0000    0.0000    0.0702   -0.0000
       19 FE2    5s        -0.0115    0.0000    0.0000   -0.0259    0.0000    0.0000   -0.0000   -0.0000   -0.0359    0.0000
       20 FE2    2px       -0.0000   -0.0005    0.0015    0.0000    0.0000    0.0000   -0.0003    0.0007    0.0000   -0.0009
       21 FE2    3px       -0.0000   -0.0080    0.0221    0.0000   -0.0000    0.0000   -0.0084    0.0231    0.0000   -0.0113
       22 FE2    4px        0.0000   -0.0220    0.0606   -0.0000    0.0000   -0.0000    0.0086   -0.0236   -0.0000    0.3771
       23 FE2    5px       -0.0000    0.0011   -0.0030   -0.0000   -0.0000    0.0000   -0.0034    0.0094    0.0000   -0.0254
       24 FE2    2py        0.0000    0.0015    0.0005   -0.0000   -0.0000    0.0000    0.0007    0.0003   -0.0000   -0.0003
       25 FE2    3py        0.0000    0.0221    0.0080   -0.0000   -0.0000    0.0000    0.0231    0.0084   -0.0000   -0.0041
       26 FE2    4py       -0.0000    0.0606    0.0220    0.0000    0.0000   -0.0000   -0.0236   -0.0086    0.0000    0.1369
       27 FE2    5py        0.0000   -0.0030   -0.0011    0.0000   -0.0000    0.0000    0.0094    0.0034   -0.0000   -0.0092
       28 FE2    2pz        0.0045    0.0000    0.0000   -0.0014    0.0000    0.0000   -0.0000   -0.0000   -0.0029   -0.0000
       29 FE2    3pz        0.0536    0.0000    0.0000   -0.0232   -0.0000   -0.0000   -0.0000   -0.0000   -0.0638   -0.0000
       30 FE2    4pz        0.0210   -0.0000   -0.0000    0.0620   -0.0000   -0.0000    0.0000    0.0000    0.0629   -0.0000
       31 FE2    5pz       -0.0069    0.0000    0.0000   -0.0014   -0.0000   -0.0000   -0.0000   -0.0000   -0.0146    0.0000
       32 FE2    3d2-       0.0000   -0.0000    0.0000    0.0000    0.7547   -0.6477    0.0000    0.0000   -0.0000   -0.0000
       33 FE2    4d2-      -0.0000   -0.0000    0.0000   -0.0000   -0.0795    0.0682   -0.0000   -0.0000    0.0000    0.0000
       34 FE2    3d1-      -0.0000    0.5315    0.1930    0.0000   -0.0000    0.0000    0.7758    0.2817   -0.0000    0.0052
       35 FE2    4d1-      -0.0000    0.0232    0.0084   -0.0000    0.0000   -0.0000   -0.0862   -0.0313    0.0000    0.2328
       36 FE2    3d0        0.0655   -0.0000   -0.0000    0.7299   -0.0000   -0.0000   -0.0000   -0.0000   -0.6874   -0.0000
       37 FE2    4d0        0.0086   -0.0000   -0.0000   -0.0317    0.0000    0.0000    0.0000    0.0000    0.1087   -0.0000
       38 FE2    3d1+       0.0000   -0.1930    0.5315   -0.0000   -0.0000    0.0000   -0.2817    0.7758    0.0000    0.0142
       39 FE2    4d1+       0.0000   -0.0084    0.0232    0.0000    0.0000   -0.0000    0.0313   -0.0862   -0.0000    0.6411
       40 FE2    3d2+       0.0000   -0.0000   -0.0000    0.0000    0.6477    0.7547   -0.0000   -0.0000   -0.0000    0.0000
       41 FE2    4d2+      -0.0000   -0.0000   -0.0000   -0.0000   -0.0682   -0.0795    0.0000    0.0000    0.0000   -0.0000
       42 FE2    4f3-       0.0000   -0.0000   -0.0000    0.0000    0.0000    0.0000   -0.0000   -0.0000    0.0000    0.0000
       43 FE2    4f2-       0.0000   -0.0000    0.0000    0.0000   -0.0015    0.0013   -0.0000   -0.0000    0.0000    0.0000
       44 FE2    4f1-      -0.0000    0.0064    0.0023    0.0000    0.0000   -0.0000   -0.0051   -0.0019    0.0000    0.0115
       45 FE2    4f0        0.0043   -0.0000   -0.0000    0.0045   -0.0000   -0.0000    0.0000    0.0000    0.0080   -0.0000
       46 FE2    4f1+       0.0000   -0.0023    0.0064   -0.0000   -0.0000   -0.0000    0.0019   -0.0051   -0.0000    0.0317
       47 FE2    4f2+       0.0000   -0.0000   -0.0000    0.0000   -0.0013   -0.0015    0.0000    0.0000    0.0000   -0.0000
       48 FE2    4f3+      -0.0000    0.0000   -0.0000   -0.0000   -0.0000    0.0000    0.0000   -0.0000   -0.0000    0.0000
 
          Orbital           21        22        23        24        25        26        27        28        29        30    
          Energy            0.1398    1.2657    1.4452    1.3223    1.3223    0.0598    1.8171    1.8171    1.0802    1.8164
          Occ. No.          0.0179    0.0031    0.0001    0.0001    0.0001    0.0000    0.0000    0.0000    0.0000    0.0000
 
        1 O1     1s         0.0000   -0.0271    0.0278   -0.0000   -0.0000    0.0620    0.0000    0.0000   -0.0547    0.1500
        2 O1     2s         0.0000   -0.2277    0.3070   -0.0000   -0.0000    0.5651    0.0000    0.0000   -0.3863    1.1729
        3 O1     3s         0.0000    0.1068    0.1319   -0.0000   -0.0000    0.3605   -0.0000   -0.0000    0.0015    0.9364
        4 O1     2px        0.1148   -0.0000    0.0000   -0.0889    0.0323   -0.0000   -0.2725    0.0990    0.0000   -0.0000
        5 O1     3px       -0.1205   -0.0000    0.0000   -0.2423    0.0880    0.0000   -0.6301    0.2289    0.0000   -0.0000
        6 O1     2py       -0.3160    0.0000   -0.0000   -0.0323   -0.0889    0.0000   -0.0990   -0.2725   -0.0000    0.0000
        7 O1     3py        0.3319    0.0000   -0.0000   -0.0880   -0.2423   -0.0000   -0.2289   -0.6301   -0.0000    0.0000
        8 O1     2pz       -0.0000    0.1491   -0.3398    0.0000    0.0000   -0.5536    0.0000    0.0000   -0.0272   -0.5280
        9 O1     3pz        0.0000   -0.2482   -0.1868    0.0000    0.0000   -0.3219    0.0000    0.0000   -0.3860   -0.0952
       10 O1     3d2-       0.0000   -0.0000   -0.0000    0.0000   -0.0000   -0.0000    0.0000   -0.0000    0.0000    0.0000
       11 O1     3d1-      -0.0487   -0.0000   -0.0000   -0.0054   -0.0148   -0.0000   -0.0414   -0.1141   -0.0000   -0.0000
       12 O1     3d0        0.0000    0.8739    0.3564   -0.0000   -0.0000    0.4255    0.0000    0.0000   -0.0601    0.3712
       13 O1     3d1+       0.0177    0.0000    0.0000   -0.0148    0.0054    0.0000   -0.1141    0.0414    0.0000    0.0000
       14 O1     3d2+       0.0000   -0.0000   -0.0000   -0.0000   -0.0000   -0.0000   -0.0000   -0.0000    0.0000    0.0000
       15 FE2    1s         0.0000   -0.0036   -0.0036    0.0000    0.0000   -0.0061    0.0000    0.0000   -0.0027   -0.0064
       16 FE2    2s         0.0000   -0.0264   -0.0259    0.0000    0.0000   -0.0444    0.0000    0.0000   -0.0188   -0.0466
       17 FE2    3s        -0.0000   -0.1270   -0.1325    0.0000    0.0000   -0.2253    0.0000    0.0000   -0.0767   -0.2470
       18 FE2    4s        -0.0000    0.1559   -0.1832    0.0000    0.0000   -1.1147    0.0000    0.0000   -0.0295   -0.8668
       19 FE2    5s         0.0000   -0.0531    0.0915   -0.0000   -0.0000    0.8357   -0.0000   -0.0000    0.1035   -0.1079
       20 FE2    2px        0.0003    0.0000   -0.0000    0.0010   -0.0004   -0.0000    0.0022   -0.0008   -0.0000    0.0000
       21 FE2    3px        0.0041    0.0000   -0.0000    0.0243   -0.0088    0.0000    0.0429   -0.0156   -0.0000    0.0000
       22 FE2    4px       -0.1369    0.0000   -0.0000    0.4818   -0.1749    0.0000    0.5617   -0.2040   -0.0000    0.0000
       23 FE2    5px        0.0092    0.0000    0.0000   -0.7024    0.2550    0.0000    0.6403   -0.2326   -0.0000   -0.0000
       24 FE2    2py       -0.0009   -0.0000    0.0000    0.0004    0.0010    0.0000    0.0008    0.0022    0.0000   -0.0000
       25 FE2    3py       -0.0113   -0.0000    0.0000    0.0088    0.0243   -0.0000    0.0156    0.0429    0.0000   -0.0000
       26 FE2    4py        0.3771   -0.0000    0.0000    0.1749    0.4818   -0.0000    0.2040    0.5617    0.0000   -0.0000
       27 FE2    5py       -0.0254   -0.0000   -0.0000   -0.2550   -0.7024   -0.0000    0.2326    0.6403    0.0000    0.0000
       28 FE2    2pz       -0.0000   -0.0061   -0.0058    0.0000    0.0000   -0.0096    0.0000    0.0000   -0.0018   -0.0119
       29 FE2    3pz       -0.0000   -0.0886   -0.1113    0.0000    0.0000   -0.1751    0.0000    0.0000   -0.0118   -0.2284
       30 FE2    4pz       -0.0000    0.2417   -0.7559    0.0000    0.0000   -0.3626   -0.0000   -0.0000    0.6254   -0.9317
       31 FE2    5pz        0.0000   -0.0236    0.7730   -0.0000   -0.0000    0.0813   -0.0000   -0.0000    0.7432    0.0180
       32 FE2    3d2-       0.0000    0.0000   -0.0000   -0.0000    0.0000    0.0000   -0.0000    0.0000    0.0000   -0.0000
       33 FE2    4d2-      -0.0000    0.0000   -0.0000   -0.0000    0.0000    0.0000    0.0000   -0.0000    0.0000   -0.0000
       34 FE2    3d1-       0.0142   -0.0000    0.0000    0.0069    0.0190   -0.0000    0.0256    0.0706    0.0000   -0.0000
       35 FE2    4d1-       0.6411   -0.0000   -0.0000   -0.0354   -0.0974   -0.0000    0.0627    0.1725    0.0000   -0.0000
       36 FE2    3d0       -0.0000   -0.0246   -0.1121    0.0000    0.0000   -0.1783   -0.0000   -0.0000    0.0684   -0.3539
       37 FE2    4d0       -0.0000    0.2100   -0.0429    0.0000    0.0000   -0.0987   -0.0000   -0.0000    0.1994   -1.1922
       38 FE2    3d1+      -0.0052    0.0000   -0.0000    0.0190   -0.0069    0.0000    0.0706   -0.0256   -0.0000    0.0000
       39 FE2    4d1+      -0.2328    0.0000    0.0000   -0.0974    0.0354    0.0000    0.1725   -0.0627   -0.0000    0.0000
       40 FE2    3d2+       0.0000    0.0000   -0.0000    0.0000    0.0000    0.0000   -0.0000    0.0000    0.0000   -0.0000
       41 FE2    4d2+      -0.0000    0.0000   -0.0000    0.0000    0.0000    0.0000   -0.0000   -0.0000    0.0000   -0.0000
       42 FE2    4f3-       0.0000   -0.0000    0.0000    0.0000    0.0000    0.0000    0.0000    0.0000    0.0000    0.0000
       43 FE2    4f2-      -0.0000    0.0000   -0.0000    0.0000   -0.0000    0.0000    0.0000   -0.0000    0.0000    0.0000
       44 FE2    4f1-       0.0317   -0.0000    0.0000    0.1303    0.3590   -0.0000    0.2041    0.5618    0.0000   -0.0000
       45 FE2    4f0       -0.0000    0.0015    0.2906   -0.0000   -0.0000   -0.1439    0.0000    0.0000   -0.3650   -0.4892
       46 FE2    4f1+      -0.0115    0.0000   -0.0000    0.3590   -0.1303    0.0000    0.5618   -0.2041   -0.0000    0.0000
       47 FE2    4f2+      -0.0000    0.0000   -0.0000   -0.0000   -0.0000    0.0000   -0.0000   -0.0000    0.0000    0.0000
       48 FE2    4f3+      -0.0000   -0.0000   -0.0000    0.0000   -0.0000   -0.0000    0.0000   -0.0000   -0.0000   -0.0000
 
          Orbital           31        32        33        34        35        36        37        38        39        40    
          Energy            0.7238    0.9064    0.6505    0.6659    0.9746    0.3172    0.5336    0.9908    1.1968    0.3553
          Occ. No.          0.0000    0.0000    0.0000    0.0000    0.0000    0.0000    0.0000    0.0000    0.0000    0.0000
 
        1 O1     1s        -0.0780   -0.0099    0.0000   -0.0000    0.0448    0.1003   -0.0001    0.0000   -0.0001   -0.0001
        2 O1     2s        -0.6464   -0.1239    0.0001   -0.0001    0.4132    0.8494   -0.0006    0.0002   -0.0005   -0.0005
        3 O1     3s        -1.3370   -0.5084    0.0001   -0.0001    0.6403    0.6761   -0.0005    0.0002   -0.0004   -0.0005
        4 O1     2px        0.0000   -0.0000    0.0107   -0.0261   -0.0000    0.0000   -0.1231   -0.2270    0.1001    0.0081
        5 O1     3px        0.0000   -0.0000    0.0372   -0.0905    0.0000    0.0001   -0.4353   -0.8024    0.3551    0.0276
        6 O1     2py       -0.0000    0.0000   -0.0294   -0.0095   -0.0000   -0.0002   -0.0489   -0.0875   -0.2523   -0.0387
        7 O1     3py       -0.0000    0.0000   -0.1025   -0.0331   -0.0001   -0.0007   -0.1737   -0.3105   -0.8977   -0.1263
        8 O1     2pz        0.3506   -0.0381   -0.0000    0.0000   -0.1397   -0.5509    0.0004   -0.0001    0.0003    0.0003
        9 O1     3pz        0.3699   -0.1030   -0.0001    0.0001   -0.0167   -1.3837    0.0009   -0.0004    0.0008    0.0009
       10 O1     3d2-      -0.0000   -0.0000   -0.0000   -0.0000    0.0000   -0.0003   -0.0104    0.0052   -0.0055    0.0569
       11 O1     3d1-      -0.0000    0.0000   -0.0858   -0.0309   -0.0000    0.0001   -0.0122   -0.0213   -0.0685    0.0257
       12 O1     3d0        0.0352    0.0629    0.0000   -0.0000   -0.0074    0.0341   -0.0000    0.0000   -0.0000   -0.0000
       13 O1     3d1+       0.0000   -0.0000    0.0312   -0.0852    0.0000    0.0002   -0.0251   -0.0457    0.0235   -0.0022
       14 O1     3d2+      -0.0000    0.0000   -0.0000    0.0000    0.0000   -0.0003    0.0480   -0.0252    0.0012   -0.0026
       15 FE2    1s         0.0081    0.0007   -0.0000    0.0000   -0.0027   -0.0146    0.0000   -0.0000    0.0000    0.0000
       16 FE2    2s         0.0588    0.0049   -0.0000    0.0000   -0.0196   -0.1047    0.0001   -0.0000    0.0001    0.0001
       17 FE2    3s         0.2896    0.0279   -0.0000    0.0000   -0.1022   -0.4876    0.0003   -0.0001    0.0003    0.0003
       18 FE2    4s         0.4708    0.6738   -0.0001    0.0001   -0.5606   -1.2111    0.0008   -0.0003    0.0007    0.0008
       19 FE2    5s        -0.5312    0.4688    0.0000   -0.0000   -0.3090    0.2411   -0.0001    0.0001   -0.0001   -0.0001
       20 FE2    2px       -0.0000    0.0000   -0.0001    0.0002    0.0000    0.0000    0.0017    0.0031   -0.0013   -0.0001
       21 FE2    3px       -0.0000    0.0000    0.0005   -0.0023   -0.0000    0.0000    0.0310    0.0572   -0.0252   -0.0021
       22 FE2    4px       -0.0000    0.0000    0.2207   -0.6139   -0.0000   -0.0001    0.2068    0.3813   -0.1710   -0.0141
       23 FE2    5px        0.0000    0.0000    0.0637   -0.1760   -0.0000   -0.0000    0.0182    0.0336   -0.0155   -0.0014
       24 FE2    2py        0.0000    0.0000    0.0002    0.0001    0.0000    0.0000    0.0007    0.0012    0.0034    0.0005
       25 FE2    3py        0.0000    0.0000   -0.0015   -0.0008    0.0000    0.0001    0.0123    0.0220    0.0633    0.0104
       26 FE2    4py        0.0000   -0.0000   -0.6081   -0.2227    0.0000    0.0004    0.0823    0.1471    0.4319    0.0666
       27 FE2    5py       -0.0000   -0.0000   -0.1755   -0.0639    0.0000    0.0000    0.0072    0.0129    0.0392    0.0070
       28 FE2    2pz        0.0119    0.0017   -0.0000    0.0000   -0.0048   -0.0167    0.0000   -0.0000    0.0000    0.0000
       29 FE2    3pz        0.2063    0.0287   -0.0000    0.0000   -0.0925   -0.2705    0.0002   -0.0001    0.0002    0.0002
       30 FE2    4pz        0.8191   -0.1219   -0.0001    0.0001   -0.7453   -0.8635    0.0006   -0.0002    0.0005    0.0006
       31 FE2    5pz        0.0861   -0.0163   -0.0000    0.0000   -0.1168   -0.0234    0.0000   -0.0000    0.0000    0.0000
       32 FE2    3d2-       0.0000    0.0000   -0.0000    0.0000    0.0000    0.0001   -0.0132    0.0051   -0.0120    0.1008
[...]
--
 
--
 
 
  Input file to MOLDEN was generated!
 
 
  Input file to MOLDEN was generated!
 
      Average orbitals are written to the RASORB file
      Natural orbitals for root   1 are written to the RASORB.1 file
      Spin density orbitals for root   1 are written to the SPDORB.1 file
 
--- Stop Module: rasscf at Mon Dec 23 17:22:34 2024 /rc=_RC_ALL_IS_WELL_ ---
*** files: 1.84.LprOrb 1.84.rasscf.molden 1.84.rasscf.molden.1 1.84.LoProp.molden 1.84.RasOrb 1.84.RasOrb.1 1.84.rasscf.h5 1.84.SpdOrb.1 xmldump
    saved to directory /home/grierjones/DDCASPT2/iron_oxo_DDCASPT2/cluster/1.84
--- Module rasscf spent 12 minutes 39 seconds ---

>>> COPY /tmp/1.84/1.84.rasscf.h5 /home/grierjones/DDCASPT2/iron_oxo_DDCASPT2/cluster/1.84/

>>> COPY /tmp/1.84/GMJ_Fock_MO.csv /home/grierjones/DDCASPT2/iron_oxo_DDCASPT2/cluster/1.84/1.84.GMJ_Fock_MO.csv

>>> COPY /tmp/1.84/GMJ_PT2_Fock_MO.csv /home/grierjones/DDCASPT2/iron_oxo_DDCASPT2/cluster/1.84/1.84.GMJ_PT2_Fock_MO.csv

*** symbolic link created: INPORB -> 1.84.RasOrb
--- Start Module: motra at Mon Dec 23 17:22:34 2024 ---
 
()()()()()()()()()()()()()()()()()()()()()()()()()()()()()()()()()()()()()()()()()()()()()()()()()()

                                               &MOTRA

                                   only a single process is used
                       available to each process: 2.0 GB of memory, 1 thread?
()()()()()()()()()()()()()()()()()()()()()()()()()()()()()()()()()()()()()()()()()()()()()()()()()()
 
 
      *** WARNING: Default frozen orbitals is overwritten by user input.
      *** Default values:   7
 
      Header of the integral files:
      
       Integrals generated by seward 4.2.0  , Mon Dec 23 17:09:53 2024
 
 
      Header of MO coefficients source file:
      * RASSCF average (pseudo-natural) orbitals                                      
 
 
      Cartesian coordinates in Angstrom:
      -----------------------------------------------------
      No.  Label        X            Y            Z        
      -----------------------------------------------------
       1   O1         0.00000000   0.00000000   1.71824000
       2   FE2        0.00000000   0.00000000  -0.11824000
      -----------------------------------------------------
      Nuclear repulsion energy =   59.93469018
 
      Orbital specifications:
      -----------------------
 
      Symmetry species:              1
      Number of basis functions:    48
      Frozen orbitals:               0
      Deleted orbitals:              0
      Number of orbitals used:      48

       SYMMETRY  BASIS FUNCTIONS       ORBITALS      INTEGRALS   CPU(SEC)  I/O(SEC)
 
        1 1 1 1   48  48  48  48    48  48  48  48      692076       0.00      0.00

       TOTAL CPU TIME(SEC)    0.33TOTAL I/O TIME(SEC)    0.86
 
--- Stop Module: motra at Mon Dec 23 17:22:35 2024 /rc=_RC_ALL_IS_WELL_ ---
*** files: xmldump
    saved to directory /home/grierjones/DDCASPT2/iron_oxo_DDCASPT2/cluster/1.84

>>> COPY /tmp/1.84/GMJ_one_int_indx.csv /home/grierjones/DDCASPT2/iron_oxo_DDCASPT2/cluster/1.84/1.84.GMJ_one_int_indx.csv

>>> COPY /tmp/1.84/GMJ_one_int.csv /home/grierjones/DDCASPT2/iron_oxo_DDCASPT2/cluster/1.84/1.84.GMJ_one_int.csv

>>> COPY /tmp/1.84/GMJ_two_int_indx.csv /home/grierjones/DDCASPT2/iron_oxo_DDCASPT2/cluster/1.84/1.84.GMJ_two_int_indx.csv

>>> COPY /tmp/1.84/GMJ_two_int.csv /home/grierjones/DDCASPT2/iron_oxo_DDCASPT2/cluster/1.84/1.84.GMJ_two_int.csv

*** symbolic link created: INPORB -> 1.84.RasOrb
--- Start Module: caspt2 at Mon Dec 23 17:22:35 2024 ---
 
()()()()()()()()()()()()()()()()()()()()()()()()()()()()()()()()()()()()()()()()()()()()()()()()()()

                                              &CASPT2

                                   only a single process is used
                       available to each process: 2.0 GB of memory, 1 thread?
()()()()()()()()()()()()()()()()()()()()()()()()()()()()()()()()()()()()()()()()()()()()()()()()()()
 
 Cholesky algorithm in CASPT2 =    1
 
 ###############################################################################
 ###############################################################################
 ###                                                                         ###
 ###                                                                         ###
 ###    User changed nr of frozen orbitals.                                  ###
 ###                                                                         ###
 ###                                                                         ###
 ###############################################################################
 ###############################################################################
 
++    Wave function specifications:
      -----------------------------
 
      Number of closed shell electrons          22
      Number of electrons in active shells      10
      Max number of holes in RAS1 space          0
      Max number of electrons in RAS3 space      0
      Number of inactive orbitals               11
      Number of active orbitals                 14
      Number of secondary orbitals              23
      Spin quantum number                      2.0
      State symmetry                             1
      Number of CSFs                        975975
      Number of root(s) available                1
      Root passed to geometry opt.               1
      A file JOBMIX will be created.
      This is a CASSCF or RASSCF reference function
--
 
++    Orbital specifications:
      -----------------------
 
      Symmetry species                           1
                                                 a
      Frozen orbitals                            0
      Inactive orbitals                         11
      Active orbitals                           14
      Secondary orbitals                        23
      Deleted orbitals                           0
      Number of basis functions                 48
--
 
      Type of Fock operator: STANDARD
      Type of 0-order Hamiltonian: STANDARD WITH DEFAULT IPEA
        "IP-EA" denominator shift =      0.25
      The input orbitals and the CI vector will be transformed.
 
--------------------------------------------------------------------------------
 Estimated memory requirements:
  POLY3 :                227658189
  RHS:                     4146972
  SIGMA :                   646704
  PRPCTL:                        0
 Available workspace:    229020647
 
++ CASPT2 computation for group   1
 
********************************************************************************
 Multi-State initialization phase begins for group   1
--------------------------------------------------------------------------------
********************************************************************************
 Compute H0 matrices for state    1
--------------------------------------------------------------------------------
--------------------------------------------------------------------------------
 H0 matrices have been computed.
 
********************************************************************************
  CASPT2 EQUATION SOLUTION
--------------------------------------------------------------------------------
 
  Total nr of CASPT2 parameters:
   Before reduction:      408969
   After  reduction:      408969
 
 The contributions to the second order correlation energy in atomic units.
-----------------------------------------------------------------------------------------------------------------------------
  IT.      VJTU        VJTI        ATVX        AIVX        VJAI        BVAT        BJAT        BJAI        TOTAL       RNORM  
-----------------------------------------------------------------------------------------------------------------------------
   1    -0.007083   -0.031368   -0.019197   -0.179887   -0.018614   -0.078784   -0.018879   -0.043076   -0.396888    0.010466
   2    -0.007130   -0.031425   -0.019442   -0.180392   -0.018652   -0.078995   -0.018994   -0.043133   -0.398163    0.001787
   3    -0.007134   -0.031432   -0.019461   -0.180450   -0.018658   -0.079005   -0.019009   -0.043138   -0.398286    0.000306
   4    -0.007133   -0.031431   -0.019459   -0.180436   -0.018659   -0.078999   -0.019007   -0.043136   -0.398260    0.000059
   5    -0.007133   -0.031431   -0.019459   -0.180434   -0.018659   -0.078998   -0.019007   -0.043136   -0.398256    0.000012
   6    -0.007133   -0.031431   -0.019459   -0.180434   -0.018659   -0.078998   -0.019007   -0.043136   -0.398257    0.000002
-------------------------------------------------------------------------------------------------------------------
 
  FINAL CASPT2 RESULT:
 
  Correlation energy /Case, /Symm, and sums:
 VJTU     -0.00713332 -0.00713332
 VJTIP    -0.01168137 -0.01168137
 VJTIM    -0.01974938 -0.01974938
 ATVX     -0.01945946 -0.01945946
 AIVX     -0.18043418 -0.18043418
 VJAIP    -0.01444596 -0.01444596
 VJAIM    -0.00421255 -0.00421255
 BVATP    -0.02347047 -0.02347047
 BVATM    -0.05552789 -0.05552789
 BJATP    -0.01155550 -0.01155550
 BJATM    -0.00745117 -0.00745117
 BJAIP    -0.02923096 -0.02923096
 BJAIM    -0.01390474 -0.01390474
 Summed:  -0.39825696 -0.39825696
 
      Reference energy:       -1345.4773064506
      E2 (Non-variational):      -0.3982569613
      E2 (Variational):          -0.3982569358
      Total energy:           -1345.8755633864
      Residual norm:              0.0000003896
      Reference weight:           0.93721
 
      Contributions to the CASPT2 correlation energy
      Active & Virtual Only:         -0.0984578141
      One Inactive Excited:          -0.2065741752
      Two Inactive Excited:          -0.0932249720
 
 
++ Denominators, etc.
----------------------------------------------------------------------------------------------------
 Report on small energy denominators, large coefficients, and large energy contributions.
CASE  SYMM ACTIVE-MIX  NON-ACTIVE INDICES          DENOMINATOR     RHS VALUE       COEFFICIENT     CONTRIBUTION
VJTIM    1  Mu1.0006  In1.010 In1.008               5.42378687     -0.13916116      0.02565590     -0.00357031
ATVX     1  Mu1.0001  Se1.026                       0.25088083      0.00041503     -0.00209636     -0.00000087
ATVX     1  Mu1.0001  Se1.027                       0.28739285     -0.00001774      0.00006258     -0.00000000
ATVX     1  Mu1.0001  Se1.028                       0.28973758     -0.00000128      0.00000647     -0.00000000
ATVX     1  Mu1.0248  Se1.031                       2.30289743      0.06164678     -0.02612675     -0.00161063
AIVX     1  Mu1.0050  In1.011 Se1.035               3.80450392     -0.10623700      0.02757418     -0.00292940
AIVX     1  Mu1.0023  In1.011 Se1.036               3.54806756     -0.10339162      0.02876897     -0.00297447
AIVX     1  Mu1.0034  In1.011 Se1.036               3.62941385      0.10099882     -0.02747530     -0.00277497
--
 
   (Skipping property calculation,
    use PROP keyword to activate)
--
 
  Total CASPT2 energies:
::    CASPT2 Root  1     Total energy:  -1345.87556339
 
  A NEW JOBIPH FILE NAMED 'JOBMIX' IS PREPARED.
********************************************************************************
--- Stop Module: caspt2 at Mon Dec 23 17:28:07 2024 /rc=_RC_ALL_IS_WELL_ ---
*** files: xmldump
    saved to directory /home/grierjones/DDCASPT2/iron_oxo_DDCASPT2/cluster/1.84
--- Module caspt2 spent 5 minutes 32 seconds ---

>>> EXPORT i = B

>>> EXPORT j = P

>>> IF (-FILE GMJ_e2_${i}_${j}.csv)

>>> COPY /tmp/1.84/GMJ_RHS_B_P.csv /home/grierjones/DDCASPT2/iron_oxo_DDCASPT2/cluster/1.84/GMJ_RHS_B_P.csv

>>> COPY /tmp/1.84/GMJ_IVECW_B_P.csv /home/grierjones/DDCASPT2/iron_oxo_DDCASPT2/cluster/1.84/GMJ_IVECW_B_P.csv

>>> COPY /tmp/1.84/GMJ_IVECX_B_P.csv /home/grierjones/DDCASPT2/iron_oxo_DDCASPT2/cluster/1.84/GMJ_IVECX_B_P.csv

>>> COPY /tmp/1.84/GMJ_IVECC2_B_P.csv /home/grierjones/DDCASPT2/iron_oxo_DDCASPT2/cluster/1.84/GMJ_IVECC2_B_P.csv

>>> COPY /tmp/1.84/GMJ_e2_B_P.csv /home/grierjones/DDCASPT2/iron_oxo_DDCASPT2/cluster/1.84/GMJ_e2_B_P.csv

>>> END FOREACH

>>> EXPORT j = M

>>> IF (-FILE GMJ_e2_${i}_${j}.csv)

>>> COPY /tmp/1.84/GMJ_RHS_B_M.csv /home/grierjones/DDCASPT2/iron_oxo_DDCASPT2/cluster/1.84/GMJ_RHS_B_M.csv

>>> COPY /tmp/1.84/GMJ_IVECW_B_M.csv /home/grierjones/DDCASPT2/iron_oxo_DDCASPT2/cluster/1.84/GMJ_IVECW_B_M.csv

>>> COPY /tmp/1.84/GMJ_IVECX_B_M.csv /home/grierjones/DDCASPT2/iron_oxo_DDCASPT2/cluster/1.84/GMJ_IVECX_B_M.csv

>>> COPY /tmp/1.84/GMJ_IVECC2_B_M.csv /home/grierjones/DDCASPT2/iron_oxo_DDCASPT2/cluster/1.84/GMJ_IVECC2_B_M.csv

>>> COPY /tmp/1.84/GMJ_e2_B_M.csv /home/grierjones/DDCASPT2/iron_oxo_DDCASPT2/cluster/1.84/GMJ_e2_B_M.csv

>>> END FOREACH

>>> END FOREACH

>>> EXPORT i = E

>>> EXPORT j = P

>>> IF (-FILE GMJ_e2_${i}_${j}.csv)

>>> COPY /tmp/1.84/GMJ_RHS_E_P.csv /home/grierjones/DDCASPT2/iron_oxo_DDCASPT2/cluster/1.84/GMJ_RHS_E_P.csv

>>> COPY /tmp/1.84/GMJ_IVECW_E_P.csv /home/grierjones/DDCASPT2/iron_oxo_DDCASPT2/cluster/1.84/GMJ_IVECW_E_P.csv

>>> COPY /tmp/1.84/GMJ_IVECX_E_P.csv /home/grierjones/DDCASPT2/iron_oxo_DDCASPT2/cluster/1.84/GMJ_IVECX_E_P.csv

>>> COPY /tmp/1.84/GMJ_IVECC2_E_P.csv /home/grierjones/DDCASPT2/iron_oxo_DDCASPT2/cluster/1.84/GMJ_IVECC2_E_P.csv

>>> COPY /tmp/1.84/GMJ_e2_E_P.csv /home/grierjones/DDCASPT2/iron_oxo_DDCASPT2/cluster/1.84/GMJ_e2_E_P.csv

>>> END FOREACH

>>> EXPORT j = M

>>> IF (-FILE GMJ_e2_${i}_${j}.csv)

>>> COPY /tmp/1.84/GMJ_RHS_E_M.csv /home/grierjones/DDCASPT2/iron_oxo_DDCASPT2/cluster/1.84/GMJ_RHS_E_M.csv

>>> COPY /tmp/1.84/GMJ_IVECW_E_M.csv /home/grierjones/DDCASPT2/iron_oxo_DDCASPT2/cluster/1.84/GMJ_IVECW_E_M.csv

>>> COPY /tmp/1.84/GMJ_IVECX_E_M.csv /home/grierjones/DDCASPT2/iron_oxo_DDCASPT2/cluster/1.84/GMJ_IVECX_E_M.csv

>>> COPY /tmp/1.84/GMJ_IVECC2_E_M.csv /home/grierjones/DDCASPT2/iron_oxo_DDCASPT2/cluster/1.84/GMJ_IVECC2_E_M.csv

>>> COPY /tmp/1.84/GMJ_e2_E_M.csv /home/grierjones/DDCASPT2/iron_oxo_DDCASPT2/cluster/1.84/GMJ_e2_E_M.csv

>>> END FOREACH

>>> END FOREACH

>>> EXPORT i = F

>>> EXPORT j = P

>>> IF (-FILE GMJ_e2_${i}_${j}.csv)

>>> COPY /tmp/1.84/GMJ_RHS_F_P.csv /home/grierjones/DDCASPT2/iron_oxo_DDCASPT2/cluster/1.84/GMJ_RHS_F_P.csv

>>> COPY /tmp/1.84/GMJ_IVECW_F_P.csv /home/grierjones/DDCASPT2/iron_oxo_DDCASPT2/cluster/1.84/GMJ_IVECW_F_P.csv

>>> COPY /tmp/1.84/GMJ_IVECX_F_P.csv /home/grierjones/DDCASPT2/iron_oxo_DDCASPT2/cluster/1.84/GMJ_IVECX_F_P.csv

>>> COPY /tmp/1.84/GMJ_IVECC2_F_P.csv /home/grierjones/DDCASPT2/iron_oxo_DDCASPT2/cluster/1.84/GMJ_IVECC2_F_P.csv

>>> COPY /tmp/1.84/GMJ_e2_F_P.csv /home/grierjones/DDCASPT2/iron_oxo_DDCASPT2/cluster/1.84/GMJ_e2_F_P.csv

>>> END FOREACH

>>> EXPORT j = M

>>> IF (-FILE GMJ_e2_${i}_${j}.csv)

>>> COPY /tmp/1.84/GMJ_RHS_F_M.csv /home/grierjones/DDCASPT2/iron_oxo_DDCASPT2/cluster/1.84/GMJ_RHS_F_M.csv

>>> COPY /tmp/1.84/GMJ_IVECW_F_M.csv /home/grierjones/DDCASPT2/iron_oxo_DDCASPT2/cluster/1.84/GMJ_IVECW_F_M.csv

>>> COPY /tmp/1.84/GMJ_IVECX_F_M.csv /home/grierjones/DDCASPT2/iron_oxo_DDCASPT2/cluster/1.84/GMJ_IVECX_F_M.csv

>>> COPY /tmp/1.84/GMJ_IVECC2_F_M.csv /home/grierjones/DDCASPT2/iron_oxo_DDCASPT2/cluster/1.84/GMJ_IVECC2_F_M.csv

>>> COPY /tmp/1.84/GMJ_e2_F_M.csv /home/grierjones/DDCASPT2/iron_oxo_DDCASPT2/cluster/1.84/GMJ_e2_F_M.csv

>>> END FOREACH

>>> END FOREACH

>>> EXPORT i = G

>>> EXPORT j = P

>>> IF (-FILE GMJ_e2_${i}_${j}.csv)

>>> COPY /tmp/1.84/GMJ_RHS_G_P.csv /home/grierjones/DDCASPT2/iron_oxo_DDCASPT2/cluster/1.84/GMJ_RHS_G_P.csv

>>> COPY /tmp/1.84/GMJ_IVECW_G_P.csv /home/grierjones/DDCASPT2/iron_oxo_DDCASPT2/cluster/1.84/GMJ_IVECW_G_P.csv

>>> COPY /tmp/1.84/GMJ_IVECX_G_P.csv /home/grierjones/DDCASPT2/iron_oxo_DDCASPT2/cluster/1.84/GMJ_IVECX_G_P.csv

>>> COPY /tmp/1.84/GMJ_IVECC2_G_P.csv /home/grierjones/DDCASPT2/iron_oxo_DDCASPT2/cluster/1.84/GMJ_IVECC2_G_P.csv

>>> COPY /tmp/1.84/GMJ_e2_G_P.csv /home/grierjones/DDCASPT2/iron_oxo_DDCASPT2/cluster/1.84/GMJ_e2_G_P.csv

>>> END FOREACH

>>> EXPORT j = M

>>> IF (-FILE GMJ_e2_${i}_${j}.csv)

>>> COPY /tmp/1.84/GMJ_RHS_G_M.csv /home/grierjones/DDCASPT2/iron_oxo_DDCASPT2/cluster/1.84/GMJ_RHS_G_M.csv

>>> COPY /tmp/1.84/GMJ_IVECW_G_M.csv /home/grierjones/DDCASPT2/iron_oxo_DDCASPT2/cluster/1.84/GMJ_IVECW_G_M.csv

>>> COPY /tmp/1.84/GMJ_IVECX_G_M.csv /home/grierjones/DDCASPT2/iron_oxo_DDCASPT2/cluster/1.84/GMJ_IVECX_G_M.csv

>>> COPY /tmp/1.84/GMJ_IVECC2_G_M.csv /home/grierjones/DDCASPT2/iron_oxo_DDCASPT2/cluster/1.84/GMJ_IVECC2_G_M.csv

>>> COPY /tmp/1.84/GMJ_e2_G_M.csv /home/grierjones/DDCASPT2/iron_oxo_DDCASPT2/cluster/1.84/GMJ_e2_G_M.csv

>>> END FOREACH

>>> END FOREACH

>>> EXPORT i = H

>>> EXPORT j = P

>>> IF (-FILE GMJ_e2_${i}_${j}.csv)

>>> COPY /tmp/1.84/GMJ_RHS_H_P.csv /home/grierjones/DDCASPT2/iron_oxo_DDCASPT2/cluster/1.84/GMJ_RHS_H_P.csv

>>> COPY /tmp/1.84/GMJ_IVECW_H_P.csv /home/grierjones/DDCASPT2/iron_oxo_DDCASPT2/cluster/1.84/GMJ_IVECW_H_P.csv

>>> COPY /tmp/1.84/GMJ_IVECX_H_P.csv /home/grierjones/DDCASPT2/iron_oxo_DDCASPT2/cluster/1.84/GMJ_IVECX_H_P.csv

>>> COPY /tmp/1.84/GMJ_IVECC2_H_P.csv /home/grierjones/DDCASPT2/iron_oxo_DDCASPT2/cluster/1.84/GMJ_IVECC2_H_P.csv

>>> COPY /tmp/1.84/GMJ_e2_H_P.csv /home/grierjones/DDCASPT2/iron_oxo_DDCASPT2/cluster/1.84/GMJ_e2_H_P.csv

>>> END FOREACH

>>> EXPORT j = M

>>> IF (-FILE GMJ_e2_${i}_${j}.csv)

>>> COPY /tmp/1.84/GMJ_RHS_H_M.csv /home/grierjones/DDCASPT2/iron_oxo_DDCASPT2/cluster/1.84/GMJ_RHS_H_M.csv

>>> COPY /tmp/1.84/GMJ_IVECW_H_M.csv /home/grierjones/DDCASPT2/iron_oxo_DDCASPT2/cluster/1.84/GMJ_IVECW_H_M.csv

>>> COPY /tmp/1.84/GMJ_IVECX_H_M.csv /home/grierjones/DDCASPT2/iron_oxo_DDCASPT2/cluster/1.84/GMJ_IVECX_H_M.csv

>>> COPY /tmp/1.84/GMJ_IVECC2_H_M.csv /home/grierjones/DDCASPT2/iron_oxo_DDCASPT2/cluster/1.84/GMJ_IVECC2_H_M.csv

>>> COPY /tmp/1.84/GMJ_e2_H_M.csv /home/grierjones/DDCASPT2/iron_oxo_DDCASPT2/cluster/1.84/GMJ_e2_H_M.csv

>>> END FOREACH

>>> END FOREACH

>>> EXPORT i = A

>>> IF (-FILE GMJ_e2_$i.csv)

>>> COPY /tmp/1.84/GMJ_RHS_A.csv /home/grierjones/DDCASPT2/iron_oxo_DDCASPT2/cluster/1.84/GMJ_RHS_A.csv

>>> COPY /tmp/1.84/GMJ_IVECW_A.csv /home/grierjones/DDCASPT2/iron_oxo_DDCASPT2/cluster/1.84/GMJ_IVECW_A.csv

>>> COPY /tmp/1.84/GMJ_IVECX_A.csv /home/grierjones/DDCASPT2/iron_oxo_DDCASPT2/cluster/1.84/GMJ_IVECX_A.csv

>>> COPY /tmp/1.84/GMJ_IVECC2_A.csv /home/grierjones/DDCASPT2/iron_oxo_DDCASPT2/cluster/1.84/GMJ_IVECC2_A.csv

>>> COPY /tmp/1.84/GMJ_e2_A.csv /home/grierjones/DDCASPT2/iron_oxo_DDCASPT2/cluster/1.84/GMJ_e2_A.csv

>>> END FOREACH

>>> EXPORT i = C

>>> IF (-FILE GMJ_e2_$i.csv)

>>> COPY /tmp/1.84/GMJ_RHS_C.csv /home/grierjones/DDCASPT2/iron_oxo_DDCASPT2/cluster/1.84/GMJ_RHS_C.csv

>>> COPY /tmp/1.84/GMJ_IVECW_C.csv /home/grierjones/DDCASPT2/iron_oxo_DDCASPT2/cluster/1.84/GMJ_IVECW_C.csv

>>> COPY /tmp/1.84/GMJ_IVECX_C.csv /home/grierjones/DDCASPT2/iron_oxo_DDCASPT2/cluster/1.84/GMJ_IVECX_C.csv

>>> COPY /tmp/1.84/GMJ_IVECC2_C.csv /home/grierjones/DDCASPT2/iron_oxo_DDCASPT2/cluster/1.84/GMJ_IVECC2_C.csv

>>> COPY /tmp/1.84/GMJ_e2_C.csv /home/grierjones/DDCASPT2/iron_oxo_DDCASPT2/cluster/1.84/GMJ_e2_C.csv

>>> END FOREACH

>>> EXPORT i = D

>>> IF (-FILE GMJ_e2_$i.csv)

>>> COPY /tmp/1.84/GMJ_RHS_D.csv /home/grierjones/DDCASPT2/iron_oxo_DDCASPT2/cluster/1.84/GMJ_RHS_D.csv

>>> COPY /tmp/1.84/GMJ_IVECW_D.csv /home/grierjones/DDCASPT2/iron_oxo_DDCASPT2/cluster/1.84/GMJ_IVECW_D.csv

>>> COPY /tmp/1.84/GMJ_IVECX_D.csv /home/grierjones/DDCASPT2/iron_oxo_DDCASPT2/cluster/1.84/GMJ_IVECX_D.csv

>>> COPY /tmp/1.84/GMJ_IVECC2_D.csv /home/grierjones/DDCASPT2/iron_oxo_DDCASPT2/cluster/1.84/GMJ_IVECC2_D.csv

>>> COPY /tmp/1.84/GMJ_e2_D.csv /home/grierjones/DDCASPT2/iron_oxo_DDCASPT2/cluster/1.84/GMJ_e2_D.csv

>>> END FOREACH

.########################.
.# Non-zero return code #.
.########################.

    Timing: Wall=1094.51 User=1086.64 System=7.57
************************************
*** WorkDir at /tmp/1.84 cleaned ***
************************************
