[Molden Format]
[N_Atoms]
                     2
[Atoms] (AU)
B1          1      5           0.00000000      0.00000000      0.00000000
C2          2      6           0.00000000      0.00000000      5.29123315
[Charge] (Mulliken)
  7.671758448003274E-003
 -7.671758448054788E-003
[GTO] (AU)
   1
   s  14
  3.336021700E+04  1.039699991E-04
  4.972095200E+03  5.254399956E-04
  1.125641700E+03  2.509059979E-03
  3.164913600E+02  1.031887991E-02
  1.020072600E+02  3.636632969E-02
  3.629587300E+01  1.064607991E-01
  1.397141000E+01  2.403999880E-01
  5.741156000E+00  3.748581168E-01
  2.494268000E+00  3.100066974E-01
  1.114202000E+00  7.922455933E-02
  4.215490000E-01 -4.947589958E-03
  1.696330000E-01 -7.737119935E-03
  6.853500000E-02 -1.501079987E-03
  2.398700000E-02 -1.333299989E-04
   s  14
  3.336021700E+04 -2.030000008E-05
  4.972095200E+03 -1.025700004E-04
  1.125641700E+03 -4.911300020E-04
  3.164913600E+02 -2.026570008E-03
  1.020072600E+02 -7.261010030E-03
  3.629587300E+01 -2.197722009E-02
  1.397141000E+01 -5.408428022E-02
  5.741156000E+00 -1.022402604E-01
  2.494268000E+00 -1.423595206E-01
  1.114202000E+00 -4.658690019E-02
  4.215490000E-01  3.799402916E-01
  1.696330000E-01  5.890463624E-01
  6.853500000E-02  1.749075107E-01
  2.398700000E-02 -1.142030005E-03
   p   9
  5.500000000E+01  1.229800005E-03
  1.336610100E+01  8.827380035E-03
  4.135394000E+00  3.843340015E-02
  1.481256000E+00  1.150031805E-01
  6.021360000E-01  2.733674011E-01
  2.556360000E-01  4.061972116E-01
  1.111510000E-01  3.014967912E-01
  4.764800000E-02  7.684809030E-02
  1.667700000E-02 -8.170000032E-06
 
   2
   s  14
  5.055750100E+04  1.128874000E-04
  7.524785600E+03  5.295373000E-04
  1.694327600E+03  2.450038300E-03
  4.728227900E+02  1.005398470E-02
  1.517107500E+02  3.545398060E-02
  5.391874600E+01  1.044071086E-01
  2.065931100E+01  2.412894918E-01
  8.383976000E+00  3.834225483E-01
  3.577015000E+00  3.078514393E-01
  1.547118000E+00  6.872442990E-02
  6.130130000E-01  2.224445000E-04
  2.460680000E-01  1.976748900E-03
  9.908700000E-02  2.057859400E-03
  3.468000000E-02  4.182020000E-04
   s  14
  5.055750100E+04 -2.507420000E-05
  7.524785600E+03 -1.175945000E-04
  1.694327600E+03 -5.456275000E-04
  4.728227900E+02 -2.245077100E-03
  1.517107500E+02 -8.043471800E-03
  5.391874600E+01 -2.442588710E-02
  2.065931100E+01 -6.136791180E-02
  8.383976000E+00 -1.177767835E-01
  3.577015000E+00 -1.550487783E-01
  1.547118000E+00 -1.933316860E-02
  6.130130000E-01  3.996930678E-01
  2.460680000E-01  5.589420949E-01
  9.908700000E-02  1.711195023E-01
  3.468000000E-02  7.456244600E-03
   p   9
  8.333315500E+01  1.344656000E-03
  1.955761100E+01  1.023555500E-02
  6.080365000E+00  4.520067100E-02
  2.179317000E+00  1.410756198E-01
  8.651500000E-01  3.047388085E-01
  3.619440000E-01  3.995281011E-01
  1.547400000E-01  2.719163432E-01
  6.542900000E-02  5.857669330E-02
  2.290000000E-02 -1.263813000E-04
 
[MO]
Sym=     1a  
Ene=   -11.2610
Spin= Alpha
Occup=    1.00000
   1        -0.00003503
   2        -0.00050894
   3        -0.00000000
   4         0.00000000
   5        -0.00061920
   6         1.00000973
   7         0.00021446
   8         0.00000000
   9        -0.00000000
  10        -0.00015909
Sym=     1a  
Ene=   -11.2130
Spin= Beta
Occup=    1.00000
   1        -0.00002481
   2        -0.00024752
   3        -0.00000000
   4        -0.00000000
   5        -0.00021573
   6         0.99999174
   7        -0.00485260
   8         0.00000000
   9        -0.00000000
  10        -0.00009563
Sym=     2a  
Ene=    -7.6286
Spin= Alpha
Occup=    1.00000
   1         0.99991761
   2         0.01288529
   3        -0.00000000
   4        -0.00000000
   5         0.00007324
   6        -0.00000877
   7        -0.00006478
   8        -0.00000000
   9         0.00000000
  10         0.00005780
Sym=     2a  
Ene=    -7.6454
Spin= Beta
Occup=    1.00000
   1         0.99988072
   2         0.01560268
   3        -0.00000000
   4        -0.00000000
   5        -0.00006719
   6        -0.00001792
   7        -0.00019057
   8        -0.00000000
   9         0.00000000
  10         0.00023720
Sym=     3a  
Ene=    -0.7994
Spin= Alpha
Occup=    1.00000
   1        -0.00316396
   2         0.04050741
   3        -0.00000000
   4        -0.00000000
   5         0.01241032
   6        -0.00039552
   7         0.99412422
   8        -0.00000000
   9         0.00000000
  10         0.00273324
Sym=     3a  
Ene=    -0.5732
Spin= Beta
Occup=    1.00000
   1        -0.01037914
   2         0.50883918
   3        -0.00000000
   4        -0.00000000
   5         0.02180539
   6         0.00175600
   7         0.81581739
   8         0.00000000
   9        -0.00000000
  10        -0.02817551
Sym=     4a  
Ene=    -0.4303
Spin= Alpha
Occup=    1.00000
   1        -0.01299302
   2         0.98768487
   3         0.00000000
   4        -0.00000000
   5         0.06189482
   6        -0.00473518
   7        -0.12714742
   8         0.00000000
   9        -0.00000000
  10        -0.07875853
Sym=     4a  
Ene=    -0.5129
Spin= Beta
Occup=    1.00000
   1         0.01194349
   2        -0.85836867
   3        -0.00000000
   4        -0.00000000
   5         0.06326325
   6         0.00540929
   7         0.56715577
   8         0.00000000
   9         0.00000000
  10         0.01711738
Sym=     5a  
Ene=    -0.4106
Spin= Alpha
Occup=    1.00000
   1        -0.00000000
   2         0.00000000
   3        -0.01023311
   4         0.02092324
   5        -0.00000000
   6        -0.00000000
   7        -0.00000000
   8        -0.43867367
   9         0.89693911
  10         0.00000000
Sym=     5a  
Ene=    -0.3016
Spin= Beta
Occup=    1.00000
   1         0.00000000
   2        -0.00000000
   3         0.89666552
   4         0.43853986
   5        -0.00000000
   6         0.00000000
   7         0.00000000
   8         0.02436932
   9         0.01191851
  10         0.00000000
Sym=     6a  
Ene=    -0.4097
Spin= Alpha
Occup=    1.00000
   1        -0.00000000
   2         0.00000000
   3         0.01684244
   4         0.00823727
   5         0.00000000
   6        -0.00000000
   7         0.00000000
   8         0.89724603
   9         0.43882377
  10         0.00000000
Sym=     6a  
Ene=     0.0749
Spin= Beta
Occup=    0.00000
   1         0.00279134
   2         0.02822570
   3        -0.00000000
   4         0.00000000
   5        -0.81041101
   6         0.01011425
   7         0.17049022
   8        -0.00000000
   9         0.00000000
  10         0.48023632
Sym=     7a  
Ene=     0.0624
Spin= Alpha
Occup=    0.00000
   1         0.00308893
   2         0.18839494
   3        -0.00000000
   4         0.00000000
   5        -0.58038772
   6         0.00614398
   7         0.07225798
   8         0.00000000
   9        -0.00000000
  10         0.72731072
Sym=     7a  
Ene=     0.1010
Spin= Beta
Occup=    0.00000
   1        -0.00000000
   2         0.00000000
   3        -0.43194635
   4         0.88318402
   5         0.00000000
   6        -0.00000000
   7        -0.00000000
   8        -0.06022053
   9         0.12313059
  10        -0.00000000
Sym=     8a  
Ene=     0.1309
Spin= Alpha
Occup=    0.00000
   1        -0.00000000
   2        -0.00000000
   3        -0.43987650
   4         0.89939849
   5         0.00000000
   6        -0.00000000
   7        -0.00000000
   8         0.03408026
   9        -0.06968259
  10        -0.00000000
Sym=     8a  
Ene=     0.2287
Spin= Beta
Occup=    0.00000
   1         0.00507027
   2         0.15901647
   3        -0.00000000
   4         0.00000000
   5         0.62450785
   6        -0.00838444
   7        -0.11560679
   8         0.00000000
   9        -0.00000000
  10         0.90097629
Sym=     9a  
Ene=     0.1803
Spin= Alpha
Occup=    0.00000
   1         0.00000000
   2         0.00000000
   3         0.89948417
   4         0.43991840
   5         0.00000000
   6        -0.00000000
   7        -0.00000000
   8        -0.06561245
   9        -0.03208964
  10         0.00000000
Sym=     9a  
Ene=     0.2320
Spin= Beta
Occup=    0.00000
   1         0.00000000
   2         0.00000000
   3         0.07311889
   4         0.03576088
   5         0.00000000
   6        -0.00000000
   7        -0.00000000
   8        -0.89931172
   9        -0.43983406
  10         0.00000000
Sym=    10a  
Ene=     0.1999
Spin= Alpha
Occup=    0.00000
   1         0.00466194
   2         0.09601727
   3        -0.00000000
   4        -0.00000000
   5         0.84286330
   6        -0.01042280
   7        -0.14145112
   8         0.00000000
   9        -0.00000000
  10         0.71293817
Sym=    10a  
Ene=     0.2346
Spin= Beta
Occup=    0.00000
   1         0.00000000
   2         0.00000000
   3         0.08377592
   4        -0.17129338
   5         0.00000000
   6        -0.00000000
   7        -0.00000000
   8        -0.43585495
   9         0.89117579
  10         0.00000000
