[Molden Format]
[N_Atoms]
                     2
[Atoms] (AU)
B1          1      5           0.00000000      0.00000000      0.00000000
C2          2      6           0.00000000      0.00000000      5.29123315
[Charge] (Mulliken)
  4.982731450779010E-002
 -4.982731450779898E-002
[GTO] (AU)
   1
   s  14
  3.336021700E+04  1.039699991E-04
  4.972095200E+03  5.254399956E-04
  1.125641700E+03  2.509059979E-03
  3.164913600E+02  1.031887991E-02
  1.020072600E+02  3.636632969E-02
  3.629587300E+01  1.064607991E-01
  1.397141000E+01  2.403999880E-01
  5.741156000E+00  3.748581168E-01
  2.494268000E+00  3.100066974E-01
  1.114202000E+00  7.922455933E-02
  4.215490000E-01 -4.947589958E-03
  1.696330000E-01 -7.737119935E-03
  6.853500000E-02 -1.501079987E-03
  2.398700000E-02 -1.333299989E-04
   s  14
  3.336021700E+04 -2.030000008E-05
  4.972095200E+03 -1.025700004E-04
  1.125641700E+03 -4.911300020E-04
  3.164913600E+02 -2.026570008E-03
  1.020072600E+02 -7.261010030E-03
  3.629587300E+01 -2.197722009E-02
  1.397141000E+01 -5.408428022E-02
  5.741156000E+00 -1.022402604E-01
  2.494268000E+00 -1.423595206E-01
  1.114202000E+00 -4.658690019E-02
  4.215490000E-01  3.799402916E-01
  1.696330000E-01  5.890463624E-01
  6.853500000E-02  1.749075107E-01
  2.398700000E-02 -1.142030005E-03
   p   9
  5.500000000E+01  1.229800005E-03
  1.336610100E+01  8.827380035E-03
  4.135394000E+00  3.843340015E-02
  1.481256000E+00  1.150031805E-01
  6.021360000E-01  2.733674011E-01
  2.556360000E-01  4.061972116E-01
  1.111510000E-01  3.014967912E-01
  4.764800000E-02  7.684809030E-02
  1.667700000E-02 -8.170000032E-06
 
   2
   s  14
  5.055750100E+04  1.128874000E-04
  7.524785600E+03  5.295373000E-04
  1.694327600E+03  2.450038300E-03
  4.728227900E+02  1.005398470E-02
  1.517107500E+02  3.545398060E-02
  5.391874600E+01  1.044071086E-01
  2.065931100E+01  2.412894918E-01
  8.383976000E+00  3.834225483E-01
  3.577015000E+00  3.078514393E-01
  1.547118000E+00  6.872442990E-02
  6.130130000E-01  2.224445000E-04
  2.460680000E-01  1.976748900E-03
  9.908700000E-02  2.057859400E-03
  3.468000000E-02  4.182020000E-04
   s  14
  5.055750100E+04 -2.507420000E-05
  7.524785600E+03 -1.175945000E-04
  1.694327600E+03 -5.456275000E-04
  4.728227900E+02 -2.245077100E-03
  1.517107500E+02 -8.043471800E-03
  5.391874600E+01 -2.442588710E-02
  2.065931100E+01 -6.136791180E-02
  8.383976000E+00 -1.177767835E-01
  3.577015000E+00 -1.550487783E-01
  1.547118000E+00 -1.933316860E-02
  6.130130000E-01  3.996930678E-01
  2.460680000E-01  5.589420949E-01
  9.908700000E-02  1.711195023E-01
  3.468000000E-02  7.456244600E-03
   p   9
  8.333315500E+01  1.344656000E-03
  1.955761100E+01  1.023555500E-02
  6.080365000E+00  4.520067100E-02
  2.179317000E+00  1.410756198E-01
  8.651500000E-01  3.047388085E-01
  3.619440000E-01  3.995281011E-01
  1.547400000E-01  2.719163432E-01
  6.542900000E-02  5.857669330E-02
  2.290000000E-02 -1.263813000E-04
 
[MO]
Sym=     1a  
Ene=   -11.2000
Spin= Alpha
Occup=    2.00000
   1        -0.00002841
   2        -0.00038860
   3         0.00000002
   4         0.00000000
   5        -0.00043933
   6         1.00000423
   7        -0.00228666
   8        -0.00000002
   9         0.00000008
  10        -0.00028686
Sym=     2a  
Ene=    -7.6554
Spin= Alpha
Occup=    2.00000
   1         0.99990106
   2         0.01411932
   3        -0.00000004
   4         0.00000012
   5         0.00013324
   6        -0.00001701
   7        -0.00011918
   8        -0.00000003
   9         0.00000004
  10         0.00005249
Sym=     3a  
Ene=    -0.6559
Spin= Alpha
Occup=    2.00000
   1        -0.00451275
   2         0.13296422
   3         0.00000313
   4        -0.00000166
   5         0.02708492
   6         0.00147652
   7         0.97649349
   8         0.00002003
   9        -0.00000766
  10         0.00399783
Sym=     4a  
Ene=    -0.4867
Spin= Alpha
Occup=    2.00000
   1         0.01377946
   2        -0.98573292
   3         0.00002430
   4        -0.00001255
   5        -0.01425179
   6         0.00462131
   7         0.21162402
   8        -0.00003610
   9        -0.00002207
  10         0.05674923
Sym=     5a  
Ene=    -0.2893
Spin= Alpha
Occup=    2.00000
   1         0.00000140
   2         0.00010908
   3        -0.05588635
   4        -0.01975621
   5        -0.00006828
   6         0.00000046
   7         0.00001152
   8        -0.93813805
   9        -0.33163851
  10         0.00037409
Sym=     6a  
Ene=     0.2001
Spin= Alpha
Occup=    0.00000
   1        -0.00573158
   2        -0.17514379
   3         0.00199370
   4        -0.00198115
   5        -0.32538955
   6         0.00453393
   7         0.07609979
   8         0.00004435
   9        -0.00157507
  10        -1.00765172
Sym=     7a  
Ene=    -0.0005
Spin= Alpha
Occup=    1.00000
   1         0.00032237
   2         0.04262023
   3         0.00107678
   4        -0.00094247
   5        -0.97181933
   6         0.01165598
   7         0.15986933
   8         0.00011997
   9        -0.00001732
  10         0.15768315
Sym=     8a  
Ene=     0.0993
Spin= Alpha
Occup=    0.00000
   1         0.00001626
   2         0.00048201
   3         0.31470943
   4        -0.89042188
   5         0.00213488
   6        -0.00002754
   7        -0.00042893
   8         0.09383494
   9        -0.26541809
  10         0.00275866
Sym=     9a  
Ene=     0.1082
Spin= Alpha
Occup=    0.00000
   1        -0.00000660
   2        -0.00020838
   3        -0.94257366
   4        -0.33315281
   5        -0.00107470
   6         0.00001379
   7         0.00021058
   8         0.10693054
   9         0.03781527
  10        -0.00113976
Sym=    10a  
Ene=     0.1705
Spin= Alpha
Occup=    0.00000
   1        -0.00000415
   2        -0.00013670
   3         0.11106721
   4        -0.31418853
   5         0.00006090
   6        -0.00000033
   7         0.00001853
   8        -0.32032691
   9         0.90613914
  10        -0.00075456
