[Molden Format]
[N_Atoms]
                     2
[Atoms] (AU)
N1          1      7           0.00000000      0.00000000      0.00000000
O2          2      8           0.00000000      0.00000000      4.15739747
[Charge] (Mulliken)
  0.121645188952458     
 -0.121645188952467     
[GTO] (AU)
   1
   s  14
  7.476171500E+04  1.182599996E-04
  1.112365400E+04  5.172899983E-04
  2.512685700E+03  2.266659992E-03
  7.037772900E+02  9.145289970E-03
  2.254787900E+02  3.239342989E-02
  7.961581000E+01  9.770792967E-02
  3.023728300E+01  2.317036792E-01
  1.226362200E+01  3.768898887E-01
  5.265086000E+00  3.177420689E-01
  2.333471000E+00  8.211308973E-02
  9.018560000E-01  3.312089989E-03
  3.583360000E-01  3.720819988E-03
  1.410930000E-01  3.165419989E-03
  4.938300000E-02  4.595799985E-04
   s  14
  7.476171500E+04 -2.707000010E-05
  1.112365400E+04 -1.183700004E-04
  2.512685700E+03 -5.203800020E-04
  7.037772900E+02 -2.102930008E-03
  2.254787900E+02 -7.568200028E-03
  7.961581000E+01 -2.346767009E-02
  3.023728300E+01 -6.042901023E-02
  1.226362200E+01 -1.170549104E-01
  5.265086000E+00 -1.555321506E-01
  2.333471000E+00 -2.468935009E-02
  9.018560000E-01  3.625054514E-01
  3.583360000E-01  5.550845021E-01
  1.410930000E-01  2.148376908E-01
  4.938300000E-02  8.983850034E-03
   p   9
  1.266665700E+02  1.233630000E-03
  2.983738900E+01  9.493409996E-03
  9.394038000E+00  4.293961998E-02
  3.405104000E+00  1.362925399E-01
  1.350000000E+00  2.921362499E-01
  5.576960000E-01  3.887887598E-01
  2.324490000E-01  2.946801399E-01
  9.426400000E-02  8.012875997E-02
  3.299200000E-02  5.405199998E-04
 
   2
   s  14
  1.053749500E+05  1.238600013E-04
  1.567924000E+04  5.120100053E-04
  3.534544700E+03  2.152910022E-03
  9.873651600E+02  8.528440089E-03
  3.159787500E+02  3.018049031E-02
  1.116542800E+02  9.099702095E-02
  4.269945100E+01  2.177936423E-01
  1.739559600E+01  3.686245738E-01
  7.438309000E+00  3.366707335E-01
  3.222862000E+00  9.657630101E-02
  1.253877000E+00  2.144520022E-03
  4.951550000E-01  1.194350012E-03
  1.916650000E-01  5.390200056E-04
  6.708300000E-02  2.103400022E-04
   s  14
  1.053749500E+05 -2.815000008E-05
  1.567924000E+04 -1.163000003E-04
  3.534544700E+03 -4.909200013E-04
  9.873651600E+02 -1.946160005E-03
  3.159787500E+02 -7.005300019E-03
  1.116542800E+02 -2.167814006E-02
  4.269945100E+01 -5.641213015E-02
  1.739559600E+01 -1.127053003E-01
  7.438309000E+00 -1.589119704E-01
  3.222862000E+00 -3.355083009E-02
  1.253877000E+00  3.531902810E-01
  4.951550000E-01  5.534199315E-01
  1.916650000E-01  2.301839106E-01
  6.708300000E-02  1.127267003E-02
   p   9
  2.000000000E+02  9.173000030E-04
  4.653336700E+01  7.377140024E-03
  1.462180900E+01  3.483515011E-02
  5.313064000E+00  1.144397004E-01
  2.102525000E+00  2.554966408E-01
  8.502230000E-01  3.722557412E-01
  3.375970000E-01  3.323314911E-01
  1.288920000E-01  1.400847905E-01
  4.511200000E-02  2.395784008E-02
 
[MO]
Sym=     1a  
Ene=   -20.6270
Spin= Alpha
Occup=    1.00000
   1        -0.00015172
   2        -0.00692367
   3        -0.00000000
   4        -0.00000000
   5         0.00247601
   6         0.99997477
   7         0.00019173
   8        -0.00000000
   9        -0.00000000
  10        -0.00043645
Sym=     1a  
Ene=   -20.6270
Spin= Beta
Occup=    1.00000
   1        -0.00015172
   2        -0.00692367
   3        -0.00000000
   4        -0.00000000
   5         0.00247601
   6         0.99997477
   7         0.00019173
   8        -0.00000000
   9        -0.00000000
  10        -0.00043645
Sym=     2a  
Ene=   -15.6660
Spin= Alpha
Occup=    1.00000
   1         0.99995860
   2        -0.00915128
   3        -0.00000000
   4        -0.00000000
   5         0.00146511
   6         0.00004019
   7        -0.00016830
   8        -0.00000000
   9         0.00000000
  10         0.00013352
Sym=     2a  
Ene=   -15.6660
Spin= Beta
Occup=    1.00000
   1         0.99995860
   2        -0.00915128
   3        -0.00000000
   4        -0.00000000
   5         0.00146511
   6         0.00004019
   7        -0.00016830
   8        -0.00000000
   9         0.00000000
  10         0.00013352
Sym=     3a  
Ene=    -1.2128
Spin= Alpha
Occup=    1.00000
   1        -0.00173569
   2         0.04617261
   3        -0.00000000
   4         0.00000000
   5         0.04561653
   6        -0.00030281
   7         0.99039756
   8         0.00000000
   9         0.00000000
  10        -0.00081891
Sym=     3a  
Ene=    -1.2128
Spin= Beta
Occup=    1.00000
   1        -0.00173569
   2         0.04617261
   3        -0.00000000
   4         0.00000000
   5         0.04561653
   6        -0.00030281
   7         0.99039756
   8         0.00000000
   9         0.00000000
  10        -0.00081891
Sym=     4a  
Ene=    -0.5545
Spin= Alpha
Occup=    1.00000
   1        -0.00064075
   2        -0.34951222
   3         0.00000000
   4         0.00000000
   5        -0.88951786
   6         0.00748209
   7         0.17176122
   8         0.00000000
   9         0.00000000
  10         0.18939956
Sym=     4a  
Ene=    -0.5545
Spin= Beta
Occup=    1.00000
   1        -0.00064075
   2        -0.34951222
   3         0.00000000
   4         0.00000000
   5        -0.88951786
   6         0.00748209
   7         0.17176122
   8         0.00000000
   9         0.00000000
  10         0.18939956
Sym=     5a  
Ene=    -0.5300
Spin= Alpha
Occup=    1.00000
   1        -0.00000000
   2         0.00000000
   3         0.01737926
   4         0.01822636
   5         0.00000000
   6        -0.00000000
   7        -0.00000000
   8         0.68905745
   9         0.72264328
  10        -0.00000000
Sym=     5a  
Ene=    -0.5300
Spin= Beta
Occup=    1.00000
   1        -0.00000000
   2         0.00000000
   3         0.01737926
   4         0.01822636
   5         0.00000000
   6        -0.00000000
   7        -0.00000000
   8         0.68905745
   9         0.72264328
  10        -0.00000000
Sym=     6a  
Ene=    -0.5295
Spin= Alpha
Occup=    1.00000
   1         0.00000000
   2         0.00000000
   3        -0.02528623
   4         0.02411102
   5         0.00000000
   6        -0.00000000
   7        -0.00000000
   8        -0.72210122
   9         0.68854058
  10         0.00000000
Sym=     6a  
Ene=    -0.5295
Spin= Beta
Occup=    1.00000
   1         0.00000000
   2         0.00000000
   3        -0.02528623
   4         0.02411102
   5         0.00000000
   6        -0.00000000
   7        -0.00000000
   8        -0.72210122
   9         0.68854058
  10         0.00000000
Sym=     7a  
Ene=    -0.9090
Spin= Alpha
Occup=    1.00000
   1        -0.00951336
   2        -0.93289309
   3        -0.00000000
   4         0.00000000
   5         0.36411432
   6        -0.00733096
   7         0.04449658
   8        -0.00000000
   9        -0.00000000
  10        -0.03859753
Sym=     7a  
Ene=    -0.9090
Spin= Beta
Occup=    1.00000
   1        -0.00951336
   2        -0.93289309
   3        -0.00000000
   4         0.00000000
   5         0.36411432
   6        -0.00733096
   7         0.04449658
   8        -0.00000000
   9        -0.00000000
  10        -0.03859753
Sym=     8a  
Ene=     0.0000
Spin= Alpha
Occup=    1.00000
   1        -0.00000000
   2         0.00000000
   3        -0.69062612
   4        -0.72428840
   5        -0.00000000
   6         0.00000000
   7         0.00000000
   8         0.04966186
   9         0.05208246
  10         0.00000000
Sym=     8a  
Ene=     0.0000
Spin= Beta
Occup=    0.00000
   1        -0.00000000
   2         0.00000000
   3        -0.69062612
   4        -0.72428840
   5        -0.00000000
   6         0.00000000
   7         0.00000000
   8         0.04966186
   9         0.05208246
  10         0.00000000
Sym=     9a  
Ene=     0.0601
Spin= Alpha
Occup=    0.00000
   1         0.00000000
   2         0.00000000
   3        -0.72407631
   4         0.69042388
   5        -0.00000000
   6         0.00000000
   7        -0.00000000
   8         0.05912469
   9        -0.05637679
  10         0.00000000
Sym=     9a  
Ene=     0.0601
Spin= Beta
Occup=    0.00000
   1         0.00000000
   2         0.00000000
   3        -0.72407631
   4         0.69042388
   5        -0.00000000
   6         0.00000000
   7        -0.00000000
   8         0.05912469
   9        -0.05637679
  10         0.00000000
Sym=    10a  
Ene=     0.0891
Spin= Alpha
Occup=    0.00000
   1         0.00979644
   2         0.15435448
   3         0.00000000
   4        -0.00000000
   5         0.32201142
   6        -0.00266042
   7        -0.05199752
   8         0.00000000
   9        -0.00000000
  10         0.99786963
Sym=    10a  
Ene=     0.0891
Spin= Beta
Occup=    0.00000
   1         0.00979644
   2         0.15435448
   3         0.00000000
   4        -0.00000000
   5         0.32201142
   6        -0.00266042
   7        -0.05199752
   8         0.00000000
   9        -0.00000000
  10         0.99786963
