[Molden Format]
[N_Atoms]
                     2
[Atoms] (AU)
BE1         1      4           0.00000000      0.00000000      0.00000000
F2          2      9           0.00000000      0.00000000      3.59047964
[Charge] (Mulliken)
  0.559564378498421     
 -0.559564378498449     
[GTO] (AU)
   1
   s  14
  2.262859900E+04  8.443999941E-05
  3.372318100E+03  4.601499968E-04
  7.603504000E+02  2.285389984E-03
  2.117404800E+02  9.648129932E-03
  6.722346800E+01  3.494469975E-02
  2.337217700E+01  1.061099893E-01
  8.721373000E+00  2.458240383E-01
  3.468091000E+00  3.862428773E-01
  1.452144000E+00  3.105526078E-01
  6.086150000E-01  6.415933955E-02
  2.576860000E-01 -2.265049984E-03
  1.041760000E-01 -5.217499963E-04
  4.242700000E-02 -8.757499938E-04
  1.484900000E-02  1.242199991E-04
   s  14
  2.262859900E+04 -1.586999994E-05
  3.372318100E+03 -8.656999968E-05
  7.603504000E+02 -4.302199984E-04
  2.117404800E+02 -1.825079993E-03
  6.722346800E+01 -6.682749976E-03
  2.337217700E+01 -2.095119992E-02
  8.721373000E+00 -5.200308981E-02
  3.468091000E+00 -9.849176964E-02
  1.452144000E+00 -1.355800695E-01
  6.086150000E-01 -6.429875976E-02
  2.576860000E-01  3.125414989E-01
  1.041760000E-01  6.270468577E-01
  4.242700000E-02  2.110231492E-01
  1.484900000E-02 -4.104669985E-03
   p   9
  3.371018400E+01  1.069960000E-03
  8.057649500E+00  6.828550001E-03
  2.836471400E+00  2.119065000E-02
  1.099965700E+00  5.843696001E-02
  4.433964000E-01  2.020920800E-01
  1.822264000E-01  4.582953101E-01
  7.572410000E-02  3.691239601E-01
  3.168540000E-02  6.611471001E-02
  1.108990000E-02  1.405160000E-03
 
   2
   s  14
  1.031094600E+05  1.713099991E-04
  1.528100700E+04  7.123999962E-04
  3.441539200E+03  2.990479984E-03
  9.670948300E+02  1.164036994E-02
  3.140353400E+02  3.968642979E-02
  1.134423000E+02  1.128546094E-01
  4.464472700E+01  2.473650687E-01
  1.894287400E+01  3.672702681E-01
  8.532743000E+00  2.896286985E-01
  3.919401000E+00  7.786681959E-02
  1.568157000E+00  4.562139976E-03
  6.232900000E-01  2.468879987E-03
  2.408610000E-01  1.106309994E-03
  8.430100000E-02  1.739699991E-04
   s  14
  1.031094600E+05 -4.044999995E-05
  1.528100700E+04 -1.682299998E-04
  3.441539200E+03 -7.084299991E-04
  9.670948300E+02 -2.767999996E-03
  3.140353400E+02 -9.611379987E-03
  1.134423000E+02 -2.833957996E-02
  4.464472700E+01 -6.839343991E-02
  1.894287400E+01 -1.237379298E-01
  8.532743000E+00 -1.512859698E-01
  3.919401000E+00 -9.099909988E-03
  1.568157000E+00  3.716257695E-01
  6.232900000E-01  5.500214393E-01
  2.408610000E-01  2.092318697E-01
  8.430100000E-02  8.074639989E-03
   p   9
  2.453302900E+02  1.024860004E-03
  5.691900500E+01  8.344290032E-03
  1.760456800E+01  4.078927016E-02
  6.274995000E+00  1.351370605E-01
  2.447030000E+00  2.798830811E-01
  9.950600000E-01  3.597966414E-01
  4.039730000E-01  3.055347412E-01
  1.548100000E-01  1.354703905E-01
  5.418400000E-02  2.804449011E-02
 
[MO]
Sym=     1a  
Ene=   -26.0440
Spin= Alpha
Occup=    1.00000
   1        -0.00004699
   2        -0.00034034
   3         0.00000000
   4         0.00000000
   5        -0.00038141
   6         1.00001697
   7        -0.00236566
   8        -0.00000000
   9         0.00000000
  10        -0.00066883
Sym=     1a  
Ene=   -26.0390
Spin= Beta
Occup=    1.00000
   1        -0.00004548
   2        -0.00029301
   3         0.00000000
   4         0.00000000
   5        -0.00034425
   6         1.00001419
   7        -0.00258771
   8        -0.00000000
   9         0.00000000
  10        -0.00063760
Sym=     2a  
Ene=    -4.8372
Spin= Alpha
Occup=    1.00000
   1         0.99996280
   2         0.00213100
   3         0.00000000
   4        -0.00000000
   5        -0.00043018
   6        -0.00000045
   7         0.00079172
   8        -0.00000000
   9         0.00000000
  10        -0.00086721
Sym=     2a  
Ene=    -4.8170
Spin= Beta
Occup=    1.00000
   1         0.99997204
   2         0.00252640
   3         0.00000000
   4        -0.00000000
   5         0.00063707
   6        -0.00004497
   7         0.00037322
   8        -0.00000000
   9         0.00000000
  10        -0.00065280
Sym=     3a  
Ene=    -1.4064
Spin= Alpha
Occup=    1.00000
   1        -0.00995281
   2         0.03547609
   3        -0.00000000
   4         0.00000000
   5         0.04239799
   6         0.00031256
   7         0.97625931
   8        -0.00000000
   9        -0.00000000
  10        -0.04290422
Sym=     3a  
Ene=    -1.3879
Spin= Beta
Occup=    1.00000
   1        -0.00945923
   2         0.04236007
   3        -0.00000000
   4         0.00000000
   5         0.04688519
   6         0.00022357
   7         0.97375886
   8        -0.00000000
   9        -0.00000000
  10        -0.02628107
Sym=     4a  
Ene=    -0.5318
Spin= Alpha
Occup=    1.00000
   1         0.02819731
   2        -0.31014151
   3        -0.00000000
   4         0.00000000
   5        -0.10446271
   6         0.01049632
   7         0.16401893
   8        -0.00000000
   9         0.00000000
  10         0.87280330
Sym=     4a  
Ene=    -0.4983
Spin= Beta
Occup=    1.00000
   1         0.00000000
   2        -0.00000000
   3         0.00762365
   4         0.08618096
   5        -0.00000000
   6         0.00000000
   7         0.00000000
   8         0.08667340
   9         0.97979274
  10         0.00000000
Sym=     5a  
Ene=    -0.4996
Spin= Alpha
Occup=    1.00000
   1         0.00000000
   2        -0.00000000
   3         0.09728656
   4        -0.03309891
   5        -0.00000000
   6         0.00000000
   7         0.00000000
   8         0.92751060
   9        -0.31555840
  10         0.00000000
Sym=     5a  
Ene=    -0.4983
Spin= Beta
Occup=    1.00000
   1         0.00000000
   2        -0.00000000
   3         0.08618096
   4        -0.00762365
   5        -0.00000000
   6         0.00000000
   7         0.00000000
   8         0.97979274
   9        -0.08667340
  10         0.00000000
Sym=     6a  
Ene=    -0.4996
Spin= Alpha
Occup=    1.00000
   1        -0.00000000
   2         0.00000000
   3         0.03309891
   4         0.09728656
   5         0.00000000
   6        -0.00000000
   7        -0.00000000
   8         0.31555840
   9         0.92751060
  10        -0.00000000
Sym=     6a  
Ene=    -0.4746
Spin= Beta
Occup=    1.00000
   1         0.02719034
   2        -0.30717847
   3         0.00000000
   4        -0.00000000
   5        -0.21965990
   6         0.01453079
   7         0.19242291
   8        -0.00000000
   9        -0.00000000
  10         0.84017863
Sym=     7a  
Ene=    -0.3752
Spin= Alpha
Occup=    1.00000
   1         0.00746961
   2         0.84838915
   3         0.00000000
   4         0.00000000
   5        -0.48904618
   6         0.00087071
   7        -0.01175375
   8        -0.00000000
   9        -0.00000000
  10         0.28614328
Sym=     7a  
Ene=     0.0169
Spin= Beta
Occup=    0.00000
   1         0.00895752
   2         0.92811915
   3         0.00000000
   4         0.00000000
   5        -0.34255604
   6        -0.00599515
   7        -0.09049831
   8        -0.00000000
   9        -0.00000000
  10         0.31410615
Sym=     8a  
Ene=     0.0547
Spin= Alpha
Occup=    0.00000
   1         0.00000000
   2         0.00000000
   3        -0.60083433
   4         0.80653865
   5         0.00000000
   6        -0.00000000
   7        -0.00000000
   8         0.14900929
   9        -0.20002477
  10         0.00000000
Sym=     8a  
Ene=     0.1101
Spin= Beta
Occup=    0.00000
   1         0.00000000
   2         0.00000000
   3        -0.61082422
   4         0.80092146
   5         0.00000000
   6        -0.00000000
   7        -0.00000000
   8         0.14164861
   9        -0.18573169
  10         0.00000000
Sym=     9a  
Ene=     0.0547
Spin= Alpha
Occup=    0.00000
   1        -0.00000000
   2        -0.00000000
   3         0.80653865
   4         0.60083433
   5         0.00000000
   6        -0.00000000
   7        -0.00000000
   8        -0.20002477
   9        -0.14900929
  10        -0.00000000
Sym=     9a  
Ene=     0.1101
Spin= Beta
Occup=    0.00000
   1        -0.00000000
   2        -0.00000000
   3         0.80092146
   4         0.61082422
   5         0.00000000
   6        -0.00000000
   7        -0.00000000
   8        -0.18573169
   9        -0.14164861
  10        -0.00000000
Sym=    10a  
Ene=     0.2197
Spin= Alpha
Occup=    0.00000
   1         0.01900700
   2         0.53147780
   3         0.00000000
   4        -0.00000000
   5         0.96215513
   6        -0.04469980
   7        -0.45324833
   8         0.00000000
   9         0.00000000
  10         0.49530614
Sym=    10a  
Ene=     0.2683
Spin= Beta
Occup=    0.00000
   1         0.01958853
   2         0.37698696
   3         0.00000000
   4        -0.00000000
   5         1.00490058
   6        -0.04321486
   7        -0.43833002
   8        -0.00000000
   9         0.00000000
  10         0.53439628
