[Molden Format]
[N_Atoms]
                     2
[Atoms] (AU)
F1          1      9           0.00000000      0.00000000      0.00000000
N2          2      7           0.00000000      0.00000000      2.26767135
[Charge] (Mulliken)
  0.370413111006410     
   1.62958688899356     
[GTO] (AU)
   1
   s  14
  1.031094600E+05  1.713099991E-04
  1.528100700E+04  7.123999962E-04
  3.441539200E+03  2.990479984E-03
  9.670948300E+02  1.164036994E-02
  3.140353400E+02  3.968642979E-02
  1.134423000E+02  1.128546094E-01
  4.464472700E+01  2.473650687E-01
  1.894287400E+01  3.672702681E-01
  8.532743000E+00  2.896286985E-01
  3.919401000E+00  7.786681959E-02
  1.568157000E+00  4.562139976E-03
  6.232900000E-01  2.468879987E-03
  2.408610000E-01  1.106309994E-03
  8.430100000E-02  1.739699991E-04
   s  14
  1.031094600E+05 -4.044999995E-05
  1.528100700E+04 -1.682299998E-04
  3.441539200E+03 -7.084299991E-04
  9.670948300E+02 -2.767999996E-03
  3.140353400E+02 -9.611379987E-03
  1.134423000E+02 -2.833957996E-02
  4.464472700E+01 -6.839343991E-02
  1.894287400E+01 -1.237379298E-01
  8.532743000E+00 -1.512859698E-01
  3.919401000E+00 -9.099909988E-03
  1.568157000E+00  3.716257695E-01
  6.232900000E-01  5.500214393E-01
  2.408610000E-01  2.092318697E-01
  8.430100000E-02  8.074639989E-03
   p   9
  2.453302900E+02  1.024860004E-03
  5.691900500E+01  8.344290032E-03
  1.760456800E+01  4.078927016E-02
  6.274995000E+00  1.351370605E-01
  2.447030000E+00  2.798830811E-01
  9.950600000E-01  3.597966414E-01
  4.039730000E-01  3.055347412E-01
  1.548100000E-01  1.354703905E-01
  5.418400000E-02  2.804449011E-02
 
   2
   s  14
  7.476171500E+04  1.182599996E-04
  1.112365400E+04  5.172899983E-04
  2.512685700E+03  2.266659992E-03
  7.037772900E+02  9.145289970E-03
  2.254787900E+02  3.239342989E-02
  7.961581000E+01  9.770792967E-02
  3.023728300E+01  2.317036792E-01
  1.226362200E+01  3.768898887E-01
  5.265086000E+00  3.177420689E-01
  2.333471000E+00  8.211308973E-02
  9.018560000E-01  3.312089989E-03
  3.583360000E-01  3.720819988E-03
  1.410930000E-01  3.165419989E-03
  4.938300000E-02  4.595799985E-04
   s  14
  7.476171500E+04 -2.707000010E-05
  1.112365400E+04 -1.183700004E-04
  2.512685700E+03 -5.203800020E-04
  7.037772900E+02 -2.102930008E-03
  2.254787900E+02 -7.568200028E-03
  7.961581000E+01 -2.346767009E-02
  3.023728300E+01 -6.042901023E-02
  1.226362200E+01 -1.170549104E-01
  5.265086000E+00 -1.555321506E-01
  2.333471000E+00 -2.468935009E-02
  9.018560000E-01  3.625054514E-01
  3.583360000E-01  5.550845021E-01
  1.410930000E-01  2.148376908E-01
  4.938300000E-02  8.983850034E-03
   p   9
  1.266665700E+02  1.233630000E-03
  2.983738900E+01  9.493409996E-03
  9.394038000E+00  4.293961998E-02
  3.405104000E+00  1.362925399E-01
  1.350000000E+00  2.921362499E-01
  5.576960000E-01  3.887887598E-01
  2.324490000E-01  2.946801399E-01
  9.426400000E-02  8.012875997E-02
  3.299200000E-02  5.405199998E-04
 
[MO]
Sym=     1a  
Ene=   -27.8090
Spin= Alpha
Occup=    2.00000
   1         1.00001021
   2        -0.00402699
   3        -0.00000000
   4         0.00000000
   5         0.00160344
   6        -0.00006208
   7        -0.00003322
   8        -0.00000000
   9         0.00000000
  10         0.00034935
Sym=     2a  
Ene=   -17.3920
Spin= Alpha
Occup=    2.00000
   1        -0.00010617
   2         0.00153879
   3         0.00000000
   4        -0.00000000
   5         0.00173394
   6         0.99967298
   7        -0.01861908
   8         0.00000000
   9        -0.00000000
  10        -0.00558389
Sym=     3a  
Ene=    -2.9164
Spin= Alpha
Occup=    2.00000
   1         0.01095524
   2        -0.81539520
   3        -0.00000000
   4         0.00000000
   5        -0.24032626
   6         0.03446267
   7        -0.10848121
   8        -0.00000000
   9        -0.00000000
  10         0.20312634
Sym=     4a  
Ene=    -1.9459
Spin= Alpha
Occup=    2.00000
   1         0.03206388
   2         0.59195107
   3        -0.00000000
   4         0.00000000
   5        -0.68115047
   6         0.02530410
   7        -0.12791897
   8        -0.00000000
   9         0.00000000
  10         0.46688482
Sym=     5a  
Ene=    -1.7997
Spin= Alpha
Occup=    2.00000
   1        -0.00000000
   2        -0.00000000
   3        -0.29668053
   4         0.84594131
   5         0.00000000
   6        -0.00000000
   7        -0.00000000
   8        -0.09389906
   9         0.26773948
  10        -0.00000000
Sym=     6a  
Ene=    -1.7921
Spin= Alpha
Occup=    2.00000
   1         0.00000000
   2         0.00000000
   3         0.82918337
   4         0.29080335
   5        -0.00000000
   6         0.00000000
   7         0.00000000
   8         0.29960573
   9         0.10507488
  10         0.00000000
Sym=     7a  
Ene=    -1.9301
Spin= Alpha
Occup=    1.96184
   1        -0.01261996
   2        -0.21208630
   3        -0.00000000
   4         0.00000000
   5        -0.15221325
   6         0.03387245
   7         0.98844272
   8        -0.00000000
   9         0.00000000
  10         0.33154644
Sym=     8a  
Ene=    -0.0000
Spin= Alpha
Occup=    0.03816
   1         0.00000000
   2        -0.00000000
   3         0.16583016
   4        -0.47284055
   5        -0.00000000
   6         0.00000000
   7         0.00000000
   8        -0.32665264
   9         0.93140241
  10         0.00000000
Sym=     9a  
Ene=    -1.0736
Spin= Alpha
Occup=    0.00000
   1        -0.00000000
   2        -0.00000000
   3        -0.50164710
   4        -0.17593292
   5         0.00000000
   6         0.00000000
   7         0.00000000
   8         0.92164597
   9         0.32323095
  10         0.00000000
Sym=    10a  
Ene=    -0.6770
Spin= Alpha
Occup=    0.00000
   1         0.07256852
   2         0.60873916
   3        -0.00000000
   4        -0.00000000
   5         0.88020105
   6        -0.07112512
   7        -0.61064646
   8        -0.00000000
   9        -0.00000000
  10         1.00105967
