[Molden Format]
[N_Atoms]
                     2
[Atoms] (AU)
LI1         1      3           0.00000000      0.00000000      0.00000000
LI2         2      3           0.00000000      0.00000000      4.53534270
[Charge] (Mulliken)
 -8.517631044924201E-013
  8.459899447643693E-013
[GTO] (AU)
   1
   s  14
  9.497934400E+03  9.668999974E-05
  1.416811200E+03  6.087099984E-04
  3.214599400E+02  3.101519992E-03
  9.112416300E+01  1.266904997E-02
  2.999989100E+01  4.248012989E-02
  1.101763100E+01  1.150183297E-01
  4.372801000E+00  2.398650094E-01
  1.831256000E+00  3.584300090E-01
  8.022610000E-01  3.048527792E-01
  3.626480000E-01  8.824261976E-02
  1.139950000E-01 -8.445899977E-04
  5.123700000E-02 -7.943959979E-03
  2.246800000E-02 -3.764419990E-03
  7.860000000E-03 -8.868999976E-05
   s  14
  9.497934400E+03 -1.244999993E-05
  1.416811200E+03 -7.838999954E-05
  3.214599400E+02 -4.007099976E-04
  9.112416300E+01 -1.645249990E-03
  2.999989100E+01 -5.634599967E-03
  1.101763100E+01 -1.590780991E-02
  4.372801000E+00 -3.612581979E-02
  1.831256000E+00 -6.459927962E-02
  8.022610000E-01 -1.008321794E-01
  3.626480000E-01 -9.757613942E-02
  1.139950000E-01  2.301215886E-01
  5.123700000E-02  6.102389764E-01
  2.246800000E-02  2.849406083E-01
  7.860000000E-03  4.026899976E-03
   p   9
  1.311950400E+01  1.524940000E-03
  3.077424200E+00  8.314830000E-03
  1.098800500E+00  1.933203000E-02
  4.357784000E-01  4.934293000E-02
  1.802432000E-01  1.623554000E-01
  7.613330000E-02  3.847505400E-01
  3.254650000E-02  4.336100400E-01
  1.401820000E-02  1.287005900E-01
  4.906400000E-03 -1.018520000E-03
 
   2
   s  14
  9.497934400E+03  9.668999974E-05
  1.416811200E+03  6.087099984E-04
  3.214599400E+02  3.101519992E-03
  9.112416300E+01  1.266904997E-02
  2.999989100E+01  4.248012989E-02
  1.101763100E+01  1.150183297E-01
  4.372801000E+00  2.398650094E-01
  1.831256000E+00  3.584300090E-01
  8.022610000E-01  3.048527792E-01
  3.626480000E-01  8.824261976E-02
  1.139950000E-01 -8.445899977E-04
  5.123700000E-02 -7.943959979E-03
  2.246800000E-02 -3.764419990E-03
  7.860000000E-03 -8.868999976E-05
   s  14
  9.497934400E+03 -1.244999993E-05
  1.416811200E+03 -7.838999954E-05
  3.214599400E+02 -4.007099976E-04
  9.112416300E+01 -1.645249990E-03
  2.999989100E+01 -5.634599967E-03
  1.101763100E+01 -1.590780991E-02
  4.372801000E+00 -3.612581979E-02
  1.831256000E+00 -6.459927962E-02
  8.022610000E-01 -1.008321794E-01
  3.626480000E-01 -9.757613942E-02
  1.139950000E-01  2.301215886E-01
  5.123700000E-02  6.102389764E-01
  2.246800000E-02  2.849406083E-01
  7.860000000E-03  4.026899976E-03
   p   9
  1.311950400E+01  1.524940000E-03
  3.077424200E+00  8.314830000E-03
  1.098800500E+00  1.933203000E-02
  4.357784000E-01  4.934293000E-02
  1.802432000E-01  1.623554000E-01
  7.613330000E-02  3.847505400E-01
  3.254650000E-02  4.336100400E-01
  1.401820000E-02  1.287005900E-01
  4.906400000E-03 -1.018520000E-03
 
[MO]
Sym=     1a  
Ene=    -2.4540
Spin= Alpha
Occup=    1.00000
   1         0.70682449
   2         0.00938140
   3         0.00000000
   4        -0.00000000
   5        -0.00048947
   6         0.70682449
   7         0.00938140
   8        -0.00000000
   9        -0.00000000
  10         0.00048947
Sym=     1a  
Ene=    -2.4540
Spin= Beta
Occup=    1.00000
   1         0.70682449
   2         0.00938140
   3         0.00000000
   4        -0.00000000
   5        -0.00048947
   6         0.70682449
   7         0.00938140
   8        -0.00000000
   9        -0.00000000
  10         0.00048947
Sym=     2a  
Ene=    -2.4531
Spin= Alpha
Occup=    1.00000
   1        -0.70654087
   2        -0.00468390
   3         0.00000000
   4        -0.00000000
   5         0.00277687
   6         0.70654087
   7         0.00468390
   8        -0.00000000
   9         0.00000000
  10         0.00277687
Sym=     2a  
Ene=    -2.4531
Spin= Beta
Occup=    1.00000
   1        -0.70654087
   2        -0.00468390
   3         0.00000000
   4        -0.00000000
   5         0.00277687
   6         0.70654087
   7         0.00468390
   8        -0.00000000
   9         0.00000000
  10         0.00277687
Sym=     3a  
Ene=    -0.1873
Spin= Alpha
Occup=    1.00000
   1        -0.07405153
   2         0.50045057
   3        -0.00000000
   4         0.00000000
   5         0.13964176
   6        -0.07405153
   7         0.50045057
   8         0.00000000
   9         0.00000000
  10        -0.13964176
Sym=     3a  
Ene=    -0.1873
Spin= Beta
Occup=    1.00000
   1        -0.07405153
   2         0.50045057
   3        -0.00000000
   4         0.00000000
   5         0.13964176
   6        -0.07405153
   7         0.50045057
   8         0.00000000
   9         0.00000000
  10        -0.13964176
Sym=     4a  
Ene=     0.0242
Spin= Alpha
Occup=    0.00000
   1         0.04234281
   2        -0.39465486
   3         0.00000000
   4         0.00000000
   5         0.47871104
   6        -0.04234281
   7         0.39465486
   8         0.00000000
   9         0.00000000
  10         0.47871104
Sym=     4a  
Ene=     0.0242
Spin= Beta
Occup=    0.00000
   1         0.04234281
   2        -0.39465486
   3         0.00000000
   4         0.00000000
   5         0.47871104
   6        -0.04234281
   7         0.39465486
   8         0.00000000
   9         0.00000000
  10         0.47871104
Sym=     5a  
Ene=     0.0410
Spin= Alpha
Occup=    0.00000
   1         0.00000000
   2         0.00000000
   3         0.46215578
   4         0.32008124
   5        -0.00000000
   6         0.00000000
   7        -0.00000000
   8         0.46215578
   9         0.32008124
  10         0.00000000
Sym=     5a  
Ene=     0.0410
Spin= Beta
Occup=    0.00000
   1         0.00000000
   2         0.00000000
   3         0.46215578
   4         0.32008124
   5        -0.00000000
   6         0.00000000
   7        -0.00000000
   8         0.46215578
   9         0.32008124
  10         0.00000000
Sym=     6a  
Ene=     0.0410
Spin= Alpha
Occup=    0.00000
   1        -0.00000000
   2         0.00000000
   3        -0.32008124
   4         0.46215578
   5        -0.00000000
   6         0.00000000
   7        -0.00000000
   8        -0.32008124
   9         0.46215578
  10        -0.00000000
Sym=     6a  
Ene=     0.0410
Spin= Beta
Occup=    0.00000
   1        -0.00000000
   2         0.00000000
   3        -0.32008124
   4         0.46215578
   5        -0.00000000
   6         0.00000000
   7        -0.00000000
   8        -0.32008124
   9         0.46215578
  10        -0.00000000
Sym=     7a  
Ene=     0.0818
Spin= Alpha
Occup=    0.00000
   1         0.08296715
   2         0.36077378
   3        -0.00000000
   4         0.00000000
   5        -0.79012383
   6         0.08296715
   7         0.36077378
   8        -0.00000000
   9        -0.00000000
  10         0.79012383
Sym=     7a  
Ene=     0.0818
Spin= Beta
Occup=    0.00000
   1         0.08296715
   2         0.36077378
   3        -0.00000000
   4         0.00000000
   5        -0.79012383
   6         0.08296715
   7         0.36077378
   8        -0.00000000
   9        -0.00000000
  10         0.79012383
Sym=     8a  
Ene=     0.1385
Spin= Alpha
Occup=    0.00000
   1        -0.00000000
   2        -0.00000000
   3        -1.02578066
   4        -0.37969815
   5        -0.00000000
   6         0.00000000
   7         0.00000000
   8         1.02578066
   9         0.37969815
  10         0.00000000
Sym=     8a  
Ene=     0.1385
Spin= Beta
Occup=    0.00000
   1        -0.00000000
   2        -0.00000000
   3        -1.02578066
   4        -0.37969815
   5        -0.00000000
   6         0.00000000
   7         0.00000000
   8         1.02578066
   9         0.37969815
  10         0.00000000
Sym=     9a  
Ene=     0.1385
Spin= Alpha
Occup=    0.00000
   1         0.00000000
   2         0.00000000
   3         0.37969815
   4        -1.02578066
   5        -0.00000000
   6         0.00000000
   7         0.00000000
   8        -0.37969815
   9         1.02578066
  10         0.00000000
Sym=     9a  
Ene=     0.1385
Spin= Beta
Occup=    0.00000
   1         0.00000000
   2         0.00000000
   3         0.37969815
   4        -1.02578066
   5        -0.00000000
   6         0.00000000
   7         0.00000000
   8        -0.37969815
   9         1.02578066
  10         0.00000000
Sym=    10a  
Ene=     0.3437
Spin= Alpha
Occup=    0.00000
   1         0.55517908
   2         3.26049328
   3        -0.00000000
   4        -0.00000000
   5         1.93043630
   6        -0.55517908
   7        -3.26049328
   8         0.00000000
   9         0.00000000
  10         1.93043630
Sym=    10a  
Ene=     0.3437
Spin= Beta
Occup=    0.00000
   1         0.55517908
   2         3.26049328
   3        -0.00000000
   4        -0.00000000
   5         1.93043630
   6        -0.55517908
   7        -3.26049328
   8         0.00000000
   9         0.00000000
  10         1.93043630
