[Molden Format]
[N_Atoms]
                     2
[Atoms] (AU)
LI1         1      3           0.00000000      0.00000000      0.00000000
LI2         2      3           0.00000000      0.00000000      4.53534270
[Charge] (Mulliken)
  0.999951888654754     
   1.00004811134524     
[GTO] (AU)
   1
   s  14
  9.497934400E+03  9.668999974E-05
  1.416811200E+03  6.087099984E-04
  3.214599400E+02  3.101519992E-03
  9.112416300E+01  1.266904997E-02
  2.999989100E+01  4.248012989E-02
  1.101763100E+01  1.150183297E-01
  4.372801000E+00  2.398650094E-01
  1.831256000E+00  3.584300090E-01
  8.022610000E-01  3.048527792E-01
  3.626480000E-01  8.824261976E-02
  1.139950000E-01 -8.445899977E-04
  5.123700000E-02 -7.943959979E-03
  2.246800000E-02 -3.764419990E-03
  7.860000000E-03 -8.868999976E-05
   s  14
  9.497934400E+03 -1.244999993E-05
  1.416811200E+03 -7.838999954E-05
  3.214599400E+02 -4.007099976E-04
  9.112416300E+01 -1.645249990E-03
  2.999989100E+01 -5.634599967E-03
  1.101763100E+01 -1.590780991E-02
  4.372801000E+00 -3.612581979E-02
  1.831256000E+00 -6.459927962E-02
  8.022610000E-01 -1.008321794E-01
  3.626480000E-01 -9.757613942E-02
  1.139950000E-01  2.301215886E-01
  5.123700000E-02  6.102389764E-01
  2.246800000E-02  2.849406083E-01
  7.860000000E-03  4.026899976E-03
   p   9
  1.311950400E+01  1.524940000E-03
  3.077424200E+00  8.314830000E-03
  1.098800500E+00  1.933203000E-02
  4.357784000E-01  4.934293000E-02
  1.802432000E-01  1.623554000E-01
  7.613330000E-02  3.847505400E-01
  3.254650000E-02  4.336100400E-01
  1.401820000E-02  1.287005900E-01
  4.906400000E-03 -1.018520000E-03
 
   2
   s  14
  9.497934400E+03  9.668999974E-05
  1.416811200E+03  6.087099984E-04
  3.214599400E+02  3.101519992E-03
  9.112416300E+01  1.266904997E-02
  2.999989100E+01  4.248012989E-02
  1.101763100E+01  1.150183297E-01
  4.372801000E+00  2.398650094E-01
  1.831256000E+00  3.584300090E-01
  8.022610000E-01  3.048527792E-01
  3.626480000E-01  8.824261976E-02
  1.139950000E-01 -8.445899977E-04
  5.123700000E-02 -7.943959979E-03
  2.246800000E-02 -3.764419990E-03
  7.860000000E-03 -8.868999976E-05
   s  14
  9.497934400E+03 -1.244999993E-05
  1.416811200E+03 -7.838999954E-05
  3.214599400E+02 -4.007099976E-04
  9.112416300E+01 -1.645249990E-03
  2.999989100E+01 -5.634599967E-03
  1.101763100E+01 -1.590780991E-02
  4.372801000E+00 -3.612581979E-02
  1.831256000E+00 -6.459927962E-02
  8.022610000E-01 -1.008321794E-01
  3.626480000E-01 -9.757613942E-02
  1.139950000E-01  2.301215886E-01
  5.123700000E-02  6.102389764E-01
  2.246800000E-02  2.849406083E-01
  7.860000000E-03  4.026899976E-03
   p   9
  1.311950400E+01  1.524940000E-03
  3.077424200E+00  8.314830000E-03
  1.098800500E+00  1.933203000E-02
  4.357784000E-01  4.934293000E-02
  1.802432000E-01  1.623554000E-01
  7.613330000E-02  3.847505400E-01
  3.254650000E-02  4.336100400E-01
  1.401820000E-02  1.287005900E-01
  4.906400000E-03 -1.018520000E-03
 
[MO]
Sym=     1a  
Ene=    -3.0139
Spin= Alpha
Occup=    2.00000
   1        -0.00378645
   2        -0.00331160
   3        -0.00000000
   4         0.00000000
   5        -0.00099919
   6         1.00034324
   7         0.01460924
   8         0.00000000
   9         0.00000000
  10        -0.00409873
Sym=     2a  
Ene=    -3.0140
Spin= Alpha
Occup=    1.99999
   1        -1.00035253
   2        -0.01483431
   3        -0.00000000
   4        -0.00000000
   5        -0.00420689
   6        -0.00149558
   7         0.00338104
   8        -0.00000000
   9         0.00000000
  10        -0.00100928
Sym=     3a  
Ene=    -0.0009
Spin= Alpha
Occup=    0.00001
   1         0.12538016
   2         1.77923907
   3        -0.00000000
   4         0.00000000
   5         0.81410807
   6        -0.27468744
   7        -1.13193838
   8        -0.00000000
   9        -0.00000000
  10         0.28904877
Sym=     4a  
Ene=    -0.3437
Spin= Alpha
Occup=    0.00000
   1        -0.12491742
   2        -0.74922428
   3         0.00000000
   4        -0.00000000
   5         0.17913362
   6         0.02701666
   7         1.18660447
   8         0.00000000
   9        -0.00000000
  10        -0.15706046
Sym=     5a  
Ene=    -0.3194
Spin= Alpha
Occup=    0.00000
   1        -0.00000000
   2        -0.00000000
   3        -0.47789292
   4        -0.29613450
   5         0.00000000
   6         0.00000000
   7        -0.00000000
   8        -0.47783650
   9        -0.29609953
  10        -0.00000000
Sym=     6a  
Ene=    -0.3194
Spin= Alpha
Occup=    0.00000
   1        -0.00000000
   2        -0.00000000
   3        -0.29613450
   4         0.47789292
   5         0.00000000
   6         0.00000000
   7         0.00000000
   8        -0.29609953
   9         0.47783650
  10         0.00000000
Sym=     7a  
Ene=    -0.2767
Spin= Alpha
Occup=    0.00000
   1        -0.06564693
   2        -0.47268356
   3         0.00000000
   4        -0.00000000
   5         0.73778825
   6        -0.06569740
   7        -0.46371259
   8         0.00000000
   9         0.00000000
  10        -0.73268072
Sym=     8a  
Ene=    -0.2373
Spin= Alpha
Occup=    0.00000
   1        -0.00000000
   2         0.00000000
   3        -1.01998542
   4        -0.39495450
   5        -0.00000000
   6         0.00000000
   7         0.00000000
   8         1.02001724
   9         0.39496682
  10        -0.00000000
Sym=     9a  
Ene=    -0.2373
Spin= Alpha
Occup=    0.00000
   1         0.00000000
   2        -0.00000000
   3        -0.39495450
   4         1.01998542
   5         0.00000000
   6        -0.00000000
   7        -0.00000000
   8         0.39496682
   9        -1.02001724
  10         0.00000000
Sym=    10a  
Ene=    -0.0830
Spin= Alpha
Occup=    0.00000
   1        -0.53369577
   2        -2.68637262
   3         0.00000000
   4         0.00000000
   5        -1.83312329
   6         0.48989457
   7         2.87449446
   8        -0.00000000
   9        -0.00000000
  10        -1.98859146
