[Molden Format]
[N_Atoms]
                     2
[Atoms] (AU)
O1          1      8           0.00000000      0.00000000      0.00000000
O2          2      8           0.00000000      0.00000000      4.34637009
[Charge] (Mulliken)
  2.699795942362471E-011
 -2.701128209992021E-011
[GTO] (AU)
   1
   s  14
  1.053749500E+05  1.238600013E-04
  1.567924000E+04  5.120100053E-04
  3.534544700E+03  2.152910022E-03
  9.873651600E+02  8.528440089E-03
  3.159787500E+02  3.018049031E-02
  1.116542800E+02  9.099702095E-02
  4.269945100E+01  2.177936423E-01
  1.739559600E+01  3.686245738E-01
  7.438309000E+00  3.366707335E-01
  3.222862000E+00  9.657630101E-02
  1.253877000E+00  2.144520022E-03
  4.951550000E-01  1.194350012E-03
  1.916650000E-01  5.390200056E-04
  6.708300000E-02  2.103400022E-04
   s  14
  1.053749500E+05 -2.815000008E-05
  1.567924000E+04 -1.163000003E-04
  3.534544700E+03 -4.909200013E-04
  9.873651600E+02 -1.946160005E-03
  3.159787500E+02 -7.005300019E-03
  1.116542800E+02 -2.167814006E-02
  4.269945100E+01 -5.641213015E-02
  1.739559600E+01 -1.127053003E-01
  7.438309000E+00 -1.589119704E-01
  3.222862000E+00 -3.355083009E-02
  1.253877000E+00  3.531902810E-01
  4.951550000E-01  5.534199315E-01
  1.916650000E-01  2.301839106E-01
  6.708300000E-02  1.127267003E-02
   p   9
  2.000000000E+02  9.173000030E-04
  4.653336700E+01  7.377140024E-03
  1.462180900E+01  3.483515011E-02
  5.313064000E+00  1.144397004E-01
  2.102525000E+00  2.554966408E-01
  8.502230000E-01  3.722557412E-01
  3.375970000E-01  3.323314911E-01
  1.288920000E-01  1.400847905E-01
  4.511200000E-02  2.395784008E-02
 
   2
   s  14
  1.053749500E+05  1.238600013E-04
  1.567924000E+04  5.120100053E-04
  3.534544700E+03  2.152910022E-03
  9.873651600E+02  8.528440089E-03
  3.159787500E+02  3.018049031E-02
  1.116542800E+02  9.099702095E-02
  4.269945100E+01  2.177936423E-01
  1.739559600E+01  3.686245738E-01
  7.438309000E+00  3.366707335E-01
  3.222862000E+00  9.657630101E-02
  1.253877000E+00  2.144520022E-03
  4.951550000E-01  1.194350012E-03
  1.916650000E-01  5.390200056E-04
  6.708300000E-02  2.103400022E-04
   s  14
  1.053749500E+05 -2.815000008E-05
  1.567924000E+04 -1.163000003E-04
  3.534544700E+03 -4.909200013E-04
  9.873651600E+02 -1.946160005E-03
  3.159787500E+02 -7.005300019E-03
  1.116542800E+02 -2.167814006E-02
  4.269945100E+01 -5.641213015E-02
  1.739559600E+01 -1.127053003E-01
  7.438309000E+00 -1.589119704E-01
  3.222862000E+00 -3.355083009E-02
  1.253877000E+00  3.531902810E-01
  4.951550000E-01  5.534199315E-01
  1.916650000E-01  2.301839106E-01
  6.708300000E-02  1.127267003E-02
   p   9
  2.000000000E+02  9.173000030E-04
  4.653336700E+01  7.377140024E-03
  1.462180900E+01  3.483515011E-02
  5.313064000E+00  1.144397004E-01
  2.102525000E+00  2.554966408E-01
  8.502230000E-01  3.722557412E-01
  3.375970000E-01  3.323314911E-01
  1.288920000E-01  1.400847905E-01
  4.511200000E-02  2.395784008E-02
 
[MO]
Sym=     1a  
Ene=   -20.7860
Spin= Alpha
Occup=    1.00000
   1         0.70710165
   2        -0.00036020
   3         0.00000000
   4        -0.00000000
   5         0.00015998
   6         0.70710179
   7        -0.00036020
   8         0.00000000
   9        -0.00000000
  10        -0.00015998
Sym=     1a  
Ene=   -20.7860
Spin= Beta
Occup=    1.00000
   1         0.70710165
   2        -0.00036020
   3         0.00000000
   4        -0.00000000
   5         0.00015998
   6         0.70710179
   7        -0.00036020
   8         0.00000000
   9        -0.00000000
  10        -0.00015998
Sym=     2a  
Ene=   -20.7860
Spin= Alpha
Occup=    1.00000
   1        -0.70711199
   2         0.00027934
   3         0.00000000
   4        -0.00000000
   5        -0.00018842
   6         0.70711185
   7        -0.00027934
   8        -0.00000000
   9        -0.00000000
  10        -0.00018842
Sym=     2a  
Ene=   -20.7860
Spin= Beta
Occup=    1.00000
   1        -0.70711199
   2         0.00027934
   3         0.00000000
   4        -0.00000000
   5        -0.00018842
   6         0.70711185
   7        -0.00027934
   8        -0.00000000
   9        -0.00000000
  10        -0.00018842
Sym=     3a  
Ene=    -1.3182
Spin= Alpha
Occup=    1.00000
   1        -0.00066451
   2         0.69297433
   3        -0.00000000
   4        -0.00000000
   5         0.02001192
   6        -0.00066451
   7         0.69297433
   8        -0.00000000
   9         0.00000000
  10        -0.02001192
Sym=     3a  
Ene=    -1.3182
Spin= Beta
Occup=    1.00000
   1        -0.00066451
   2         0.69297433
   3        -0.00000000
   4        -0.00000000
   5         0.02001192
   6        -0.00066451
   7         0.69297433
   8        -0.00000000
   9         0.00000000
  10        -0.02001192
Sym=     4a  
Ene=    -1.2728
Spin= Alpha
Occup=    1.00000
   1        -0.00106610
   2        -0.71729547
   3         0.00000000
   4        -0.00000000
   5         0.02596822
   6         0.00106610
   7         0.71729547
   8        -0.00000000
   9        -0.00000000
  10         0.02596822
Sym=     4a  
Ene=    -1.2728
Spin= Beta
Occup=    1.00000
   1        -0.00106610
   2        -0.71729547
   3         0.00000000
   4        -0.00000000
   5         0.02596822
   6         0.00106610
   7         0.71729547
   8        -0.00000000
   9        -0.00000000
  10         0.02596822
Sym=     5a  
Ene=    -0.6278
Spin= Alpha
Occup=    1.00000
   1        -0.00000000
   2         0.00000000
   3         0.66064648
   4         0.21324972
   5        -0.00000000
   6        -0.00000000
   7         0.00000000
   8         0.66064648
   9         0.21324972
  10        -0.00000000
Sym=     5a  
Ene=    -0.6278
Spin= Beta
Occup=    1.00000
   1        -0.00000000
   2         0.00000000
   3         0.66064648
   4         0.21324972
   5        -0.00000000
   6        -0.00000000
   7         0.00000000
   8         0.66064648
   9         0.21324972
  10        -0.00000000
Sym=     6a  
Ene=    -0.6055
Spin= Alpha
Occup=    1.00000
   1         0.00000000
   2        -0.00000000
   3        -0.68590095
   4        -0.22140160
   5         0.00000000
   6         0.00000000
   7        -0.00000000
   8         0.68590095
   9         0.22140160
  10         0.00000000
Sym=     6a  
Ene=    -0.6055
Spin= Beta
Occup=    1.00000
   1         0.00000000
   2        -0.00000000
   3        -0.68590095
   4        -0.22140160
   5         0.00000000
   6         0.00000000
   7        -0.00000000
   8         0.68590095
   9         0.22140160
  10         0.00000000
Sym=     7a  
Ene=    -0.4843
Spin= Alpha
Occup=    1.00000
   1         0.00410432
   2         0.07516658
   3        -0.00000000
   4         0.00000000
   5        -0.67421693
   6         0.00410432
   7         0.07516658
   8         0.00000000
   9        -0.00000000
  10         0.67421693
Sym=     7a  
Ene=    -0.4843
Spin= Beta
Occup=    1.00000
   1         0.00410432
   2         0.07516658
   3        -0.00000000
   4         0.00000000
   5        -0.67421693
   6         0.00410432
   7         0.07516658
   8         0.00000000
   9        -0.00000000
  10         0.67421693
Sym=     8a  
Ene=    -0.4383
Spin= Alpha
Occup=    1.00000
   1        -0.00000000
   2        -0.00000000
   3        -0.21324972
   4         0.66064648
   5        -0.00000000
   6         0.00000000
   7         0.00000000
   8        -0.21324972
   9         0.66064648
  10        -0.00000000
Sym=     8a  
Ene=    -0.4383
Spin= Beta
Occup=    1.00000
   1        -0.00000000
   2        -0.00000000
   3        -0.21324972
   4         0.66064648
   5        -0.00000000
   6         0.00000000
   7         0.00000000
   8        -0.21324972
   9         0.66064648
  10        -0.00000000
Sym=     9a  
Ene=    -0.1892
Spin= Alpha
Occup=    0.00000
   1         0.00000000
   2         0.00000000
   3         0.22140160
   4        -0.68590095
   5        -0.00000000
   6         0.00000000
   7         0.00000000
   8        -0.22140160
   9         0.68590095
  10         0.00000000
Sym=     9a  
Ene=    -0.1892
Spin= Beta
Occup=    0.00000
   1         0.00000000
   2         0.00000000
   3         0.22140160
   4        -0.68590095
   5        -0.00000000
   6         0.00000000
   7         0.00000000
   8        -0.22140160
   9         0.68590095
  10         0.00000000
Sym=    10a  
Ene=    -0.1297
Spin= Alpha
Occup=    0.00000
   1         0.00442659
   2         0.09008824
   3        -0.00000000
   4         0.00000000
   5         0.75039317
   6        -0.00442659
   7        -0.09008824
   8        -0.00000000
   9         0.00000000
  10         0.75039317
Sym=    10a  
Ene=    -0.1297
Spin= Beta
Occup=    0.00000
   1         0.00442659
   2         0.09008824
   3        -0.00000000
   4         0.00000000
   5         0.75039317
   6        -0.00442659
   7        -0.09008824
   8        -0.00000000
   9         0.00000000
  10         0.75039317
