[Molden Format]
[N_Atoms]
                     2
[Atoms] (AU)
O1          1      8           0.00000000      0.00000000      0.00000000
O2          2      8           0.00000000      0.00000000      4.34637009
[Charge] (Mulliken)
   1.00056352409610     
  0.999436475903879     
[GTO] (AU)
   1
   s  14
  1.053749500E+05  1.238600013E-04
  1.567924000E+04  5.120100053E-04
  3.534544700E+03  2.152910022E-03
  9.873651600E+02  8.528440089E-03
  3.159787500E+02  3.018049031E-02
  1.116542800E+02  9.099702095E-02
  4.269945100E+01  2.177936423E-01
  1.739559600E+01  3.686245738E-01
  7.438309000E+00  3.366707335E-01
  3.222862000E+00  9.657630101E-02
  1.253877000E+00  2.144520022E-03
  4.951550000E-01  1.194350012E-03
  1.916650000E-01  5.390200056E-04
  6.708300000E-02  2.103400022E-04
   s  14
  1.053749500E+05 -2.815000008E-05
  1.567924000E+04 -1.163000003E-04
  3.534544700E+03 -4.909200013E-04
  9.873651600E+02 -1.946160005E-03
  3.159787500E+02 -7.005300019E-03
  1.116542800E+02 -2.167814006E-02
  4.269945100E+01 -5.641213015E-02
  1.739559600E+01 -1.127053003E-01
  7.438309000E+00 -1.589119704E-01
  3.222862000E+00 -3.355083009E-02
  1.253877000E+00  3.531902810E-01
  4.951550000E-01  5.534199315E-01
  1.916650000E-01  2.301839106E-01
  6.708300000E-02  1.127267003E-02
   p   9
  2.000000000E+02  9.173000030E-04
  4.653336700E+01  7.377140024E-03
  1.462180900E+01  3.483515011E-02
  5.313064000E+00  1.144397004E-01
  2.102525000E+00  2.554966408E-01
  8.502230000E-01  3.722557412E-01
  3.375970000E-01  3.323314911E-01
  1.288920000E-01  1.400847905E-01
  4.511200000E-02  2.395784008E-02
 
   2
   s  14
  1.053749500E+05  1.238600013E-04
  1.567924000E+04  5.120100053E-04
  3.534544700E+03  2.152910022E-03
  9.873651600E+02  8.528440089E-03
  3.159787500E+02  3.018049031E-02
  1.116542800E+02  9.099702095E-02
  4.269945100E+01  2.177936423E-01
  1.739559600E+01  3.686245738E-01
  7.438309000E+00  3.366707335E-01
  3.222862000E+00  9.657630101E-02
  1.253877000E+00  2.144520022E-03
  4.951550000E-01  1.194350012E-03
  1.916650000E-01  5.390200056E-04
  6.708300000E-02  2.103400022E-04
   s  14
  1.053749500E+05 -2.815000008E-05
  1.567924000E+04 -1.163000003E-04
  3.534544700E+03 -4.909200013E-04
  9.873651600E+02 -1.946160005E-03
  3.159787500E+02 -7.005300019E-03
  1.116542800E+02 -2.167814006E-02
  4.269945100E+01 -5.641213015E-02
  1.739559600E+01 -1.127053003E-01
  7.438309000E+00 -1.589119704E-01
  3.222862000E+00 -3.355083009E-02
  1.253877000E+00  3.531902810E-01
  4.951550000E-01  5.534199315E-01
  1.916650000E-01  2.301839106E-01
  6.708300000E-02  1.127267003E-02
   p   9
  2.000000000E+02  9.173000030E-04
  4.653336700E+01  7.377140024E-03
  1.462180900E+01  3.483515011E-02
  5.313064000E+00  1.144397004E-01
  2.102525000E+00  2.554966408E-01
  8.502230000E-01  3.722557412E-01
  3.375970000E-01  3.323314911E-01
  1.288920000E-01  1.400847905E-01
  4.511200000E-02  2.395784008E-02
 
[MO]
Sym=     1a  
Ene=   -22.0590
Spin= Alpha
Occup=    2.00000
   1         0.01916448
   2        -0.00030656
   3         0.00000000
   4         0.00000000
   5         0.00007420
   6         0.99981395
   7        -0.00202418
   8         0.00000000
   9         0.00000000
  10        -0.00023024
Sym=     2a  
Ene=   -22.0560
Spin= Alpha
Occup=    2.00000
   1        -0.99969172
   2         0.01536476
   3        -0.00000000
   4        -0.00000000
   5        -0.00094550
   6         0.01916439
   7        -0.00037248
   8        -0.00000000
   9        -0.00000000
  10         0.00107399
Sym=     3a  
Ene=    -2.1996
Spin= Alpha
Occup=    2.00000
   1         0.00144289
   2         0.00163565
   3        -0.00000000
   4        -0.00000000
   5        -0.02082288
   6        -0.00189176
   7        -0.99716236
   8         0.00000000
   9         0.00000001
  10         0.04117541
Sym=     4a  
Ene=    -1.5247
Spin= Alpha
Occup=    2.00000
   1         0.00000000
   2        -0.00000000
   3         0.84580358
   4        -0.53370789
   5        -0.00000000
   6         0.00000000
   7         0.00000000
   8        -0.00268182
   9         0.00169265
  10         0.00000000
Sym=     5a  
Ene=    -1.5245
Spin= Alpha
Occup=    2.00000
   1         0.00000000
   2         0.00000001
   3        -0.00179241
   4        -0.00283991
   5        -0.00000008
   6         0.00000000
   7         0.00000004
   8         0.53371132
   9         0.84580898
  10         0.00000054
Sym=     6a  
Ene=    -1.4031
Spin= Alpha
Occup=    2.00000
   1         0.00377121
   2        -0.04961942
   3        -0.00000008
   4        -0.00000012
   5        -0.67152427
   6         0.00436001
   7         0.10388780
   8        -0.00000024
   9        -0.00000038
  10         0.66880621
Sym=     7a  
Ene=    -2.1779
Spin= Alpha
Occup=    1.97473
   1        -0.01585921
   2        -1.00159127
   3         0.00000001
   4         0.00000002
   5         0.05934830
   6         0.00091422
   7         0.02731944
   8         0.00000001
   9         0.00000001
  10        -0.08044425
Sym=     8a  
Ene=    -0.0000
Spin= Alpha
Occup=    0.02527
   1         0.00000000
   2        -0.00000000
   3        -0.53401965
   4        -0.84629766
   5         0.00000025
   6        -0.00000000
   7        -0.00000002
   8         0.01823315
   9         0.02889533
  10         0.00000005
Sym=     9a  
Ene=    -1.0709
Spin= Alpha
Occup=    0.00000
   1         0.00441738
   2         0.05105223
   3         0.00000011
   4         0.00000017
   5         0.75088727
   6        -0.00441674
   7        -0.05114979
   8        -0.00000017
   9        -0.00000027
  10         0.75050890
Sym=    10a  
Ene=    -0.9230
Spin= Alpha
Occup=    0.00000
   1         0.00000000
   2         0.00000000
   3        -0.02905334
   4         0.01833286
   5         0.00000000
   6        -0.00000000
   7         0.00000000
   8         0.84629816
   9        -0.53402000
  10         0.00000000
