[Molden Format]
[N_Atoms]
                     2
[Atoms] (AU)
BE1         1      4           0.00000000      0.00000000      0.00000000
BE2         2      4           0.00000000      0.00000000      4.72431531
[Charge] (Mulliken)
  1.731947918415244E-013
 -1.794120407794253E-013
[GTO] (AU)
   1
   s  14
  2.262859900E+04  8.443999941E-05
  3.372318100E+03  4.601499968E-04
  7.603504000E+02  2.285389984E-03
  2.117404800E+02  9.648129932E-03
  6.722346800E+01  3.494469975E-02
  2.337217700E+01  1.061099893E-01
  8.721373000E+00  2.458240383E-01
  3.468091000E+00  3.862428773E-01
  1.452144000E+00  3.105526078E-01
  6.086150000E-01  6.415933955E-02
  2.576860000E-01 -2.265049984E-03
  1.041760000E-01 -5.217499963E-04
  4.242700000E-02 -8.757499938E-04
  1.484900000E-02  1.242199991E-04
   s  14
  2.262859900E+04 -1.586999994E-05
  3.372318100E+03 -8.656999968E-05
  7.603504000E+02 -4.302199984E-04
  2.117404800E+02 -1.825079993E-03
  6.722346800E+01 -6.682749976E-03
  2.337217700E+01 -2.095119992E-02
  8.721373000E+00 -5.200308981E-02
  3.468091000E+00 -9.849176964E-02
  1.452144000E+00 -1.355800695E-01
  6.086150000E-01 -6.429875976E-02
  2.576860000E-01  3.125414989E-01
  1.041760000E-01  6.270468577E-01
  4.242700000E-02  2.110231492E-01
  1.484900000E-02 -4.104669985E-03
   p   9
  3.371018400E+01  1.069960000E-03
  8.057649500E+00  6.828550001E-03
  2.836471400E+00  2.119065000E-02
  1.099965700E+00  5.843696001E-02
  4.433964000E-01  2.020920800E-01
  1.822264000E-01  4.582953101E-01
  7.572410000E-02  3.691239601E-01
  3.168540000E-02  6.611471001E-02
  1.108990000E-02  1.405160000E-03
 
   2
   s  14
  2.262859900E+04  8.443999941E-05
  3.372318100E+03  4.601499968E-04
  7.603504000E+02  2.285389984E-03
  2.117404800E+02  9.648129932E-03
  6.722346800E+01  3.494469975E-02
  2.337217700E+01  1.061099893E-01
  8.721373000E+00  2.458240383E-01
  3.468091000E+00  3.862428773E-01
  1.452144000E+00  3.105526078E-01
  6.086150000E-01  6.415933955E-02
  2.576860000E-01 -2.265049984E-03
  1.041760000E-01 -5.217499963E-04
  4.242700000E-02 -8.757499938E-04
  1.484900000E-02  1.242199991E-04
   s  14
  2.262859900E+04 -1.586999994E-05
  3.372318100E+03 -8.656999968E-05
  7.603504000E+02 -4.302199984E-04
  2.117404800E+02 -1.825079993E-03
  6.722346800E+01 -6.682749976E-03
  2.337217700E+01 -2.095119992E-02
  8.721373000E+00 -5.200308981E-02
  3.468091000E+00 -9.849176964E-02
  1.452144000E+00 -1.355800695E-01
  6.086150000E-01 -6.429875976E-02
  2.576860000E-01  3.125414989E-01
  1.041760000E-01  6.270468577E-01
  4.242700000E-02  2.110231492E-01
  1.484900000E-02 -4.104669985E-03
   p   9
  3.371018400E+01  1.069960000E-03
  8.057649500E+00  6.828550001E-03
  2.836471400E+00  2.119065000E-02
  1.099965700E+00  5.843696001E-02
  4.433964000E-01  2.020920800E-01
  1.822264000E-01  4.582953101E-01
  7.572410000E-02  3.691239601E-01
  3.168540000E-02  6.611471001E-02
  1.108990000E-02  1.405160000E-03
 
[MO]
Sym=     1a  
Ene=    -4.7118
Spin= Alpha
Occup=    1.00000
   1         0.70707643
   2         0.00167069
   3        -0.00000000
   4        -0.00000000
   5         0.00034576
   6         0.70707656
   7         0.00167069
   8         0.00000000
   9         0.00000000
  10        -0.00034576
Sym=     1a  
Ene=    -4.7118
Spin= Beta
Occup=    1.00000
   1         0.70707643
   2         0.00167069
   3        -0.00000000
   4        -0.00000000
   5         0.00034576
   6         0.70707656
   7         0.00167069
   8         0.00000000
   9         0.00000000
  10        -0.00034576
Sym=     2a  
Ene=    -4.7118
Spin= Alpha
Occup=    1.00000
   1        -0.70713844
   2        -0.00165818
   3        -0.00000000
   4        -0.00000000
   5        -0.00044396
   6         0.70713831
   7         0.00165818
   8         0.00000000
   9         0.00000000
  10        -0.00044396
Sym=     2a  
Ene=    -4.7118
Spin= Beta
Occup=    1.00000
   1        -0.70713844
   2        -0.00165818
   3        -0.00000000
   4        -0.00000000
   5        -0.00044396
   6         0.70713831
   7         0.00165818
   8         0.00000000
   9         0.00000000
  10        -0.00044396
Sym=     3a  
Ene=    -0.3829
Spin= Alpha
Occup=    1.00000
   1        -0.02496670
   2         0.57266060
   3        -0.00000000
   4         0.00000000
   5         0.10331658
   6        -0.02496670
   7         0.57266060
   8         0.00000000
   9         0.00000000
  10        -0.10331658
Sym=     3a  
Ene=    -0.3829
Spin= Beta
Occup=    1.00000
   1        -0.02496670
   2         0.57266060
   3        -0.00000000
   4         0.00000000
   5         0.10331658
   6        -0.02496670
   7         0.57266060
   8         0.00000000
   9         0.00000000
  10        -0.10331658
Sym=     4a  
Ene=    -0.2381
Spin= Alpha
Occup=    1.00000
   1        -0.01332463
   2        -0.77496912
   3        -0.00000000
   4         0.00000000
   5         0.14434202
   6         0.01332463
   7         0.77496912
   8         0.00000000
   9         0.00000000
  10         0.14434202
Sym=     4a  
Ene=    -0.2381
Spin= Beta
Occup=    1.00000
   1        -0.01332463
   2        -0.77496912
   3        -0.00000000
   4         0.00000000
   5         0.14434202
   6         0.01332463
   7         0.77496912
   8         0.00000000
   9         0.00000000
  10         0.14434202
Sym=     5a  
Ene=     0.0493
Spin= Alpha
Occup=    0.00000
   1         0.02878266
   2         0.28706893
   3         0.00000000
   4        -0.00000000
   5        -0.63821270
   6         0.02878266
   7         0.28706893
   8         0.00000000
   9        -0.00000000
  10         0.63821270
Sym=     5a  
Ene=     0.0493
Spin= Beta
Occup=    0.00000
   1         0.02878266
   2         0.28706893
   3         0.00000000
   4        -0.00000000
   5        -0.63821270
   6         0.02878266
   7         0.28706893
   8         0.00000000
   9        -0.00000000
  10         0.63821270
Sym=     6a  
Ene=     0.0583
Spin= Alpha
Occup=    0.00000
   1        -0.00000000
   2        -0.00000000
   3         0.49486473
   4        -0.39919931
   5         0.00000000
   6        -0.00000000
   7        -0.00000000
   8         0.49486473
   9        -0.39919931
  10        -0.00000000
Sym=     6a  
Ene=     0.0583
Spin= Beta
Occup=    0.00000
   1        -0.00000000
   2        -0.00000000
   3         0.49486473
   4        -0.39919931
   5         0.00000000
   6        -0.00000000
   7        -0.00000000
   8         0.49486473
   9        -0.39919931
  10        -0.00000000
Sym=     7a  
Ene=     0.0583
Spin= Alpha
Occup=    0.00000
   1         0.00000000
   2         0.00000000
   3         0.39919931
   4         0.49486473
   5        -0.00000000
   6         0.00000000
   7         0.00000000
   8         0.39919931
   9         0.49486473
  10         0.00000000
Sym=     7a  
Ene=     0.0583
Spin= Beta
Occup=    0.00000
   1         0.00000000
   2         0.00000000
   3         0.39919931
   4         0.49486473
   5        -0.00000000
   6         0.00000000
   7         0.00000000
   8         0.39919931
   9         0.49486473
  10         0.00000000
Sym=     8a  
Ene=     0.1574
Spin= Alpha
Occup=    0.00000
   1        -0.00000000
   2        -0.00000000
   3        -0.67363013
   4         0.44878249
   5        -0.00000000
   6         0.00000000
   7         0.00000000
   8         0.67363013
   9        -0.44878249
  10        -0.00000000
Sym=     8a  
Ene=     0.1574
Spin= Beta
Occup=    0.00000
   1        -0.00000000
   2        -0.00000000
   3        -0.67363013
   4         0.44878249
   5        -0.00000000
   6         0.00000000
   7         0.00000000
   8         0.67363013
   9        -0.44878249
  10        -0.00000000
Sym=     9a  
Ene=     0.1574
Spin= Alpha
Occup=    0.00000
   1         0.00000000
   2         0.00000000
   3        -0.44878249
   4        -0.67363013
   5         0.00000000
   6        -0.00000000
   7        -0.00000000
   8         0.44878249
   9         0.67363013
  10         0.00000000
Sym=     9a  
Ene=     0.1574
Spin= Beta
Occup=    0.00000
   1         0.00000000
   2         0.00000000
   3        -0.44878249
   4        -0.67363013
   5         0.00000000
   6        -0.00000000
   7        -0.00000000
   8         0.44878249
   9         0.67363013
  10         0.00000000
Sym=    10a  
Ene=     0.3187
Spin= Alpha
Occup=    0.00000
   1         0.08381734
   2         0.76191473
   3        -0.00000000
   4         0.00000000
   5         1.06137257
   6        -0.08381734
   7        -0.76191473
   8         0.00000000
   9        -0.00000000
  10         1.06137257
Sym=    10a  
Ene=     0.3187
Spin= Beta
Occup=    0.00000
   1         0.08381734
   2         0.76191473
   3        -0.00000000
   4         0.00000000
   5         1.06137257
   6        -0.08381734
   7        -0.76191473
   8         0.00000000
   9        -0.00000000
  10         1.06137257
