[Molden Format]
[N_Atoms]
                     2
[Atoms] (AU)
BE1         1      4           0.00000000      0.00000000      0.00000000
BE2         2      4           0.00000000      0.00000000      4.72431531
[Charge] (Mulliken)
 -1.634383153259478E-007
  1.634383122173233E-007
[GTO] (AU)
   1
   s  14
  2.262859900E+04  8.443999941E-05
  3.372318100E+03  4.601499968E-04
  7.603504000E+02  2.285389984E-03
  2.117404800E+02  9.648129932E-03
  6.722346800E+01  3.494469975E-02
  2.337217700E+01  1.061099893E-01
  8.721373000E+00  2.458240383E-01
  3.468091000E+00  3.862428773E-01
  1.452144000E+00  3.105526078E-01
  6.086150000E-01  6.415933955E-02
  2.576860000E-01 -2.265049984E-03
  1.041760000E-01 -5.217499963E-04
  4.242700000E-02 -8.757499938E-04
  1.484900000E-02  1.242199991E-04
   s  14
  2.262859900E+04 -1.586999994E-05
  3.372318100E+03 -8.656999968E-05
  7.603504000E+02 -4.302199984E-04
  2.117404800E+02 -1.825079993E-03
  6.722346800E+01 -6.682749976E-03
  2.337217700E+01 -2.095119992E-02
  8.721373000E+00 -5.200308981E-02
  3.468091000E+00 -9.849176964E-02
  1.452144000E+00 -1.355800695E-01
  6.086150000E-01 -6.429875976E-02
  2.576860000E-01  3.125414989E-01
  1.041760000E-01  6.270468577E-01
  4.242700000E-02  2.110231492E-01
  1.484900000E-02 -4.104669985E-03
   p   9
  3.371018400E+01  1.069960000E-03
  8.057649500E+00  6.828550001E-03
  2.836471400E+00  2.119065000E-02
  1.099965700E+00  5.843696001E-02
  4.433964000E-01  2.020920800E-01
  1.822264000E-01  4.582953101E-01
  7.572410000E-02  3.691239601E-01
  3.168540000E-02  6.611471001E-02
  1.108990000E-02  1.405160000E-03
 
   2
   s  14
  2.262859900E+04  8.443999941E-05
  3.372318100E+03  4.601499968E-04
  7.603504000E+02  2.285389984E-03
  2.117404800E+02  9.648129932E-03
  6.722346800E+01  3.494469975E-02
  2.337217700E+01  1.061099893E-01
  8.721373000E+00  2.458240383E-01
  3.468091000E+00  3.862428773E-01
  1.452144000E+00  3.105526078E-01
  6.086150000E-01  6.415933955E-02
  2.576860000E-01 -2.265049984E-03
  1.041760000E-01 -5.217499963E-04
  4.242700000E-02 -8.757499938E-04
  1.484900000E-02  1.242199991E-04
   s  14
  2.262859900E+04 -1.586999994E-05
  3.372318100E+03 -8.656999968E-05
  7.603504000E+02 -4.302199984E-04
  2.117404800E+02 -1.825079993E-03
  6.722346800E+01 -6.682749976E-03
  2.337217700E+01 -2.095119992E-02
  8.721373000E+00 -5.200308981E-02
  3.468091000E+00 -9.849176964E-02
  1.452144000E+00 -1.355800695E-01
  6.086150000E-01 -6.429875976E-02
  2.576860000E-01  3.125414989E-01
  1.041760000E-01  6.270468577E-01
  4.242700000E-02  2.110231492E-01
  1.484900000E-02 -4.104669985E-03
   p   9
  3.371018400E+01  1.069960000E-03
  8.057649500E+00  6.828550001E-03
  2.836471400E+00  2.119065000E-02
  1.099965700E+00  5.843696001E-02
  4.433964000E-01  2.020920800E-01
  1.822264000E-01  4.582953101E-01
  7.572410000E-02  3.691239601E-01
  3.168540000E-02  6.611471001E-02
  1.108990000E-02  1.405160000E-03
 
[MO]
Sym=     1a  
Ene=    -4.7118
Spin= Alpha
Occup=    2.00000
   1         0.70692296
   2         0.00169107
   3        -0.00000000
   4         0.00000000
   5         0.00030986
   6         0.70723296
   7         0.00169002
   8         0.00000000
   9        -0.00000000
  10        -0.00031034
Sym=     2a  
Ene=    -4.7116
Spin= Alpha
Occup=    2.00000
   1        -0.70719775
   2         0.00287280
   3         0.00000000
   4        -0.00000000
   5        -0.00118671
   6         0.70688774
   7        -0.00287348
   8         0.00000000
   9        -0.00000000
  10        -0.00118659
Sym=     3a  
Ene=    -0.3812
Spin= Alpha
Occup=    2.00000
   1        -0.02495226
   2         0.57284180
   3        -0.00000000
   4        -0.00000000
   5         0.10289760
   6        -0.02495199
   7         0.57285728
   8         0.00000000
   9         0.00000000
  10        -0.10289480
Sym=     4a  
Ene=    -0.2333
Spin= Alpha
Occup=    1.95158
   1        -0.01775531
   2        -0.77818968
   3        -0.00000000
   4         0.00000000
   5         0.13984212
   6         0.01775561
   7         0.77817824
   8        -0.00000000
   9         0.00000000
  10         0.13984408
Sym=     5a  
Ene=     0.0000
Spin= Alpha
Occup=    0.04842
   1         0.00000000
   2        -0.00000000
   3         0.61036006
   4         0.17810589
   5        -0.00000000
   6         0.00000000
   7         0.00000000
   8         0.61034508
   9         0.17810151
  10        -0.00000000
Sym=     6a  
Ene=     0.0506
Spin= Alpha
Occup=    0.00000
   1         0.02875890
   2         0.28669159
   3         0.00000000
   4        -0.00000000
   5        -0.63828055
   6         0.02875889
   7         0.28669159
   8         0.00000000
   9        -0.00000000
  10         0.63828071
Sym=     7a  
Ene=     0.0590
Spin= Alpha
Occup=    0.00000
   1        -0.00000000
   2         0.00000000
   3        -0.17810364
   4         0.61035236
   5        -0.00000000
   6         0.00000000
   7        -0.00000000
   8        -0.17810376
   9         0.61035278
  10         0.00000000
Sym=     8a  
Ene=     0.1569
Spin= Alpha
Occup=    0.00000
   1         0.00000000
   2        -0.00000000
   3        -0.77702186
   4        -0.22673857
   5        -0.00000000
   6         0.00000000
   7        -0.00000000
   8         0.77703363
   9         0.22674200
  10         0.00000000
Sym=     9a  
Ene=     0.1579
Spin= Alpha
Occup=    0.00000
   1         0.00000000
   2        -0.00000000
   3         0.22674033
   4        -0.77702791
   5         0.00000000
   6         0.00000000
   7        -0.00000000
   8        -0.22674024
   9         0.77702758
  10         0.00000000
Sym=    10a  
Ene=     0.3196
Spin= Alpha
Occup=    0.00000
   1        -0.08380243
   2        -0.75862730
   3        -0.00000000
   4        -0.00000000
   5        -1.06197417
   6         0.08380244
   7         0.75862734
   8        -0.00000000
   9         0.00000000
  10        -1.06197409
