[Molden Format]
[N_Atoms]
                     2
[Atoms] (AU)
C1          1      6           0.00000000      0.00000000      0.00000000
C2          2      6           0.00000000      0.00000000      3.21253441
[Charge] (Mulliken)
  0.000000000000000E+000
  0.000000000000000E+000
[GTO] (AU)
   1
   s  14
  5.055750100E+04  1.128874000E-04
  7.524785600E+03  5.295373000E-04
  1.694327600E+03  2.450038300E-03
  4.728227900E+02  1.005398470E-02
  1.517107500E+02  3.545398060E-02
  5.391874600E+01  1.044071086E-01
  2.065931100E+01  2.412894918E-01
  8.383976000E+00  3.834225483E-01
  3.577015000E+00  3.078514393E-01
  1.547118000E+00  6.872442990E-02
  6.130130000E-01  2.224445000E-04
  2.460680000E-01  1.976748900E-03
  9.908700000E-02  2.057859400E-03
  3.468000000E-02  4.182020000E-04
   s  14
  5.055750100E+04 -2.507420000E-05
  7.524785600E+03 -1.175945000E-04
  1.694327600E+03 -5.456275000E-04
  4.728227900E+02 -2.245077100E-03
  1.517107500E+02 -8.043471800E-03
  5.391874600E+01 -2.442588710E-02
  2.065931100E+01 -6.136791180E-02
  8.383976000E+00 -1.177767835E-01
  3.577015000E+00 -1.550487783E-01
  1.547118000E+00 -1.933316860E-02
  6.130130000E-01  3.996930678E-01
  2.460680000E-01  5.589420949E-01
  9.908700000E-02  1.711195023E-01
  3.468000000E-02  7.456244600E-03
   p   9
  8.333315500E+01  1.344656000E-03
  1.955761100E+01  1.023555500E-02
  6.080365000E+00  4.520067100E-02
  2.179317000E+00  1.410756198E-01
  8.651500000E-01  3.047388085E-01
  3.619440000E-01  3.995281011E-01
  1.547400000E-01  2.719163432E-01
  6.542900000E-02  5.857669330E-02
  2.290000000E-02 -1.263813000E-04
 
   2
   s  14
  5.055750100E+04  1.128874000E-04
  7.524785600E+03  5.295373000E-04
  1.694327600E+03  2.450038300E-03
  4.728227900E+02  1.005398470E-02
  1.517107500E+02  3.545398060E-02
  5.391874600E+01  1.044071086E-01
  2.065931100E+01  2.412894918E-01
  8.383976000E+00  3.834225483E-01
  3.577015000E+00  3.078514393E-01
  1.547118000E+00  6.872442990E-02
  6.130130000E-01  2.224445000E-04
  2.460680000E-01  1.976748900E-03
  9.908700000E-02  2.057859400E-03
  3.468000000E-02  4.182020000E-04
   s  14
  5.055750100E+04 -2.507420000E-05
  7.524785600E+03 -1.175945000E-04
  1.694327600E+03 -5.456275000E-04
  4.728227900E+02 -2.245077100E-03
  1.517107500E+02 -8.043471800E-03
  5.391874600E+01 -2.442588710E-02
  2.065931100E+01 -6.136791180E-02
  8.383976000E+00 -1.177767835E-01
  3.577015000E+00 -1.550487783E-01
  1.547118000E+00 -1.933316860E-02
  6.130130000E-01  3.996930678E-01
  2.460680000E-01  5.589420949E-01
  9.908700000E-02  1.711195023E-01
  3.468000000E-02  7.456244600E-03
   p   9
  8.333315500E+01  1.344656000E-03
  1.955761100E+01  1.023555500E-02
  6.080365000E+00  4.520067100E-02
  2.179317000E+00  1.410756198E-01
  8.651500000E-01  3.047388085E-01
  3.619440000E-01  3.995281011E-01
  1.547400000E-01  2.719163432E-01
  6.542900000E-02  5.857669330E-02
  2.290000000E-02 -1.263813000E-04
 
[MO]
Sym=     1a  
Ene=   -11.3330
Spin= Alpha
Occup=    2.00000
   1         0.70688895
   2         0.00117478
   3        -0.00000000
   4        -0.00000000
   5         0.00137469
   6         0.70688895
   7         0.00117478
   8        -0.00000000
   9        -0.00000000
  10        -0.00137469
Sym=     2a  
Ene=   -11.3250
Spin= Alpha
Occup=    2.00000
   1        -0.70713841
   2         0.00107382
   3         0.00000000
   4         0.00000000
   5         0.00131559
   6         0.70713841
   7        -0.00107382
   8         0.00000000
   9         0.00000000
  10         0.00131559
Sym=     3a  
Ene=    -0.9827
Spin= Alpha
Occup=    2.00000
   1        -0.02423662
   2         0.54810265
   3         0.00000000
   4         0.00000000
   5         0.18988289
   6        -0.02423662
   7         0.54810265
   8        -0.00000000
   9        -0.00000000
  10        -0.18988289
Sym=     4a  
Ene=    -0.6256
Spin= Alpha
Occup=    2.00000
   1        -0.00080998
   2        -0.64151346
   3         0.00000000
   4        -0.00000000
   5         0.30651185
   6         0.00080998
   7         0.64151346
   8        -0.00000000
   9        -0.00000000
  10         0.30651185
Sym=     5a  
Ene=    -0.5173
Spin= Alpha
Occup=    2.00000
   1         0.00000000
   2         0.00000000
   3         0.49646722
   4         0.41758369
   5         0.00000000
   6        -0.00000000
   7        -0.00000000
   8         0.49646722
   9         0.41758369
  10         0.00000000
Sym=     6a  
Ene=    -0.5173
Spin= Alpha
Occup=    2.00000
   1        -0.00000000
   2        -0.00000000
   3        -0.41758369
   4         0.49646722
   5        -0.00000000
   6         0.00000000
   7         0.00000000
   8        -0.41758369
   9         0.49646722
  10        -0.00000000
Sym=     7a  
Ene=    -0.4722
Spin= Alpha
Occup=    0.00000
   1         0.02212495
   2         0.34870557
   3         0.00000000
   4         0.00000000
   5        -0.62126033
   6         0.02212495
   7         0.34870557
   8         0.00000000
   9        -0.00000000
  10         0.62126033
Sym=     8a  
Ene=    -0.3535
Spin= Alpha
Occup=    0.00000
   1         0.00000000
   2         0.00000000
   3        -0.72146997
   4        -0.30868516
   5        -0.00000000
   6         0.00000000
   7         0.00000000
   8         0.72146997
   9         0.30868516
  10         0.00000000
Sym=     9a  
Ene=    -0.3535
Spin= Alpha
Occup=    0.00000
   1        -0.00000000
   2         0.00000000
   3         0.30868516
   4        -0.72146997
   5        -0.00000000
   6         0.00000000
   7         0.00000000
   8        -0.30868516
   9         0.72146997
  10         0.00000000
Sym=    10a  
Ene=    -0.1980
Spin= Alpha
Occup=    0.00000
   1         0.06026662
   2         0.69330683
   3        -0.00000000
   4        -0.00000000
   5         0.89578026
   6        -0.06026662
   7        -0.69330683
   8        -0.00000000
   9        -0.00000000
  10         0.89578026
