[Molden Format]
[N_Atoms]
                     2
[Atoms] (AU)
C1          1      6           0.00000000      0.00000000      0.00000000
C2          2      6           0.00000000      0.00000000      3.21253441
[Charge] (Mulliken)
  0.999999999169187     
   1.00000000083080     
[GTO] (AU)
   1
   s  14
  5.055750100E+04  1.128874000E-04
  7.524785600E+03  5.295373000E-04
  1.694327600E+03  2.450038300E-03
  4.728227900E+02  1.005398470E-02
  1.517107500E+02  3.545398060E-02
  5.391874600E+01  1.044071086E-01
  2.065931100E+01  2.412894918E-01
  8.383976000E+00  3.834225483E-01
  3.577015000E+00  3.078514393E-01
  1.547118000E+00  6.872442990E-02
  6.130130000E-01  2.224445000E-04
  2.460680000E-01  1.976748900E-03
  9.908700000E-02  2.057859400E-03
  3.468000000E-02  4.182020000E-04
   s  14
  5.055750100E+04 -2.507420000E-05
  7.524785600E+03 -1.175945000E-04
  1.694327600E+03 -5.456275000E-04
  4.728227900E+02 -2.245077100E-03
  1.517107500E+02 -8.043471800E-03
  5.391874600E+01 -2.442588710E-02
  2.065931100E+01 -6.136791180E-02
  8.383976000E+00 -1.177767835E-01
  3.577015000E+00 -1.550487783E-01
  1.547118000E+00 -1.933316860E-02
  6.130130000E-01  3.996930678E-01
  2.460680000E-01  5.589420949E-01
  9.908700000E-02  1.711195023E-01
  3.468000000E-02  7.456244600E-03
   p   9
  8.333315500E+01  1.344656000E-03
  1.955761100E+01  1.023555500E-02
  6.080365000E+00  4.520067100E-02
  2.179317000E+00  1.410756198E-01
  8.651500000E-01  3.047388085E-01
  3.619440000E-01  3.995281011E-01
  1.547400000E-01  2.719163432E-01
  6.542900000E-02  5.857669330E-02
  2.290000000E-02 -1.263813000E-04
 
   2
   s  14
  5.055750100E+04  1.128874000E-04
  7.524785600E+03  5.295373000E-04
  1.694327600E+03  2.450038300E-03
  4.728227900E+02  1.005398470E-02
  1.517107500E+02  3.545398060E-02
  5.391874600E+01  1.044071086E-01
  2.065931100E+01  2.412894918E-01
  8.383976000E+00  3.834225483E-01
  3.577015000E+00  3.078514393E-01
  1.547118000E+00  6.872442990E-02
  6.130130000E-01  2.224445000E-04
  2.460680000E-01  1.976748900E-03
  9.908700000E-02  2.057859400E-03
  3.468000000E-02  4.182020000E-04
   s  14
  5.055750100E+04 -2.507420000E-05
  7.524785600E+03 -1.175945000E-04
  1.694327600E+03 -5.456275000E-04
  4.728227900E+02 -2.245077100E-03
  1.517107500E+02 -8.043471800E-03
  5.391874600E+01 -2.442588710E-02
  2.065931100E+01 -6.136791180E-02
  8.383976000E+00 -1.177767835E-01
  3.577015000E+00 -1.550487783E-01
  1.547118000E+00 -1.933316860E-02
  6.130130000E-01  3.996930678E-01
  2.460680000E-01  5.589420949E-01
  9.908700000E-02  1.711195023E-01
  3.468000000E-02  7.456244600E-03
   p   9
  8.333315500E+01  1.344656000E-03
  1.955761100E+01  1.023555500E-02
  6.080365000E+00  4.520067100E-02
  2.179317000E+00  1.410756198E-01
  8.651500000E-01  3.047388085E-01
  3.619440000E-01  3.995281011E-01
  1.547400000E-01  2.719163432E-01
  6.542900000E-02  5.857669330E-02
  2.290000000E-02 -1.263813000E-04
 
[MO]
Sym=     1a  
Ene=   -12.3710
Spin= Alpha
Occup=    2.00000
   1         0.70704301
   2        -0.00335045
   3         0.00000000
   4         0.00000000
   5         0.00027132
   6         0.70704417
   7        -0.00335046
   8         0.00000000
   9         0.00000000
  10        -0.00027132
Sym=     2a  
Ene=   -12.3700
Spin= Alpha
Occup=    2.00000
   1        -0.70696041
   2         0.00999529
   3         0.00000000
   4         0.00000000
   5        -0.00053229
   6         0.70695925
   7        -0.00999528
   8         0.00000000
   9         0.00000000
  10        -0.00053229
Sym=     3a  
Ene=    -1.6733
Spin= Alpha
Occup=    2.00000
   1        -0.01771522
   2         0.56227912
   3         0.00000000
   4         0.00000000
   5         0.16358402
   6        -0.01771522
   7         0.56227947
   8        -0.00000000
   9         0.00000000
  10        -0.16358400
Sym=     4a  
Ene=    -1.1068
Spin= Alpha
Occup=    2.00000
   1         0.00000000
   2        -0.00000000
   3        -0.24660159
   4         0.60003625
   5         0.00000000
   6         0.00000000
   7         0.00000000
   8        -0.24660159
   9         0.60003625
  10         0.00000000
Sym=     5a  
Ene=    -0.7578
Spin= Alpha
Occup=    0.02160
   1         0.00000000
   2         0.00000000
   3         0.60003642
   4         0.24660166
   5         0.00000000
   6        -0.00000000
   7        -0.00000000
   8         0.60003609
   9         0.24660152
  10         0.00000000
Sym=     6a  
Ene=    -0.0944
Spin= Alpha
Occup=    1.97840
   1        -0.02592796
   2        -0.80896722
   3         0.00000000
   4         0.00000000
   5         0.04527575
   6         0.02592796
   7         0.80896697
   8         0.00000000
   9        -0.00000000
  10         0.04527582
Sym=     7a  
Ene=    -0.8068
Spin= Alpha
Occup=    0.00000
   1         0.02333332
   2         0.32533711
   3         0.00000000
   4        -0.00000000
   5        -0.62869865
   6         0.02333332
   7         0.32533711
   8        -0.00000000
   9         0.00000000
  10         0.62869866
Sym=     8a  
Ene=    -0.6976
Spin= Alpha
Occup=    0.00000
   1        -0.00000000
   2        -0.00000000
   3         0.29829842
   4        -0.72582608
   5         0.00000000
   6        -0.00000000
   7        -0.00000000
   8        -0.29829842
   9         0.72582608
  10        -0.00000000
Sym=     9a  
Ene=    -0.6093
Spin= Alpha
Occup=    0.00000
   1         0.00000000
   2         0.00000000
   3        -0.72582594
   4        -0.29829837
   5        -0.00000000
   6         0.00000000
   7         0.00000000
   8         0.72582622
   9         0.29829848
  10         0.00000000
Sym=    10a  
Ene=    -0.4012
Spin= Alpha
Occup=    0.00000
   1        -0.05668334
   2        -0.48753191
   3         0.00000000
   4         0.00000000
   5        -0.94568670
   6         0.05668334
   7         0.48753191
   8         0.00000000
   9         0.00000000
  10        -0.94568670
