[Molden Format]
[N_Atoms]
                     2
[Atoms] (AU)
C1          1      6           0.00000000      0.00000000      0.00000000
C2          2      6           0.00000000      0.00000000      3.21253441
[Charge] (Mulliken)
 -2.753353101070388E-014
  1.065814103640150E-014
[GTO] (AU)
   1
   s  14
  5.055750100E+04  1.128874000E-04
  7.524785600E+03  5.295373000E-04
  1.694327600E+03  2.450038300E-03
  4.728227900E+02  1.005398470E-02
  1.517107500E+02  3.545398060E-02
  5.391874600E+01  1.044071086E-01
  2.065931100E+01  2.412894918E-01
  8.383976000E+00  3.834225483E-01
  3.577015000E+00  3.078514393E-01
  1.547118000E+00  6.872442990E-02
  6.130130000E-01  2.224445000E-04
  2.460680000E-01  1.976748900E-03
  9.908700000E-02  2.057859400E-03
  3.468000000E-02  4.182020000E-04
   s  14
  5.055750100E+04 -2.507420000E-05
  7.524785600E+03 -1.175945000E-04
  1.694327600E+03 -5.456275000E-04
  4.728227900E+02 -2.245077100E-03
  1.517107500E+02 -8.043471800E-03
  5.391874600E+01 -2.442588710E-02
  2.065931100E+01 -6.136791180E-02
  8.383976000E+00 -1.177767835E-01
  3.577015000E+00 -1.550487783E-01
  1.547118000E+00 -1.933316860E-02
  6.130130000E-01  3.996930678E-01
  2.460680000E-01  5.589420949E-01
  9.908700000E-02  1.711195023E-01
  3.468000000E-02  7.456244600E-03
   p   9
  8.333315500E+01  1.344656000E-03
  1.955761100E+01  1.023555500E-02
  6.080365000E+00  4.520067100E-02
  2.179317000E+00  1.410756198E-01
  8.651500000E-01  3.047388085E-01
  3.619440000E-01  3.995281011E-01
  1.547400000E-01  2.719163432E-01
  6.542900000E-02  5.857669330E-02
  2.290000000E-02 -1.263813000E-04
 
   2
   s  14
  5.055750100E+04  1.128874000E-04
  7.524785600E+03  5.295373000E-04
  1.694327600E+03  2.450038300E-03
  4.728227900E+02  1.005398470E-02
  1.517107500E+02  3.545398060E-02
  5.391874600E+01  1.044071086E-01
  2.065931100E+01  2.412894918E-01
  8.383976000E+00  3.834225483E-01
  3.577015000E+00  3.078514393E-01
  1.547118000E+00  6.872442990E-02
  6.130130000E-01  2.224445000E-04
  2.460680000E-01  1.976748900E-03
  9.908700000E-02  2.057859400E-03
  3.468000000E-02  4.182020000E-04
   s  14
  5.055750100E+04 -2.507420000E-05
  7.524785600E+03 -1.175945000E-04
  1.694327600E+03 -5.456275000E-04
  4.728227900E+02 -2.245077100E-03
  1.517107500E+02 -8.043471800E-03
  5.391874600E+01 -2.442588710E-02
  2.065931100E+01 -6.136791180E-02
  8.383976000E+00 -1.177767835E-01
  3.577015000E+00 -1.550487783E-01
  1.547118000E+00 -1.933316860E-02
  6.130130000E-01  3.996930678E-01
  2.460680000E-01  5.589420949E-01
  9.908700000E-02  1.711195023E-01
  3.468000000E-02  7.456244600E-03
   p   9
  8.333315500E+01  1.344656000E-03
  1.955761100E+01  1.023555500E-02
  6.080365000E+00  4.520067100E-02
  2.179317000E+00  1.410756198E-01
  8.651500000E-01  3.047388085E-01
  3.619440000E-01  3.995281011E-01
  1.547400000E-01  2.719163432E-01
  6.542900000E-02  5.857669330E-02
  2.290000000E-02 -1.263813000E-04
 
[MO]
Sym=     1a  
Ene=   -11.3550
Spin= Alpha
Occup=    2.00000
   1         0.70701934
   2        -0.00207658
   3        -0.00000000
   4         0.00000000
   5         0.00026835
   6         0.70701934
   7        -0.00207658
   8        -0.00000000
   9        -0.00000000
  10        -0.00026835
Sym=     2a  
Ene=   -11.3550
Spin= Alpha
Occup=    2.00000
   1        -0.70719288
   2         0.00353082
   3         0.00000000
   4         0.00000000
   5        -0.00124344
   6         0.70719289
   7        -0.00353082
   8        -0.00000000
   9        -0.00000000
  10        -0.00124344
Sym=     3a  
Ene=    -0.8829
Spin= Alpha
Occup=    2.00000
   1        -0.01793428
   2         0.57783799
   3         0.00000000
   4         0.00000000
   5         0.13196596
   6        -0.01793428
   7         0.57783799
   8        -0.00000000
   9         0.00000000
  10        -0.13196596
Sym=     4a  
Ene=    -0.3454
Spin= Alpha
Occup=    2.00000
   1        -0.00000000
   2         0.00000000
   3         0.56175130
   4        -0.32448625
   5        -0.00000000
   6         0.00000000
   7        -0.00000000
   8         0.56175130
   9        -0.32448625
  10        -0.00000000
Sym=     5a  
Ene=    -0.3454
Spin= Alpha
Occup=    2.00000
   1         0.00000000
   2        -0.00000000
   3         0.32448625
   4         0.56175130
   5         0.00000000
   6         0.00000000
   7         0.00000000
   8         0.32448625
   9         0.56175130
  10         0.00000000
Sym=     6a  
Ene=    -0.5626
Spin= Alpha
Occup=    1.87882
   1        -0.01299784
   2        -0.73566022
   3        -0.00000000
   4        -0.00000000
   5         0.17274362
   6         0.01299784
   7         0.73566022
   8         0.00000000
   9        -0.00000000
  10         0.17274362
Sym=     7a  
Ene=     0.0000
Spin= Alpha
Occup=    0.12118
   1         0.02389410
   2         0.29683736
   3        -0.00000000
   4        -0.00000000
   5        -0.63608703
   6         0.02389410
   7         0.29683736
   8         0.00000000
   9        -0.00000000
  10         0.63608703
Sym=     8a  
Ene=     0.0924
Spin= Alpha
Occup=    0.00000
   1         0.00000000
   2         0.00000000
   3         0.32665937
   4        -0.71351181
   5         0.00000000
   6        -0.00000000
   7        -0.00000000
   8        -0.32665937
   9         0.71351181
  10         0.00000000
Sym=     9a  
Ene=     0.0924
Spin= Alpha
Occup=    0.00000
   1         0.00000000
   2        -0.00000000
   3         0.71351181
   4         0.32665937
   5        -0.00000000
   6        -0.00000000
   7        -0.00000000
   8        -0.71351181
   9        -0.32665937
  10        -0.00000000
Sym=    10a  
Ene=     0.4518
Spin= Alpha
Occup=    0.00000
   1        -0.05819570
   2        -0.59245810
   3        -0.00000000
   4        -0.00000000
   5        -0.93087680
   6         0.05819570
   7         0.59245810
   8        -0.00000000
   9         0.00000000
  10        -0.93087680
