[Molden Format]
[N_Atoms]
                     2
[Atoms] (AU)
BE1         1      4           0.00000000      0.00000000      0.00000000
C2          2      6           0.00000000      0.00000000      1.70075351
[Charge] (Mulliken)
  0.571377878349798     
 -0.571377878349802     
[GTO] (AU)
   1
   s  14
  2.262859900E+04  8.443999941E-05
  3.372318100E+03  4.601499968E-04
  7.603504000E+02  2.285389984E-03
  2.117404800E+02  9.648129932E-03
  6.722346800E+01  3.494469975E-02
  2.337217700E+01  1.061099893E-01
  8.721373000E+00  2.458240383E-01
  3.468091000E+00  3.862428773E-01
  1.452144000E+00  3.105526078E-01
  6.086150000E-01  6.415933955E-02
  2.576860000E-01 -2.265049984E-03
  1.041760000E-01 -5.217499963E-04
  4.242700000E-02 -8.757499938E-04
  1.484900000E-02  1.242199991E-04
   s  14
  2.262859900E+04 -1.586999994E-05
  3.372318100E+03 -8.656999968E-05
  7.603504000E+02 -4.302199984E-04
  2.117404800E+02 -1.825079993E-03
  6.722346800E+01 -6.682749976E-03
  2.337217700E+01 -2.095119992E-02
  8.721373000E+00 -5.200308981E-02
  3.468091000E+00 -9.849176964E-02
  1.452144000E+00 -1.355800695E-01
  6.086150000E-01 -6.429875976E-02
  2.576860000E-01  3.125414989E-01
  1.041760000E-01  6.270468577E-01
  4.242700000E-02  2.110231492E-01
  1.484900000E-02 -4.104669985E-03
   p   9
  3.371018400E+01  1.069960000E-03
  8.057649500E+00  6.828550001E-03
  2.836471400E+00  2.119065000E-02
  1.099965700E+00  5.843696001E-02
  4.433964000E-01  2.020920800E-01
  1.822264000E-01  4.582953101E-01
  7.572410000E-02  3.691239601E-01
  3.168540000E-02  6.611471001E-02
  1.108990000E-02  1.405160000E-03
 
   2
   s  14
  5.055750100E+04  1.128874000E-04
  7.524785600E+03  5.295373000E-04
  1.694327600E+03  2.450038300E-03
  4.728227900E+02  1.005398470E-02
  1.517107500E+02  3.545398060E-02
  5.391874600E+01  1.044071086E-01
  2.065931100E+01  2.412894918E-01
  8.383976000E+00  3.834225483E-01
  3.577015000E+00  3.078514393E-01
  1.547118000E+00  6.872442990E-02
  6.130130000E-01  2.224445000E-04
  2.460680000E-01  1.976748900E-03
  9.908700000E-02  2.057859400E-03
  3.468000000E-02  4.182020000E-04
   s  14
  5.055750100E+04 -2.507420000E-05
  7.524785600E+03 -1.175945000E-04
  1.694327600E+03 -5.456275000E-04
  4.728227900E+02 -2.245077100E-03
  1.517107500E+02 -8.043471800E-03
  5.391874600E+01 -2.442588710E-02
  2.065931100E+01 -6.136791180E-02
  8.383976000E+00 -1.177767835E-01
  3.577015000E+00 -1.550487783E-01
  1.547118000E+00 -1.933316860E-02
  6.130130000E-01  3.996930678E-01
  2.460680000E-01  5.589420949E-01
  9.908700000E-02  1.711195023E-01
  3.468000000E-02  7.456244600E-03
   p   9
  8.333315500E+01  1.344656000E-03
  1.955761100E+01  1.023555500E-02
  6.080365000E+00  4.520067100E-02
  2.179317000E+00  1.410756198E-01
  8.651500000E-01  3.047388085E-01
  3.619440000E-01  3.995281011E-01
  1.547400000E-01  2.719163432E-01
  6.542900000E-02  5.857669330E-02
  2.290000000E-02 -1.263813000E-04
 
[MO]
Sym=     1a  
Ene=   -11.4070
Spin= Alpha
Occup=    2.00000
   1        -0.00029861
   2        -0.00529335
   3         0.00000000
   4        -0.00000000
   5        -0.00117933
   6         1.00077495
   7         0.00358433
   8        -0.00000000
   9         0.00000000
  10        -0.00495566
Sym=     2a  
Ene=    -5.0046
Spin= Alpha
Occup=    2.00000
   1        -0.98814190
   2         0.01201523
   3        -0.00000000
   4        -0.00000000
   5        -0.00316900
   6         0.01919743
   7        -0.02215946
   8         0.00000000
   9        -0.00000000
  10         0.02061177
Sym=     3a  
Ene=    -0.7924
Spin= Alpha
Occup=    2.00000
   1        -0.27232473
   2         0.08020152
   3        -0.00000000
   4         0.00000000
   5         0.14956432
   6        -0.02841603
   7         0.87730957
   8         0.00000000
   9        -0.00000000
  10        -0.18237132
Sym=     4a  
Ene=    -0.4501
Spin= Alpha
Occup=    2.00000
   1        -0.00000000
   2         0.00000000
   3         0.35938223
   4        -0.01391337
   5         0.00000000
   6        -0.00000000
   7        -0.00000000
   8         0.74099709
   9        -0.02868748
  10        -0.00000000
Sym=     5a  
Ene=    -0.4478
Spin= Alpha
Occup=    1.98685
   1        -0.00000000
   2         0.00000000
   3         0.01387519
   4         0.35839588
   5         0.00000000
   6        -0.00000000
   7        -0.00000000
   8         0.02871958
   9         0.74182631
  10        -0.00000000
Sym=     6a  
Ene=    -0.0004
Spin= Alpha
Occup=    0.01315
   1         0.13837033
   2        -0.60872886
   3         0.00000000
   4         0.00000000
   5        -0.13775219
   6         0.08995548
   7         0.60427823
   8         0.00000000
   9         0.00000000
  10         0.80933841
Sym=     7a  
Ene=     0.0363
Spin= Alpha
Occup=    0.00000
   1         0.22114535
   2         0.71520508
   3         0.00000000
   4        -0.00000000
   5        -0.73534267
   6         0.04320838
   7        -0.00623213
   8         0.00000000
   9         0.00000000
  10         0.63515511
Sym=     8a  
Ene=     0.3307
Spin= Alpha
Occup=    0.00000
   1         0.00000000
   2         0.00000000
   3        -1.19788068
   4         0.04637558
   5         0.00000000
   6        -0.00000000
   7        -0.00000000
   8         1.00747060
   9        -0.03900392
  10         0.00000000
Sym=     9a  
Ene=     0.3308
Spin= Alpha
Occup=    0.00000
   1        -0.00000000
   2         0.00000000
   3        -0.04638702
   4        -1.19817616
   5         0.00000000
   6        -0.00000000
   7        -0.00000000
   8         0.03898028
   9         1.00686019
  10        -0.00000000
Sym=    10a  
Ene=     0.5321
Spin= Alpha
Occup=    0.00000
   1         0.70540049
   2         1.84277108
   3         0.00000000
   4        -0.00000000
   5         1.56114944
   6        -0.47519784
   7        -2.26781275
   8        -0.00000000
   9        -0.00000000
  10         0.55765519
