[Molden Format]
[N_Atoms]
                     2
[Atoms] (AU)
B1          1      5           0.00000000      0.00000000      0.00000000
B2          2      5           0.00000000      0.00000000      3.40150702
[Charge] (Mulliken)
 -2.824407374646398E-013
  2.708944180085382E-013
[GTO] (AU)
   1
   s  14
  3.336021700E+04  1.039699991E-04
  4.972095200E+03  5.254399956E-04
  1.125641700E+03  2.509059979E-03
  3.164913600E+02  1.031887991E-02
  1.020072600E+02  3.636632969E-02
  3.629587300E+01  1.064607991E-01
  1.397141000E+01  2.403999880E-01
  5.741156000E+00  3.748581168E-01
  2.494268000E+00  3.100066974E-01
  1.114202000E+00  7.922455933E-02
  4.215490000E-01 -4.947589958E-03
  1.696330000E-01 -7.737119935E-03
  6.853500000E-02 -1.501079987E-03
  2.398700000E-02 -1.333299989E-04
   s  14
  3.336021700E+04 -2.030000008E-05
  4.972095200E+03 -1.025700004E-04
  1.125641700E+03 -4.911300020E-04
  3.164913600E+02 -2.026570008E-03
  1.020072600E+02 -7.261010030E-03
  3.629587300E+01 -2.197722009E-02
  1.397141000E+01 -5.408428022E-02
  5.741156000E+00 -1.022402604E-01
  2.494268000E+00 -1.423595206E-01
  1.114202000E+00 -4.658690019E-02
  4.215490000E-01  3.799402916E-01
  1.696330000E-01  5.890463624E-01
  6.853500000E-02  1.749075107E-01
  2.398700000E-02 -1.142030005E-03
   p   9
  5.500000000E+01  1.229800005E-03
  1.336610100E+01  8.827380035E-03
  4.135394000E+00  3.843340015E-02
  1.481256000E+00  1.150031805E-01
  6.021360000E-01  2.733674011E-01
  2.556360000E-01  4.061972116E-01
  1.111510000E-01  3.014967912E-01
  4.764800000E-02  7.684809030E-02
  1.667700000E-02 -8.170000032E-06
 
   2
   s  14
  3.336021700E+04  1.039699991E-04
  4.972095200E+03  5.254399956E-04
  1.125641700E+03  2.509059979E-03
  3.164913600E+02  1.031887991E-02
  1.020072600E+02  3.636632969E-02
  3.629587300E+01  1.064607991E-01
  1.397141000E+01  2.403999880E-01
  5.741156000E+00  3.748581168E-01
  2.494268000E+00  3.100066974E-01
  1.114202000E+00  7.922455933E-02
  4.215490000E-01 -4.947589958E-03
  1.696330000E-01 -7.737119935E-03
  6.853500000E-02 -1.501079987E-03
  2.398700000E-02 -1.333299989E-04
   s  14
  3.336021700E+04 -2.030000008E-05
  4.972095200E+03 -1.025700004E-04
  1.125641700E+03 -4.911300020E-04
  3.164913600E+02 -2.026570008E-03
  1.020072600E+02 -7.261010030E-03
  3.629587300E+01 -2.197722009E-02
  1.397141000E+01 -5.408428022E-02
  5.741156000E+00 -1.022402604E-01
  2.494268000E+00 -1.423595206E-01
  1.114202000E+00 -4.658690019E-02
  4.215490000E-01  3.799402916E-01
  1.696330000E-01  5.890463624E-01
  6.853500000E-02  1.749075107E-01
  2.398700000E-02 -1.142030005E-03
   p   9
  5.500000000E+01  1.229800005E-03
  1.336610100E+01  8.827380035E-03
  4.135394000E+00  3.843340015E-02
  1.481256000E+00  1.150031805E-01
  6.021360000E-01  2.733674011E-01
  2.556360000E-01  4.061972116E-01
  1.111510000E-01  3.014967912E-01
  4.764800000E-02  7.684809030E-02
  1.667700000E-02 -8.170000032E-06
 
[MO]
Sym=     1a  
Ene=    -7.6971
Spin= Alpha
Occup=    1.00000
   1         0.70693398
   2         0.01000747
   3         0.00000000
   4        -0.00000000
   5         0.00052294
   6         0.70693399
   7         0.01000747
   8         0.00000000
   9         0.00000000
  10        -0.00052294
Sym=     1a  
Ene=    -7.6971
Spin= Beta
Occup=    1.00000
   1         0.70693398
   2         0.01000747
   3         0.00000000
   4        -0.00000000
   5         0.00052294
   6         0.70693399
   7         0.01000747
   8         0.00000000
   9         0.00000000
  10        -0.00052294
Sym=     2a  
Ene=    -7.6968
Spin= Alpha
Occup=    1.00000
   1        -0.70719001
   2        -0.01072096
   3         0.00000000
   4        -0.00000000
   5        -0.00101109
   6         0.70718999
   7         0.01072096
   8         0.00000000
   9         0.00000000
  10        -0.00101109
Sym=     2a  
Ene=    -7.6968
Spin= Beta
Occup=    1.00000
   1        -0.70719001
   2        -0.01072096
   3         0.00000000
   4        -0.00000000
   5        -0.00101109
   6         0.70718999
   7         0.01072096
   8         0.00000000
   9         0.00000000
  10        -0.00101109
Sym=     3a  
Ene=    -0.6591
Spin= Alpha
Occup=    1.00000
   1        -0.03881771
   2         0.54891530
   3        -0.00000000
   4        -0.00000000
   5         0.13729588
   6        -0.03881771
   7         0.54891530
   8         0.00000000
   9        -0.00000000
  10        -0.13729588
Sym=     3a  
Ene=    -0.6591
Spin= Beta
Occup=    1.00000
   1        -0.03881771
   2         0.54891530
   3        -0.00000000
   4        -0.00000000
   5         0.13729588
   6        -0.03881771
   7         0.54891530
   8         0.00000000
   9        -0.00000000
  10        -0.13729588
Sym=     4a  
Ene=    -0.3778
Spin= Alpha
Occup=    1.00000
   1        -0.00294816
   2        -0.74096721
   3        -0.00000000
   4        -0.00000000
   5         0.19592132
   6         0.00294816
   7         0.74096721
   8        -0.00000000
   9        -0.00000000
  10         0.19592132
Sym=     4a  
Ene=    -0.3778
Spin= Beta
Occup=    1.00000
   1        -0.00294816
   2        -0.74096721
   3        -0.00000000
   4        -0.00000000
   5         0.19592132
   6         0.00294816
   7         0.74096721
   8        -0.00000000
   9        -0.00000000
  10         0.19592132
Sym=     5a  
Ene=    -0.2766
Spin= Alpha
Occup=    1.00000
   1        -0.00000000
   2        -0.00000000
   3         0.61733098
   4        -0.10174204
   5         0.00000000
   6        -0.00000000
   7         0.00000000
   8         0.61733098
   9        -0.10174204
  10        -0.00000000
Sym=     5a  
Ene=    -0.2766
Spin= Beta
Occup=    1.00000
   1        -0.00000000
   2        -0.00000000
   3         0.61733098
   4        -0.10174204
   5         0.00000000
   6        -0.00000000
   7         0.00000000
   8         0.61733098
   9        -0.10174204
  10        -0.00000000
Sym=     6a  
Ene=     0.0016
Spin= Alpha
Occup=    0.00000
   1         0.03137215
   2         0.32802550
   3         0.00000000
   4         0.00000000
   5        -0.64753880
   6         0.03137215
   7         0.32802550
   8         0.00000000
   9         0.00000000
  10         0.64753880
Sym=     6a  
Ene=     0.0016
Spin= Beta
Occup=    0.00000
   1         0.03137215
   2         0.32802550
   3         0.00000000
   4         0.00000000
   5        -0.64753880
   6         0.03137215
   7         0.32802550
   8         0.00000000
   9         0.00000000
  10         0.64753880
Sym=     7a  
Ene=     0.0142
Spin= Alpha
Occup=    0.00000
   1        -0.00000000
   2        -0.00000000
   3         0.10174204
   4         0.61733098
   5         0.00000000
   6        -0.00000000
   7        -0.00000000
   8         0.10174204
   9         0.61733098
  10        -0.00000000
Sym=     7a  
Ene=     0.0142
Spin= Beta
Occup=    0.00000
   1        -0.00000000
   2        -0.00000000
   3         0.10174204
   4         0.61733098
   5         0.00000000
   6        -0.00000000
   7        -0.00000000
   8         0.10174204
   9         0.61733098
  10        -0.00000000
Sym=     8a  
Ene=     0.1371
Spin= Alpha
Occup=    0.00000
   1         0.00000000
   2         0.00000000
   3        -0.82070706
   4         0.13526036
   5         0.00000000
   6        -0.00000000
   7        -0.00000000
   8         0.82070706
   9        -0.13526036
  10         0.00000000
Sym=     8a  
Ene=     0.1371
Spin= Beta
Occup=    0.00000
   1         0.00000000
   2         0.00000000
   3        -0.82070706
   4         0.13526036
   5         0.00000000
   6        -0.00000000
   7        -0.00000000
   8         0.82070706
   9        -0.13526036
  10         0.00000000
Sym=     9a  
Ene=     0.1927
Spin= Alpha
Occup=    0.00000
   1         0.00000000
   2         0.00000000
   3        -0.13526036
   4        -0.82070706
   5         0.00000000
   6        -0.00000000
   7        -0.00000000
   8         0.13526036
   9         0.82070706
  10        -0.00000000
Sym=     9a  
Ene=     0.1927
Spin= Beta
Occup=    0.00000
   1         0.00000000
   2         0.00000000
   3        -0.13526036
   4        -0.82070706
   5         0.00000000
   6        -0.00000000
   7        -0.00000000
   8         0.13526036
   9         0.82070706
  10        -0.00000000
Sym=    10a  
Ene=     0.4895
Spin= Alpha
Occup=    0.00000
   1         0.09920981
   2         0.89088690
   3         0.00000000
   4         0.00000000
   5         1.07116008
   6        -0.09920981
   7        -0.89088690
   8        -0.00000000
   9        -0.00000000
  10         1.07116008
Sym=    10a  
Ene=     0.4895
Spin= Beta
Occup=    0.00000
   1         0.09920981
   2         0.89088690
   3         0.00000000
   4         0.00000000
   5         1.07116008
   6        -0.09920981
   7        -0.89088690
   8        -0.00000000
   9        -0.00000000
  10         1.07116008
