[Molden Format]
[N_Atoms]
                     2
[Atoms] (AU)
B1          1      5           0.00000000      0.00000000      0.00000000
B2          2      5           0.00000000      0.00000000      3.40150702
[Charge] (Mulliken)
  0.000000000000000E+000
  0.000000000000000E+000
[GTO] (AU)
   1
   s  14
  3.336021700E+04  1.039699991E-04
  4.972095200E+03  5.254399956E-04
  1.125641700E+03  2.509059979E-03
  3.164913600E+02  1.031887991E-02
  1.020072600E+02  3.636632969E-02
  3.629587300E+01  1.064607991E-01
  1.397141000E+01  2.403999880E-01
  5.741156000E+00  3.748581168E-01
  2.494268000E+00  3.100066974E-01
  1.114202000E+00  7.922455933E-02
  4.215490000E-01 -4.947589958E-03
  1.696330000E-01 -7.737119935E-03
  6.853500000E-02 -1.501079987E-03
  2.398700000E-02 -1.333299989E-04
   s  14
  3.336021700E+04 -2.030000008E-05
  4.972095200E+03 -1.025700004E-04
  1.125641700E+03 -4.911300020E-04
  3.164913600E+02 -2.026570008E-03
  1.020072600E+02 -7.261010030E-03
  3.629587300E+01 -2.197722009E-02
  1.397141000E+01 -5.408428022E-02
  5.741156000E+00 -1.022402604E-01
  2.494268000E+00 -1.423595206E-01
  1.114202000E+00 -4.658690019E-02
  4.215490000E-01  3.799402916E-01
  1.696330000E-01  5.890463624E-01
  6.853500000E-02  1.749075107E-01
  2.398700000E-02 -1.142030005E-03
   p   9
  5.500000000E+01  1.229800005E-03
  1.336610100E+01  8.827380035E-03
  4.135394000E+00  3.843340015E-02
  1.481256000E+00  1.150031805E-01
  6.021360000E-01  2.733674011E-01
  2.556360000E-01  4.061972116E-01
  1.111510000E-01  3.014967912E-01
  4.764800000E-02  7.684809030E-02
  1.667700000E-02 -8.170000032E-06
 
   2
   s  14
  3.336021700E+04  1.039699991E-04
  4.972095200E+03  5.254399956E-04
  1.125641700E+03  2.509059979E-03
  3.164913600E+02  1.031887991E-02
  1.020072600E+02  3.636632969E-02
  3.629587300E+01  1.064607991E-01
  1.397141000E+01  2.403999880E-01
  5.741156000E+00  3.748581168E-01
  2.494268000E+00  3.100066974E-01
  1.114202000E+00  7.922455933E-02
  4.215490000E-01 -4.947589958E-03
  1.696330000E-01 -7.737119935E-03
  6.853500000E-02 -1.501079987E-03
  2.398700000E-02 -1.333299989E-04
   s  14
  3.336021700E+04 -2.030000008E-05
  4.972095200E+03 -1.025700004E-04
  1.125641700E+03 -4.911300020E-04
  3.164913600E+02 -2.026570008E-03
  1.020072600E+02 -7.261010030E-03
  3.629587300E+01 -2.197722009E-02
  1.397141000E+01 -5.408428022E-02
  5.741156000E+00 -1.022402604E-01
  2.494268000E+00 -1.423595206E-01
  1.114202000E+00 -4.658690019E-02
  4.215490000E-01  3.799402916E-01
  1.696330000E-01  5.890463624E-01
  6.853500000E-02  1.749075107E-01
  2.398700000E-02 -1.142030005E-03
   p   9
  5.500000000E+01  1.229800005E-03
  1.336610100E+01  8.827380035E-03
  4.135394000E+00  3.843340015E-02
  1.481256000E+00  1.150031805E-01
  6.021360000E-01  2.733674011E-01
  2.556360000E-01  4.061972116E-01
  1.111510000E-01  3.014967912E-01
  4.764800000E-02  7.684809030E-02
  1.667700000E-02 -8.170000032E-06
 
[MO]
Sym=     1a  
Ene=    -7.7045
Spin= Alpha
Occup=    2.00000
   1        -0.70663888
   2         0.00147205
   3        -0.00000000
   4        -0.00000000
   5         0.00196345
   6         0.70663888
   7        -0.00147205
   8         0.00000000
   9         0.00000000
  10         0.00196345
Sym=     2a  
Ene=    -7.6922
Spin= Alpha
Occup=    2.00000
   1         0.70719003
   2         0.00167408
   3         0.00000000
   4         0.00000000
   5         0.00207268
   6         0.70719003
   7         0.00167408
   8        -0.00000000
   9        -0.00000000
  10        -0.00207268
Sym=     3a  
Ene=    -0.7536
Spin= Alpha
Occup=    2.00000
   1        -0.03308244
   2         0.51868542
   3        -0.00000000
   4        -0.00000000
   5         0.19258312
   6        -0.03308244
   7         0.51868542
   8         0.00000000
   9         0.00000000
  10        -0.19258312
Sym=     4a  
Ene=    -0.4427
Spin= Alpha
Occup=    2.00000
   1         0.00562701
   2        -0.59251043
   3         0.00000000
   4         0.00000000
   5         0.36109523
   6        -0.00562701
   7         0.59251043
   8         0.00000000
   9         0.00000000
  10         0.36109523
Sym=     5a  
Ene=    -0.3971
Spin= Alpha
Occup=    1.00000
   1         0.00000000
   2         0.00000000
   3         0.61733098
   4        -0.10174204
   5        -0.00000000
   6         0.00000000
   7        -0.00000000
   8         0.61733098
   9        -0.10174204
  10         0.00000000
Sym=     6a  
Ene=    -0.3971
Spin= Alpha
Occup=    1.00000
   1        -0.00000000
   2         0.00000000
   3         0.10174204
   4         0.61733098
   5        -0.00000000
   6         0.00000000
   7        -0.00000000
   8         0.10174204
   9         0.61733098
  10        -0.00000000
Sym=     7a  
Ene=    -0.3178
Spin= Alpha
Occup=    0.00000
   1         0.03216373
   2         0.37412768
   3        -0.00000000
   4        -0.00000000
   5        -0.63329644
   6         0.03216373
   7         0.37412768
   8         0.00000000
   9         0.00000000
  10         0.63329644
Sym=     8a  
Ene=    -0.2247
Spin= Alpha
Occup=    0.00000
   1         0.00000000
   2         0.00000000
   3         0.33779437
   4        -0.76009894
   5         0.00000000
   6        -0.00000000
   7        -0.00000000
   8        -0.33779437
   9         0.76009894
  10         0.00000000
Sym=     9a  
Ene=    -0.2247
Spin= Alpha
Occup=    0.00000
   1         0.00000000
   2        -0.00000000
   3        -0.76009894
   4        -0.33779437
   5         0.00000000
   6        -0.00000000
   7        -0.00000000
   8         0.76009894
   9         0.33779437
  10        -0.00000000
Sym=    10a  
Ene=    -0.0926
Spin= Alpha
Occup=    0.00000
   1         0.10295048
   2         0.99586949
   3        -0.00000000
   4         0.00000000
   5         1.02731518
   6        -0.10295048
   7        -0.99586949
   8         0.00000000
   9        -0.00000000
  10         1.02731518
