   This run of MOLCAS is using the pymolcas driver

                             OPE
                             OPE          NMOL  CASOP  ENMOLC A   SO
                 OPE        NMOLC        AS  OP EN  MO LC     AS  OP
                OPENM       OL CA        SO  PE NM  OL CA     SOP EN
                OP EN      MO   LC       AS  OP ENMOL  CASO   PENMOL
                OP  EN     MO   LC       AS  OP EN     MO     LC ASO
               OP   E  NMOL  C  AS       OP  EN MO     LC     AS  OP
               OP  E   NMO   LC AS        OPEN  MO     LCASOP EN   M
               O  PEN   MO  LCA  SO
            OPE   NMO   L   CAS    OP
        OPENMOL  CASOP     ENMOL   CASOPE
     OPENMOLCA   SOPENMOLCASOPEN   MOLCASOPE
    OPENMOLCAS   OP           EN   MOL    CAS
    OPENMOLCAS       OP  ENM        O     LCA
    OPENMOLCAS    OPEN  MOLCASO     P  E  NMO
    OPENMOLCAS     OP               E  N  MOL
    OPENMOLCA   SO           PENM   O  L  CAS    OPEN    MO    LCAS
    OPENMOLCA   SOP           ENM   O  L  CAS   OP  EN  MOLC  AS   O
    OPENMOLCA   SOPE           NM      O  LCA   S      OP  EN MO
    OPENMOLC                AS         O  PEN   M      OL  CA  SOPE
    OPENMO        LCASOPE  NMOL        C  ASO   P      ENMOLC     AS
    OPE     NMO      LCA  SO     P     E   NM   OL  CA SO  PE N   MO
          OPENMOLCA            SOPE   NMO        LCAS  O    P  ENMO
     OPENMOLCASOPENMOLCASOPENMOLCASOPENMOLCA
        OPENMOLCASOPENMOLCASOPENMOLCASOPE
            OPENMOLCASOPENMOLCASOPENM
               OPENMOLCASOPENMOLCA        version: ea724fe96-dirty
                   OPENMOLCASO
                       OPE                tag:

 OpenMolcas is free software; you can redistribute it and/or modify it
 under the terms of the GNU Lesser General Public License version 2.1.
 OpenMolcas is distributed in the hope that it will be useful, but it
 is provided "as is" and without any express or implied warranties.
 For more details see the full text of the license in the file
 LICENSE or in <http://www.gnu.org/licenses/>.

                 Copyright (C) The OpenMolcas Authors
           For the author list and the recommended citation,
                   consult the file CONTRIBUTORS.md

           *************************************************
           * pymolcas version py2.28                       *
           *   build c4a6d18ded8cb6cad61d2372a9abd97c      *
           *   (after the EMIL interpreter by V. Veryazov) *
           *************************************************

configuration info
------------------
C Compiler ID: Intel
C flags: -std=gnu99
Fortran Compiler ID: Intel
Fortran flags: -fpp -i8 -r8 -heap-arrays
Definitions: _MOLCAS_;_I8_;_LINUX_
Parallel: OFF (GA=OFF)


   -------------------------------------------------------------------------------
  |
  |              Project: 3.89
  |       Submitted from: /home/grierjones/DDCASPT2/iron_oxo_DDCASPT2/cluster/3.89
  |         Scratch area: /tmp/3.89
  |      Save outputs to: /home/grierjones/DDCASPT2/iron_oxo_DDCASPT2/cluster/3.89
  |               Molcas: /home/grierjones/Test/build
  |
  | Scratch area is empty
  |
  |       MOLCAS_DRIVER = /usr/local/pymolcas
  | MOLCAS_KEEP_WORKDIR = NO
  |  MOLCAS_NEW_WORKDIR = YES
  |       MOLCAS_NPROCS = 1
  |        MOLCAS_PRINT = NORMAL
  |       MOLCAS_SOURCE = /home/grierjones/Test/build
  |    MOLCAS_STRUCTURE = 0
  |
   -------------------------------------------------------------------------------

++ ---------   Input file   ---------

&GATEWAY
coord=3.89.xyz
Basis = ANO-RCC-VDZP
Group = nosymm
Expert
End of Input

&SEWARD
End of Input

&SCF
UHF
charge
2
spin
5

>>> COPY $WorkDir/3.89.scf.h5 $CurrDir/

&RASSCF
Title= RASSCF
FileOrb
/home/grierjones/DDCASPT2/iron_oxo_DDCASPT2/cluster/3.87/3.87.RasOrb
NACTEL
10 0 0
RAS2
14
Symmetry
1
Spin
5
charge
2
orblisting
all
ITERation
300 200

>>> COPY $WorkDir/3.89.rasscf.h5 $CurrDir/

>>> COPY $WorkDir/GMJ_Fock_MO.csv $CurrDir/3.89.GMJ_Fock_MO.csv

>>> COPY $WorkDir/GMJ_PT2_Fock_MO.csv $CurrDir/3.89.GMJ_PT2_Fock_MO.csv

&MOTRA
Frozen=0
LUMORB

>>> COPY $WorkDir/GMJ_one_int_indx.csv $CurrDir/3.89.GMJ_one_int_indx.csv

>>> COPY $WorkDir/GMJ_one_int.csv $CurrDir/3.89.GMJ_one_int.csv

>>> COPY $WorkDir/GMJ_two_int_indx.csv $CurrDir/3.89.GMJ_two_int_indx.csv

>>> COPY $WorkDir/GMJ_two_int.csv $CurrDir/3.89.GMJ_two_int.csv

&CASPT2
Frozen
0
MAXITER
50

>>> FOREACH i IN (B,E,F,G,H)

  >>> FOREACH j IN (P,M)

    >>> IF (-FILE GMJ_e2_${i}_${j}.csv)

      >>> COPY $WorkDir/GMJ_RHS_${i}_${j}.csv $CurrDir/GMJ_RHS_${i}_${j}.csv

      >>> COPY $WorkDir/GMJ_IVECW_${i}_${j}.csv $CurrDir/GMJ_IVECW_${i}_${j}.csv

      >>> COPY $WorkDir/GMJ_IVECX_${i}_${j}.csv $CurrDir/GMJ_IVECX_${i}_${j}.csv

      >>> COPY $WorkDir/GMJ_IVECC2_${i}_${j}.csv $CurrDir/GMJ_IVECC2_${i}_${j}.csv

      >>> COPY $WorkDir/GMJ_e2_${i}_${j}.csv $CurrDir/GMJ_e2_${i}_${j}.csv

    >>> END IF

  >>> END FOREACH

>>> END FOREACH

>>> FOREACH i IN (A,C,D)

  >>> IF (-FILE GMJ_e2_$i.csv)

    >>> COPY $WorkDir/GMJ_RHS_$i.csv $CurrDir/GMJ_RHS_$i.csv

    >>> COPY $WorkDir/GMJ_IVECW_$i.csv $CurrDir/GMJ_IVECW_$i.csv

    >>> COPY $WorkDir/GMJ_IVECX_$i.csv $CurrDir/GMJ_IVECX_$i.csv

    >>> COPY $WorkDir/GMJ_IVECC2_$i.csv $CurrDir/GMJ_IVECC2_$i.csv

    >>> COPY $WorkDir/GMJ_e2_$i.csv $CurrDir/GMJ_e2_$i.csv

  >>> END IF

>>> END FOREACH

-- ----------------------------------

--- Start Module: gateway at Tue Dec 17 22:50:21 2024 ---
 
()()()()()()()()()()()()()()()()()()()()()()()()()()()()()()()()()()()()()()()()()()()()()()()()()()

                                              &GATEWAY

                                   only a single process is used
                       available to each process: 2.0 GB of memory, 1 thread?
()()()()()()()()()()()()()()()()()()()()()()()()()()()()()()()()()()()()()()()()()()()()()()()()()()
 
 ###############################################################################
 ###############################################################################
 ###                                                                         ###
 ###                                                                         ###
 ###                                                                         ###
 ###    WARNING: EXPERT option is ON!                                        ###
 ###                                                                         ###
 ###                                                                         ###
 ###############################################################################
 ###############################################################################
 
++    Symmetry information:
      ---------------------
 
                    Character Table for C1 
 
                             E  
                    a        1  x, y, xy, Rz, z, xz, Ry, yz, Rx, I
--
 
 
++    Basis set information:
      ----------------------
 
 
      Basis set label: O.ANO-RCC...3S2P1D.
 
      Electronic valence basis set:
      ------------------
      Associated Effective Charge   8.000000 au
      Associated Actual Charge      8.000000 au
      Nuclear Model: Point charge
 
      Shell  nPrim  nBasis  Cartesian Spherical Contaminant
         s      14       3        X                  
         p       9       2        X                  
         d       4       1                 X         
 
 
      Basis set label: FE.ANO-RCC...5S4P2D1F.
 
      Electronic valence basis set:
      ------------------
      Associated Effective Charge  26.000000 au
      Associated Actual Charge     26.000000 au
      Nuclear Model: Point charge
 
      Shell  nPrim  nBasis  Cartesian Spherical Contaminant
         s      21       5        X                  
         p      15       4        X                  
         d      10       2                 X         
         f       6       1                 X         
--
 
 
++    Molecular structure info:
      -------------------------
 
                    ************************************************ 
                    **** Cartesian Coordinates / Bohr, Angstrom **** 
                    ************************************************ 
 
     Center  Label                x              y              z                     x              y              z
        1      O1               0.000000       0.000000       5.186240              0.000000       0.000000       2.744440
        2      FE2              0.000000       0.000000      -2.162678              0.000000       0.000000      -1.144440
--
 
 
            Nuclear Potential Energy             28.30348579 au
 
 ###############################################################################
 ###############################################################################
 ###                                                                         ###
 ###                                                                         ###
 ###    There were warnings during the execution                             ###
 ###    Please, check the output with care!                                  ###
 ###                                                                         ###
 ###                                                                         ###
 ###############################################################################
 ###############################################################################
--- Stop Module: gateway at Tue Dec 17 22:50:21 2024 /rc=_RC_ALL_IS_WELL_ ---
*** files: xmldump
    saved to directory /home/grierjones/DDCASPT2/iron_oxo_DDCASPT2/cluster/3.89

--- Start Module: seward at Tue Dec 17 22:50:21 2024 ---
 
()()()()()()()()()()()()()()()()()()()()()()()()()()()()()()()()()()()()()()()()()()()()()()()()()()

                                              &SEWARD

                                   only a single process is used
                       available to each process: 2.0 GB of memory, 1 thread?
()()()()()()()()()()()()()()()()()()()()()()()()()()()()()()()()()()()()()()()()()()()()()()()()()()
 
 ###############################################################################
 ###############################################################################
 ###                                                                         ###
 ###                                                                         ###
 ###                                                                         ###
 ###    WARNING: EXPERT option is ON!                                        ###
 ###                                                                         ###
 ###                                                                         ###
 ###############################################################################
 ###############################################################################
               SEWARD will generate:
                  Multipole Moment integrals up to order  2
                  Kinetic Energy integrals
                  Nuclear Attraction integrals (point charge)
                  One-Electron Hamiltonian integrals
                  Velocity integrals
                  Relativistic Douglas-Kroll-Hess integrals:
                    - Parametrization         : EXP
                    - DKH order of Hamiltonian: 2
                    - DKH order of Properties : 0
                         - multipole moment operators
                         - electric potential operators
                         - contact operators
                  Atomic mean-field integrals
                  Two-Electron Repulsion integrals
 
                   Integrals are discarded if absolute value <: 0.10E-13
                   Integral cutoff threshold is set to       <: 0.10E-15
 
            Nuclear Potential Energy             28.30348579 au
 
 
      Basis set specifications :
      Symmetry species         a  
      Basis functions           48
 
 
  Input file to MOLDEN was generated!
 
 ###############################################################################
 ###############################################################################
 ###                                                                         ###
 ###                                                                         ###
 ###    There were warnings during the execution                             ###
 ###    Please, check the output with care!                                  ###
 ###                                                                         ###
 ###                                                                         ###
 ###############################################################################
 ###############################################################################
--- Stop Module: seward at Tue Dec 17 22:50:22 2024 /rc=_RC_ALL_IS_WELL_ ---
*** files: 3.89.GssOrb 3.89.guessorb.h5 3.89.guessorb.molden xmldump
    saved to directory /home/grierjones/DDCASPT2/iron_oxo_DDCASPT2/cluster/3.89

*** symbolic link created: INPORB -> 3.89.GssOrb
--- Start Module: scf at Tue Dec 17 22:50:22 2024 ---
 
()()()()()()()()()()()()()()()()()()()()()()()()()()()()()()()()()()()()()()()()()()()()()()()()()()

                                                &SCF

                                   only a single process is used
                       available to each process: 2.0 GB of memory, 1 thread?
()()()()()()()()()()()()()()()()()()()()()()()()()()()()()()()()()()()()()()()()()()()()()()()()()()
 
 *** Possible bug in opening file
 *** isFreeUnit resets the unit number
++    Input section:
      --------------
 
      Header of the integral files:
      
       Integrals generated by seward 4.2.0  , Tue Dec 17 22:50:22 2024
 
 
      Cartesian coordinates in Angstrom:
      -----------------------------------------------------
      No.  Label        X            Y            Z        
      -----------------------------------------------------
       1   O1         0.00000000   0.00000000   2.74444000
       2   FE2        0.00000000   0.00000000  -1.14444000
      -----------------------------------------------------
      Nuclear repulsion energy =   28.30348579
--
 
++    Orbital specifications:
      -----------------------
 
      Symmetry species               1
                                     a
      Frozen orbitals                0
      Start temperature = 0.500
      End temperature   = 0.010
      Temperature Factor= 0.460
      Deleted orbitals               0
      Total number of orbitals      48
      Number of basis functions     48
--
 
      Molecular charge                           2.000
 
++    Optimization specifications:
      ----------------------------
 
      SCF Algorithm: Conventional USCF
      D(i)-D(i-1) density differences are used
      Number of density matrices in core                5
      Maximum number of NDDO SCF iterations           400
      Maximum number of HF SCF iterations             400
      Threshold for SCF energy change            0.10E-08
      Threshold for density matrix               0.10E-03
      Threshold for Fock matrix                  0.15E-03
      Threshold for linear dependence            0.10E-08
      Threshold at which DIIS is turned on       0.15E+00
      Threshold at which QNR/C2DIIS is turned on 0.75E-01
      Threshold for Norm(delta) (QNR/C2DIIS)     0.20E-04
      DIIS extrapolation of the SCF procedure
      All orbitals punched on: UHFORB
--
 
      Input vectors read from INPORB
      Orbital file label: *Guess orbitals
 
 
++ Convergence information
                               UHF SCF        iterations: Energy and convergence statistics
 
Iter     Tot. SCF        One-elec.       Two-elec.     Energy      Max Dij or  Max Fij      DNorm      TNorm      AccCon     Time
         Energy          Energy          Energy        Change      Delta Norm                                                in Sec.
 
 The total and one-electron energies are shifted by a value of      1000. a.u.
 
   1  -343.267415958  -889.263766095   517.692864348   0.00E+00    0.16E+00*   0.37E+00*    0.75E+01   0.18E+03   None         0.
   2  -343.492535741  -886.051785111   514.255763579  -0.23E+00*   0.87E-01*   0.19E+00*    0.10E+01   0.18E+03   EDIIS        0.
   3  -342.012953974  -930.828167857   560.511728093   0.15E+01*   0.67E-01*   0.20E+00*    0.17E+01   0.19E+03   EDIIS        0.
   4  -342.640431055  -870.777119623   499.833202777  -0.63E+00*   0.62E-01*   0.10E+00*    0.17E+01   0.18E+03   EDIIS        0.
   5  -344.362879562  -901.500565229   528.834199876  -0.17E+01*   0.19E+00*   0.73E-01*    0.83E+00   0.18E+03   EDIIS        0.
   6  -344.549659552  -885.347848109   512.494702767  -0.19E+00*   0.40E+00*   0.27E+00*    0.15E+01   0.18E+03   EDIIS        0.
   7  -344.474582137  -911.837661881   539.059593954   0.75E-01*   0.33E+00*   0.12E+00*    0.17E+01   0.18E+03   EDIIS        0.
   8  -345.220283709  -893.924102618   520.400333118  -0.75E+00*   0.26E+00*   0.12E+00*    0.11E+01   0.18E+03   EDIIS        0.
   9  -345.250846618  -897.923750692   524.369418285  -0.31E-01*   0.42E-01*   0.61E-01*    0.47E+00   0.18E+03   EDIIS        0.
  10  -345.255832224  -895.555552261   521.996234247  -0.50E-02*   0.36E-01*   0.37E-01*    0.18E+00   0.18E+03   EDIIS        0.
 
       Fermi aufbau procedure completed!
      nOcc(alpha)=   18
      nOcc(beta) =   14
 
  11  -345.257303303  -897.093352341   523.532563248  -0.15E-02*   0.16E-01*   0.14E-01*    0.11E+00   0.18E+03   EDIIS        0.
  12  -345.257818336  -896.137769895   522.576465769  -0.52E-03*   0.11E-01*   0.96E-02*    0.63E-01   0.18E+03   EDIIS        0.
  13  -345.258010062  -896.736528987   523.175033135  -0.19E-03*   0.65E-02*   0.55E-02*    0.40E-01   0.18E+03   EDIIS        0.
  14  -345.258083244  -896.364474349   522.802905315  -0.73E-04*   0.45E-02*   0.37E-02*    0.25E-01   0.18E+03   EDIIS        0.
  15  -345.258111816  -896.596165039   523.034567433  -0.29E-04*   0.36E-02*   0.13E-02*    0.16E-01   0.18E+03   c2DIIS       0.
  16  -345.258126013  -896.508309394   522.946697591  -0.14E-04*   0.29E-02*   0.76E-03*    0.62E-02   0.18E+03   QNRc2DIIS    0.
  17  -345.258128734  -896.507002546   522.945388021  -0.27E-05*   0.57E-02*   0.52E-03*    0.41E-02   0.18E+03   QNRc2DIIS    0.
  18  -345.258130814  -896.509455505   522.947838901  -0.21E-05*   0.25E-03*   0.69E-04     0.81E-02   0.18E+03   QNRc2DIIS    0.
  19  -345.258130836  -896.506766622   522.945149996  -0.22E-07*   0.33E-03*   0.25E-04     0.36E-03   0.18E+03   QNRc2DIIS    0.
  20  -345.258130848  -896.507711552   522.946094913  -0.13E-07*   0.48E-04*   0.66E-05     0.47E-03   0.18E+03   QNRc2DIIS    0.
  21  -345.258130849  -896.507642840   522.946026201  -0.29E-09    0.65E-05    0.11E-05     0.68E-04   0.18E+03   QNRc2DIIS    0.
 
       Convergence after 21 Macro Iterations
--
 
 *****************************************************************************************************************************
 *                                                                                                                           *
 *                                             SCF/KS-DFT Program, Final results                                             *
 *                                                                                                                           *
 *                                                                                                                           *
 *                                                                                                                           *
 *                                                       Final Results                                                       *
 *                                                                                                                           *
 *****************************************************************************************************************************
 
::    Total SCF energy                              -1345.2581308487
      One-electron energy                           -1896.5076428396
      Two-electron energy                             522.9460262008
      Nuclear repulsion energy                         28.3034857901
      Kinetic energy (interpolated)                  1399.8374632638
      Virial theorem                                    0.9610102359
      Total spin, S(S+1)                                6.0039171624
      Total spin, S                                     2.0007833098
      Max non-diagonal density matrix element           0.0000044210
      Max non-diagonal Fock matrix element              0.0000008326
 
 
      All orbitals with orbital energies smaller than  E(LUMO)+0.5 are printed
 
++    Molecular orbitals:
      -------------------
 
      Title: UHF orbitals (alpha)

      Molecular orbitals for symmetry species 1: a  
 
          Orbital            1         2         3         4         5         6         7         8         9        10    
          Energy         -264.3275  -33.1468  -28.2293  -28.2293  -28.1943  -20.9836   -5.1018   -3.6796   -3.6796   -3.6042
          Occ. No.          1.0000    1.0000    1.0000    1.0000    1.0000    1.0000    1.0000    1.0000    1.0000    1.0000
 
        1 O1     1s        -0.0000   -0.0000    0.0000    0.0000   -0.0000    1.0000   -0.0000   -0.0000    0.0000    0.0000
        2 O1     2s        -0.0000   -0.0000    0.0000   -0.0000   -0.0000   -0.0003   -0.0002    0.0000    0.0000    0.0002
        3 O1     3s        -0.0000   -0.0001    0.0000    0.0000   -0.0001   -0.0006   -0.0003   -0.0000   -0.0000    0.0004
        4 O1     2px        0.0000   -0.0000   -0.0000   -0.0000   -0.0000    0.0000    0.0000    0.0000    0.0001    0.0000
        5 O1     3px       -0.0000   -0.0000   -0.0000   -0.0000    0.0000    0.0000    0.0000    0.0001    0.0002   -0.0000
        6 O1     2py       -0.0000    0.0000   -0.0000    0.0000    0.0000   -0.0000    0.0000    0.0001   -0.0000    0.0000
        7 O1     3py       -0.0000    0.0000   -0.0000    0.0000    0.0000    0.0000   -0.0000    0.0002   -0.0001    0.0000
        8 O1     2pz       -0.0000    0.0000   -0.0000    0.0000    0.0000    0.0000    0.0001    0.0000   -0.0000   -0.0002
        9 O1     3pz       -0.0000    0.0001   -0.0000   -0.0000    0.0001   -0.0001    0.0002    0.0000    0.0000   -0.0006
       10 O1     3d2-      -0.0000   -0.0000   -0.0000   -0.0000    0.0000   -0.0000   -0.0000    0.0000    0.0000   -0.0000
       11 O1     3d1-       0.0000   -0.0000    0.0000   -0.0000   -0.0000   -0.0000   -0.0000   -0.0000    0.0000   -0.0000
       12 O1     3d0        0.0000   -0.0000   -0.0000   -0.0000   -0.0000   -0.0007   -0.0000   -0.0000    0.0000    0.0001
       13 O1     3d1+       0.0000    0.0000    0.0000    0.0000    0.0000   -0.0000    0.0000   -0.0000   -0.0000   -0.0000
       14 O1     3d2+       0.0000    0.0000   -0.0000    0.0000    0.0000    0.0000   -0.0000   -0.0000    0.0000    0.0000
       15 FE2    1s         1.0000   -0.0000    0.0000    0.0000   -0.0000   -0.0000   -0.0000   -0.0000   -0.0000   -0.0000
       16 FE2    2s         0.0000    1.0000    0.0000   -0.0000   -0.0000   -0.0000   -0.0031   -0.0000    0.0000   -0.0000
       17 FE2    3s         0.0000    0.0030   -0.0000   -0.0000    0.0000   -0.0000    0.9999   -0.0000   -0.0000   -0.0002
       18 FE2    4s         0.0000   -0.0002   -0.0000   -0.0000    0.0000   -0.0000    0.0006    0.0000   -0.0000   -0.0001
       19 FE2    5s         0.0000    0.0003   -0.0000   -0.0000    0.0000   -0.0000    0.0006   -0.0000    0.0000   -0.0002
       20 FE2    2px       -0.0000    0.0000    0.6287    0.7777   -0.0000   -0.0000    0.0000   -0.0009   -0.0029    0.0000
       21 FE2    3px        0.0000   -0.0000    0.0019    0.0023   -0.0000   -0.0000    0.0000    0.2950    0.9554   -0.0000
       22 FE2    4px        0.0000    0.0000   -0.0003   -0.0003    0.0000   -0.0000   -0.0000   -0.0027   -0.0087    0.0000
       23 FE2    5px        0.0000    0.0000    0.0007    0.0009   -0.0000   -0.0000    0.0000    0.0014    0.0044   -0.0000
       24 FE2    2py        0.0000   -0.0000    0.7777   -0.6287    0.0000    0.0000   -0.0000   -0.0029    0.0009   -0.0000
       25 FE2    3py       -0.0000    0.0000    0.0023   -0.0019    0.0000   -0.0000    0.0000    0.9554   -0.2950    0.0000
       26 FE2    4py       -0.0000   -0.0000   -0.0003    0.0003   -0.0000   -0.0000    0.0000   -0.0087    0.0027    0.0000
       27 FE2    5py       -0.0000    0.0000    0.0009   -0.0007    0.0000   -0.0000   -0.0000    0.0044   -0.0014   -0.0000
       28 FE2    2pz        0.0000    0.0000   -0.0000    0.0000    1.0000   -0.0000   -0.0000    0.0000   -0.0000   -0.0025
       29 FE2    3pz       -0.0000    0.0000   -0.0000    0.0000    0.0025   -0.0000    0.0002    0.0000    0.0000    0.9999
       30 FE2    4pz        0.0000    0.0000   -0.0000   -0.0000   -0.0003   -0.0000    0.0001    0.0000   -0.0000   -0.0067
       31 FE2    5pz       -0.0000    0.0000   -0.0000    0.0000    0.0008   -0.0000    0.0001   -0.0000    0.0000    0.0025
       32 FE2    3d2-      -0.0000    0.0000    0.0000    0.0000    0.0000   -0.0000    0.0000    0.0000    0.0000    0.0000
       33 FE2    4d2-       0.0000   -0.0000   -0.0000   -0.0000    0.0000    0.0000   -0.0000    0.0000    0.0000   -0.0000
       34 FE2    3d1-       0.0000   -0.0000    0.0000   -0.0000    0.0000   -0.0000   -0.0000    0.0001   -0.0000    0.0000
       35 FE2    4d1-       0.0000   -0.0000    0.0000   -0.0000   -0.0000   -0.0000    0.0000   -0.0000    0.0000    0.0000
       36 FE2    3d0       -0.0000   -0.0005   -0.0000    0.0000    0.0000   -0.0000   -0.0131   -0.0000    0.0000    0.0001
       37 FE2    4d0        0.0000    0.0004   -0.0000   -0.0000    0.0000   -0.0000    0.0048   -0.0000    0.0000   -0.0001
       38 FE2    3d1+      -0.0000    0.0000    0.0000    0.0000   -0.0000   -0.0000    0.0000    0.0000    0.0001    0.0000
       39 FE2    4d1+       0.0000    0.0000    0.0000    0.0000   -0.0000   -0.0000   -0.0000   -0.0000   -0.0000   -0.0000
       40 FE2    3d2+      -0.0000    0.0000   -0.0000    0.0000    0.0000    0.0000    0.0000   -0.0000    0.0000   -0.0000
       41 FE2    4d2+       0.0000   -0.0000    0.0000   -0.0000   -0.0000   -0.0000   -0.0000   -0.0000    0.0000    0.0000
       42 FE2    4f3-      -0.0000    0.0000    0.0000   -0.0000    0.0000   -0.0000    0.0000    0.0000    0.0000   -0.0000
       43 FE2    4f2-       0.0000    0.0000    0.0000   -0.0000   -0.0000   -0.0000   -0.0000    0.0000   -0.0000    0.0000
       44 FE2    4f1-       0.0000   -0.0000   -0.0001    0.0001   -0.0000   -0.0000    0.0000   -0.0031    0.0010   -0.0000
       45 FE2    4f0        0.0000    0.0000    0.0000   -0.0000   -0.0004    0.0000    0.0000   -0.0000   -0.0000   -0.0104
       46 FE2    4f1+      -0.0000    0.0000   -0.0001   -0.0001    0.0000   -0.0000   -0.0000   -0.0010   -0.0031    0.0000
       47 FE2    4f2+      -0.0000   -0.0000    0.0000   -0.0000    0.0000   -0.0000    0.0000   -0.0000    0.0000    0.0000
       48 FE2    4f3+      -0.0000   -0.0000    0.0000    0.0000   -0.0000   -0.0000    0.0000   -0.0000    0.0000    0.0000
 
          Orbital           11        12        13        14        15        16        17        18        19        20    
          Energy           -1.5348   -1.3854   -1.3854   -1.3545   -1.3545   -1.2949   -0.8536   -0.8536   -0.5680   -0.3948
          Occ. No.          1.0000    1.0000    1.0000    1.0000    1.0000    1.0000    1.0000    1.0000    0.0000    0.0000
 
        1 O1     1s         0.0003   -0.0000    0.0000   -0.0000   -0.0000   -0.0002   -0.0000   -0.0000   -0.0008    0.0000
        2 O1     2s         1.0002    0.0000    0.0000   -0.0000   -0.0000   -0.0056   -0.0000   -0.0000   -0.0178    0.0000
        3 O1     3s        -0.0076    0.0000    0.0000    0.0000    0.0000   -0.0028    0.0000    0.0000    0.0001    0.0000
        4 O1     2px       -0.0000    0.0000    0.0000   -0.0004    0.0000    0.0000    0.0121    0.9999   -0.0000   -0.0235
        5 O1     3px        0.0000   -0.0000    0.0000   -0.0019    0.0000   -0.0000    0.0000    0.0004   -0.0000   -0.0029
        6 O1     2py       -0.0000   -0.0000    0.0000   -0.0000   -0.0004    0.0000    0.9999   -0.0121   -0.0000    0.0002
        7 O1     3py        0.0000   -0.0000    0.0000   -0.0000   -0.0019   -0.0000    0.0004   -0.0000   -0.0000    0.0000
        8 O1     2pz       -0.0227   -0.0000    0.0000   -0.0000   -0.0000    0.0027   -0.0000   -0.0000   -0.0200    0.0000
        9 O1     3pz       -0.0079   -0.0000    0.0000    0.0000    0.0000    0.0054    0.0000    0.0000   -0.0015    0.0000
       10 O1     3d2-       0.0000    0.0000   -0.0000    0.0000    0.0000    0.0000   -0.0000   -0.0000   -0.0000    0.0000
       11 O1     3d1-      -0.0000   -0.0000   -0.0000    0.0000    0.0002    0.0000   -0.0057    0.0001    0.0000    0.0000
       12 O1     3d0       -0.0036    0.0000    0.0000    0.0000    0.0000   -0.0005    0.0000    0.0000    0.0007   -0.0000
       13 O1     3d1+      -0.0000   -0.0000   -0.0000    0.0002   -0.0000    0.0000   -0.0001   -0.0057    0.0000   -0.0007
       14 O1     3d2+       0.0000   -0.0000   -0.0000    0.0000   -0.0000    0.0000    0.0000   -0.0000    0.0000    0.0000
       15 FE2    1s        -0.0000    0.0000    0.0000    0.0000   -0.0000    0.0000   -0.0000   -0.0000   -0.0000    0.0000
       16 FE2    2s        -0.0001   -0.0000   -0.0000    0.0000    0.0000    0.0005   -0.0000   -0.0000    0.0003    0.0000
       17 FE2    3s        -0.0004   -0.0000   -0.0000   -0.0000    0.0000    0.0135   -0.0000   -0.0000   -0.0004    0.0000
       18 FE2    4s        -0.0020    0.0000    0.0000    0.0000    0.0000   -0.0011    0.0000    0.0000    0.9716    0.0000
       19 FE2    5s        -0.0019   -0.0000   -0.0000    0.0000   -0.0000    0.0031   -0.0000   -0.0000   -0.2310   -0.0000
       20 FE2    2px        0.0000    0.0000   -0.0000   -0.0000    0.0000   -0.0000   -0.0000   -0.0000    0.0000    0.0003
       21 FE2    3px       -0.0000   -0.0000   -0.0000   -0.0001    0.0000   -0.0000   -0.0000   -0.0003    0.0000    0.0087
       22 FE2    4px        0.0000    0.0000    0.0000    0.0006   -0.0000   -0.0000    0.0000    0.0017   -0.0000    0.9979
       23 FE2    5px        0.0000   -0.0000   -0.0000    0.0000   -0.0000    0.0000   -0.0000   -0.0001   -0.0000    0.0711
       24 FE2    2py       -0.0000    0.0000   -0.0000   -0.0000   -0.0000   -0.0000   -0.0000    0.0000    0.0000   -0.0000
       25 FE2    3py       -0.0000    0.0000    0.0000   -0.0000   -0.0001    0.0000   -0.0003    0.0000    0.0000   -0.0001
       26 FE2    4py        0.0000   -0.0000   -0.0000    0.0000    0.0006   -0.0000    0.0017   -0.0000    0.0000   -0.0076
       27 FE2    5py        0.0000    0.0000    0.0000    0.0000    0.0000    0.0000   -0.0001    0.0000    0.0000   -0.0005
       28 FE2    2pz       -0.0000   -0.0000   -0.0000    0.0000   -0.0000    0.0000   -0.0000   -0.0000   -0.0000   -0.0000
       29 FE2    3pz       -0.0004    0.0000   -0.0000   -0.0000   -0.0000   -0.0000   -0.0000   -0.0000   -0.0001   -0.0000
       30 FE2    4pz       -0.0021    0.0000   -0.0000    0.0000    0.0000    0.0033    0.0000    0.0000    0.0095   -0.0000
       31 FE2    5pz       -0.0008   -0.0000   -0.0000    0.0000   -0.0000    0.0006    0.0000    0.0000    0.0007   -0.0000
       32 FE2    3d2-       0.0000   -0.0039    0.9971   -0.0000   -0.0000    0.0000   -0.0000   -0.0000   -0.0000   -0.0000
       33 FE2    4d2-      -0.0000    0.0003   -0.0762    0.0000    0.0000   -0.0000    0.0000    0.0000    0.0000    0.0000
       34 FE2    3d1-       0.0000   -0.0000    0.0000    0.0173    0.9975    0.0000   -0.0016    0.0000    0.0000    0.0000
       35 FE2    4d1-       0.0000    0.0000   -0.0000   -0.0012   -0.0691    0.0000    0.0011   -0.0000    0.0000   -0.0000
       36 FE2    3d0        0.0011   -0.0000   -0.0000    0.0000   -0.0000    0.9987   -0.0000   -0.0000    0.0022    0.0000
       37 FE2    4d0       -0.0007    0.0000    0.0000   -0.0000    0.0000   -0.0529    0.0000    0.0000   -0.0142   -0.0000
       38 FE2    3d1+       0.0000    0.0000    0.0000    0.9975   -0.0173   -0.0000   -0.0000   -0.0016    0.0000   -0.0003
       39 FE2    4d1+       0.0000   -0.0000    0.0000   -0.0691    0.0012    0.0000    0.0000    0.0011   -0.0000    0.0009
       40 FE2    3d2+      -0.0000    0.9971    0.0039   -0.0000    0.0000    0.0000    0.0000   -0.0000   -0.0000   -0.0000
       41 FE2    4d2+       0.0000   -0.0762   -0.0003    0.0000   -0.0000   -0.0000   -0.0000    0.0000    0.0000   -0.0000
       42 FE2    4f3-      -0.0000    0.0000   -0.0000   -0.0000   -0.0000    0.0000    0.0000   -0.0000    0.0000    0.0000
       43 FE2    4f2-      -0.0000   -0.0000    0.0001    0.0000   -0.0000    0.0000    0.0000    0.0000   -0.0000    0.0000
       44 FE2    4f1-       0.0000    0.0000   -0.0000    0.0000    0.0001    0.0000    0.0001   -0.0000   -0.0000    0.0000
       45 FE2    4f0        0.0000    0.0000   -0.0000    0.0000   -0.0000    0.0002    0.0000    0.0000    0.0001   -0.0000
       46 FE2    4f1+       0.0000    0.0000   -0.0000    0.0001   -0.0000   -0.0000    0.0000    0.0001   -0.0000   -0.0002
       47 FE2    4f2+       0.0000    0.0001    0.0000   -0.0000   -0.0000   -0.0000   -0.0000    0.0000   -0.0000   -0.0000
       48 FE2    4f3+      -0.0000   -0.0000   -0.0000    0.0000   -0.0000    0.0000   -0.0000   -0.0000   -0.0000    0.0000
 
          Orbital           21        22        23        24    
          Energy           -0.3948   -0.3879   -0.2862   -0.2168
          Occ. No.          0.0000    0.0000    0.0000    0.0000
 
        1 O1     1s         0.0000   -0.0051    0.0000   -0.0111
        2 O1     2s         0.0000   -0.0703    0.0186   -0.1130
        3 O1     3s         0.0000   -0.0067   -0.0157   -0.0313
        4 O1     2px       -0.0002   -0.0000    0.0000    0.0000
        5 O1     3px       -0.0000   -0.0000    0.0000    0.0000
        6 O1     2py       -0.0235   -0.0000    0.0000    0.0000
        7 O1     3py       -0.0029   -0.0000    0.0000    0.0000
        8 O1     2pz        0.0000   -0.1933    0.9354    0.2518
        9 O1     3pz        0.0000   -0.0423    0.2119    0.0763
       10 O1     3d2-       0.0000   -0.0000    0.0000    0.0000
       11 O1     3d1-      -0.0007    0.0000   -0.0000   -0.0000
       12 O1     3d0       -0.0000    0.0037   -0.0067   -0.0022
       13 O1     3d1+      -0.0000    0.0000   -0.0000   -0.0000
       14 O1     3d2+      -0.0000   -0.0000    0.0000   -0.0000
       15 FE2    1s         0.0000   -0.0000    0.0002    0.0001
       16 FE2    2s         0.0000   -0.0003    0.0015    0.0003
       17 FE2    3s         0.0000   -0.0016    0.0078    0.0020
       18 FE2    4s         0.0000   -0.0282    0.0521    0.2622
       19 FE2    5s        -0.0000    0.0060   -0.1800    0.9717
       20 FE2    2px        0.0000    0.0000   -0.0000   -0.0000
       21 FE2    3px        0.0001    0.0000   -0.0000   -0.0000
       22 FE2    4px        0.0076    0.0000   -0.0000   -0.0000
       23 FE2    5px        0.0005    0.0000   -0.0000   -0.0000
       24 FE2    2py        0.0003    0.0000   -0.0000   -0.0000
       25 FE2    3py        0.0087    0.0000   -0.0000   -0.0000
       26 FE2    4py        0.9979    0.0000   -0.0000   -0.0000
       27 FE2    5py        0.0711    0.0000   -0.0000   -0.0000
       28 FE2    2pz       -0.0000    0.0002    0.0003    0.0001
       29 FE2    3pz       -0.0000    0.0051    0.0069    0.0022
       30 FE2    4pz       -0.0000    0.9553    0.3186    0.0845
       31 FE2    5pz       -0.0000    0.0743    0.0207    0.0039
       32 FE2    3d2-       0.0000    0.0000   -0.0000    0.0000
       33 FE2    4d2-      -0.0000   -0.0000    0.0000   -0.0000
       34 FE2    3d1-      -0.0003    0.0000   -0.0000   -0.0000
       35 FE2    4d1-       0.0009   -0.0000    0.0000    0.0000
       36 FE2    3d0        0.0000   -0.0028    0.0083    0.0024
       37 FE2    4d0       -0.0000    0.0054   -0.0296   -0.0022
       38 FE2    3d1+      -0.0000    0.0000   -0.0000   -0.0000
       39 FE2    4d1+       0.0000   -0.0000    0.0000    0.0000
       40 FE2    3d2+       0.0000   -0.0000    0.0000    0.0000
       41 FE2    4d2+      -0.0000   -0.0000    0.0000   -0.0000
       42 FE2    4f3-       0.0000    0.0000    0.0000    0.0000
       43 FE2    4f2-       0.0000   -0.0000    0.0000    0.0000
       44 FE2    4f1-      -0.0002   -0.0000    0.0000    0.0000
       45 FE2    4f0       -0.0000    0.0002   -0.0008   -0.0004
       46 FE2    4f1+      -0.0000   -0.0000    0.0000    0.0000
       47 FE2    4f2+      -0.0000    0.0000    0.0000    0.0000
       48 FE2    4f3+       0.0000   -0.0000    0.0000   -0.0000
--
 
 
  Input file to MOLDEN was generated!
 
 
++    Static properties:
      ------------------
 
 
      LoProp Charges per center
 

                   O1       FE2   
      Nuclear      8.0000  26.0000
      Electronic  -7.9993 -24.0007
 
      Total        0.0007   1.9993
--
 
 
      All orbitals with orbital energies smaller than  E(LUMO)+0.5 are printed
 
++    Molecular orbitals:
      -------------------
 
      Title: UHF orbitals (beta)

      Molecular orbitals for symmetry species 1: a  
 
          Orbital            1         2         3         4         5         6         7         8         9        10    
          Energy         -264.3249  -33.0207  -28.0920  -28.0920  -28.0916  -20.9836   -4.7478   -3.2608   -3.2095   -3.2095
          Occ. No.          1.0000    1.0000    1.0000    1.0000    1.0000    1.0000    1.0000    1.0000    1.0000    1.0000
 
        1 O1     1s        -0.0000    0.0000    0.0000    0.0000    0.0000    1.0000    0.0000    0.0000    0.0000    0.0000
        2 O1     2s        -0.0000    0.0000   -0.0000    0.0000    0.0000   -0.0003    0.0001    0.0003   -0.0000    0.0000
        3 O1     3s        -0.0000    0.0000   -0.0000    0.0000    0.0001   -0.0006    0.0002    0.0004   -0.0000   -0.0000
        4 O1     2px        0.0000   -0.0000    0.0000    0.0000   -0.0000    0.0000   -0.0000    0.0000    0.0000    0.0001
        5 O1     3px       -0.0000   -0.0000    0.0000    0.0000    0.0000   -0.0000    0.0000   -0.0000    0.0000    0.0003
        6 O1     2py       -0.0000    0.0000    0.0000   -0.0000    0.0000    0.0000   -0.0000   -0.0000    0.0001   -0.0000
        7 O1     3py       -0.0000    0.0000    0.0000   -0.0000    0.0000   -0.0000    0.0000   -0.0000    0.0003   -0.0000
        8 O1     2pz       -0.0000    0.0000   -0.0000    0.0000   -0.0000    0.0000   -0.0000   -0.0001    0.0000   -0.0000
        9 O1     3pz       -0.0000    0.0000   -0.0000   -0.0000   -0.0001   -0.0001   -0.0000   -0.0002    0.0000    0.0000
       10 O1     3d2-      -0.0000   -0.0000   -0.0000   -0.0000    0.0000   -0.0000   -0.0000   -0.0000   -0.0000   -0.0000
       11 O1     3d1-       0.0000   -0.0000   -0.0000    0.0000   -0.0000    0.0000   -0.0000    0.0000   -0.0000    0.0000
       12 O1     3d0        0.0000   -0.0000   -0.0000   -0.0000    0.0000   -0.0007   -0.0000    0.0000   -0.0000    0.0000
       13 O1     3d1+       0.0000    0.0000   -0.0000   -0.0000    0.0000    0.0000    0.0000    0.0000   -0.0000   -0.0000
       14 O1     3d2+       0.0000    0.0000   -0.0000    0.0000    0.0000    0.0000   -0.0000    0.0000    0.0000   -0.0000
       15 FE2    1s         1.0000    0.0000    0.0000    0.0000   -0.0000   -0.0000   -0.0000   -0.0000    0.0000   -0.0000
       16 FE2    2s        -0.0000    1.0000    0.0000   -0.0000   -0.0000   -0.0000    0.0005   -0.0000   -0.0000    0.0000
       17 FE2    3s         0.0000   -0.0005   -0.0000   -0.0000   -0.0000   -0.0000    1.0000   -0.0002   -0.0000   -0.0000
       18 FE2    4s         0.0000    0.0001   -0.0000   -0.0000   -0.0000   -0.0000    0.0033    0.0000    0.0000   -0.0000
       19 FE2    5s         0.0000   -0.0002   -0.0000   -0.0000   -0.0000   -0.0000   -0.0023   -0.0002   -0.0000    0.0000
       20 FE2    2px       -0.0000    0.0000    0.4558    0.8901   -0.0000   -0.0000    0.0000   -0.0000    0.0003    0.0025
       21 FE2    3px        0.0000   -0.0000   -0.0012   -0.0023    0.0000   -0.0000    0.0000   -0.0000    0.1293    0.9915
       22 FE2    4px        0.0000    0.0000    0.0002    0.0003   -0.0000    0.0000   -0.0000   -0.0000   -0.0001   -0.0007
       23 FE2    5px        0.0000    0.0000   -0.0004   -0.0008    0.0000    0.0000    0.0000    0.0000   -0.0006   -0.0048
       24 FE2    2py        0.0000   -0.0000    0.8901   -0.4558    0.0000    0.0000   -0.0000    0.0000    0.0025   -0.0003
       25 FE2    3py       -0.0000    0.0000   -0.0023    0.0012   -0.0000    0.0000    0.0000    0.0000    0.9915   -0.1293
       26 FE2    4py       -0.0000   -0.0000    0.0003   -0.0002    0.0000    0.0000    0.0000    0.0000   -0.0007    0.0001
       27 FE2    5py       -0.0000    0.0000   -0.0008    0.0004   -0.0000    0.0000   -0.0000   -0.0000   -0.0048    0.0006
       28 FE2    2pz        0.0000    0.0000   -0.0000    0.0000    1.0000   -0.0000   -0.0000    0.0015   -0.0000    0.0000
       29 FE2    3pz       -0.0000    0.0000    0.0000   -0.0000   -0.0016   -0.0000    0.0002    0.9998   -0.0000    0.0000
       30 FE2    4pz       -0.0000   -0.0000   -0.0000    0.0000    0.0003   -0.0000   -0.0000    0.0010    0.0000   -0.0000
       31 FE2    5pz       -0.0000    0.0000    0.0000   -0.0000   -0.0008   -0.0000   -0.0000   -0.0054    0.0000   -0.0000
       32 FE2    3d2-      -0.0000    0.0000    0.0000    0.0000    0.0000   -0.0000   -0.0000    0.0000    0.0000    0.0000
       33 FE2    4d2-       0.0000   -0.0000   -0.0000   -0.0000    0.0000    0.0000   -0.0000   -0.0000   -0.0000    0.0000
       34 FE2    3d1-       0.0000    0.0000    0.0000   -0.0000    0.0000    0.0000    0.0000    0.0000    0.0001   -0.0000
       35 FE2    4d1-       0.0000   -0.0000   -0.0000    0.0000   -0.0000    0.0000   -0.0000    0.0000   -0.0001    0.0000
       36 FE2    3d0        0.0000    0.0000   -0.0000    0.0000   -0.0000   -0.0000    0.0010    0.0001   -0.0000    0.0000
       37 FE2    4d0        0.0000    0.0000   -0.0000   -0.0000   -0.0000   -0.0000    0.0003    0.0000   -0.0000    0.0000
       38 FE2    3d1+      -0.0000   -0.0000    0.0000    0.0000   -0.0000    0.0000   -0.0000   -0.0000    0.0000    0.0001
       39 FE2    4d1+       0.0000    0.0000   -0.0000   -0.0000    0.0000    0.0000   -0.0000   -0.0000   -0.0000   -0.0001
       40 FE2    3d2+      -0.0000   -0.0000   -0.0000    0.0000    0.0000    0.0000   -0.0000   -0.0000   -0.0000    0.0000
       41 FE2    4d2+       0.0000    0.0000    0.0000   -0.0000   -0.0000   -0.0000    0.0000    0.0000   -0.0000   -0.0000
       42 FE2    4f3-      -0.0000    0.0000   -0.0000   -0.0000    0.0000   -0.0000    0.0000   -0.0000   -0.0000   -0.0000
       43 FE2    4f2-       0.0000    0.0000    0.0000   -0.0000    0.0000   -0.0000   -0.0000    0.0000    0.0000   -0.0000
       44 FE2    4f1-       0.0000   -0.0000   -0.0005    0.0002   -0.0000    0.0000    0.0000    0.0000   -0.0104    0.0014
       45 FE2    4f0        0.0000   -0.0000   -0.0000    0.0000    0.0011    0.0000   -0.0000    0.0164   -0.0000   -0.0000
       46 FE2    4f1+      -0.0000    0.0000   -0.0002   -0.0005    0.0000    0.0000   -0.0000   -0.0000   -0.0014   -0.0104
       47 FE2    4f2+      -0.0000   -0.0000    0.0000    0.0000    0.0000   -0.0000    0.0000    0.0000    0.0000    0.0000
       48 FE2    4f3+      -0.0000   -0.0000    0.0000   -0.0000   -0.0000   -0.0000    0.0000   -0.0000    0.0000   -0.0000
 
          Orbital           11        12        13        14        15        16        17        18        19        20    
          Energy           -1.5348   -1.1488   -0.8536   -0.8536   -0.5361   -0.4186   -0.4186   -0.3794   -0.3794   -0.3727
          Occ. No.          1.0000    1.0000    1.0000    1.0000    0.0000    0.0000    0.0000    0.0000    0.0000    0.0000
 
        1 O1     1s         0.0003   -0.0005    0.0000   -0.0000   -0.0015    0.0000    0.0000   -0.0000   -0.0000   -0.0051
        2 O1     2s         1.0002   -0.0081    0.0000    0.0000   -0.0249    0.0000    0.0000   -0.0000   -0.0000   -0.0706
        3 O1     3s        -0.0076   -0.0043   -0.0000   -0.0000   -0.0026    0.0000    0.0000    0.0000   -0.0000   -0.0038
        4 O1     2px        0.0000   -0.0000    0.0065    0.9999    0.0000   -0.0000    0.0000   -0.0130    0.0006    0.0000
        5 O1     3px       -0.0000    0.0000    0.0000    0.0004    0.0000   -0.0000   -0.0000    0.0022   -0.0001    0.0000
        6 O1     2py        0.0000   -0.0000    0.9999   -0.0065    0.0000   -0.0000   -0.0000   -0.0006   -0.0130    0.0000
        7 O1     3py       -0.0000    0.0000    0.0004   -0.0000    0.0000    0.0000    0.0000    0.0001    0.0022    0.0000
        8 O1     2pz       -0.0227    0.0034    0.0000    0.0000   -0.0264   -0.0000    0.0000   -0.0000   -0.0000   -0.2448
        9 O1     3pz       -0.0079    0.0071    0.0000    0.0000   -0.0024   -0.0000    0.0000   -0.0000   -0.0000   -0.0575
       10 O1     3d2-       0.0000    0.0000    0.0000    0.0000   -0.0000   -0.0000    0.0001   -0.0000   -0.0000   -0.0000
       11 O1     3d1-       0.0000   -0.0000   -0.0057    0.0000   -0.0000   -0.0000   -0.0000   -0.0000   -0.0006   -0.0000
       12 O1     3d0       -0.0036   -0.0005   -0.0000   -0.0000    0.0009    0.0000   -0.0000    0.0000    0.0000    0.0043
       13 O1     3d1+       0.0000   -0.0000   -0.0000   -0.0057   -0.0000   -0.0000    0.0000   -0.0006    0.0000   -0.0000
       14 O1     3d2+       0.0000    0.0000   -0.0000    0.0000    0.0000    0.0001    0.0000   -0.0000    0.0000   -0.0000
       15 FE2    1s        -0.0000    0.0000    0.0000    0.0000   -0.0000    0.0000    0.0000   -0.0000   -0.0000   -0.0001
       16 FE2    2s        -0.0001   -0.0000    0.0000    0.0000   -0.0002   -0.0000   -0.0000   -0.0000   -0.0000   -0.0004
       17 FE2    3s        -0.0004   -0.0008    0.0000    0.0000   -0.0038    0.0000    0.0000   -0.0000   -0.0000   -0.0019
       18 FE2    4s        -0.0020    0.0030   -0.0000   -0.0000    0.9829   -0.0000   -0.0000   -0.0000   -0.0000   -0.0394
       19 FE2    5s        -0.0018    0.0022    0.0000    0.0000   -0.1751    0.0000   -0.0000    0.0000    0.0000    0.0048
       20 FE2    2px        0.0000   -0.0000   -0.0000   -0.0000    0.0000    0.0000   -0.0000   -0.0000    0.0000   -0.0000
       21 FE2    3px        0.0000   -0.0000   -0.0000   -0.0003    0.0000    0.0000   -0.0000   -0.0001    0.0000    0.0000
       22 FE2    4px       -0.0000   -0.0000    0.0000    0.0014    0.0000   -0.0000    0.0000    0.0372   -0.0017    0.0000
       23 FE2    5px       -0.0000    0.0000   -0.0000   -0.0001    0.0000   -0.0000    0.0000    0.0034   -0.0002    0.0000
       24 FE2    2py        0.0000    0.0000   -0.0000    0.0000   -0.0000    0.0000    0.0000   -0.0000   -0.0000   -0.0000
       25 FE2    3py        0.0000    0.0000   -0.0003    0.0000   -0.0000    0.0000    0.0000   -0.0000   -0.0001    0.0000
       26 FE2    4py       -0.0000   -0.0000    0.0014   -0.0000    0.0000   -0.0000   -0.0000    0.0017    0.0372    0.0000
       27 FE2    5py       -0.0000    0.0000   -0.0001    0.0000    0.0000   -0.0000   -0.0000    0.0002    0.0034    0.0000
       28 FE2    2pz       -0.0000    0.0000    0.0000    0.0000   -0.0000   -0.0000   -0.0000   -0.0000   -0.0000   -0.0003
       29 FE2    3pz       -0.0004    0.0000    0.0000    0.0000   -0.0002    0.0000    0.0000   -0.0000   -0.0000   -0.0019
       30 FE2    4pz       -0.0021    0.0050   -0.0000   -0.0000    0.0114    0.0000   -0.0000    0.0000    0.0000    0.9336
       31 FE2    5pz       -0.0008    0.0007   -0.0000   -0.0000    0.0011    0.0000   -0.0000    0.0000    0.0000    0.0878
       32 FE2    3d2-       0.0000    0.0000   -0.0000   -0.0000    0.0000   -0.1831    0.9601   -0.0000   -0.0000    0.0000
       33 FE2    4d2-      -0.0000   -0.0000   -0.0000   -0.0000    0.0000   -0.0396    0.2075   -0.0000   -0.0000    0.0000
       34 FE2    3d1-      -0.0000    0.0000    0.0022   -0.0000    0.0000   -0.0000    0.0000    0.0434    0.9713   -0.0000
       35 FE2    4d1-      -0.0000    0.0000    0.0012   -0.0000    0.0000   -0.0000    0.0000    0.0103    0.2305   -0.0000
       36 FE2    3d0        0.0007    1.0003    0.0000    0.0000   -0.0009   -0.0000   -0.0000    0.0000   -0.0000   -0.0053
       37 FE2    4d0       -0.0006   -0.0016   -0.0000   -0.0000   -0.0057   -0.0000   -0.0000    0.0000    0.0000    0.0055
       38 FE2    3d1+      -0.0000   -0.0000    0.0000    0.0022    0.0000    0.0000    0.0000    0.9713   -0.0434   -0.0000
       39 FE2    4d1+      -0.0000    0.0000    0.0000    0.0012    0.0000    0.0000    0.0000    0.2305   -0.0103   -0.0000
       40 FE2    3d2+      -0.0000    0.0000    0.0000   -0.0000    0.0000    0.9601    0.1831   -0.0000    0.0000   -0.0000
       41 FE2    4d2+       0.0000    0.0000    0.0000   -0.0000    0.0000    0.2075    0.0396   -0.0000    0.0000   -0.0000
       42 FE2    4f3-      -0.0000    0.0000    0.0000   -0.0000    0.0000    0.0000    0.0000   -0.0000   -0.0000   -0.0000
       43 FE2    4f2-      -0.0000    0.0000   -0.0000   -0.0000   -0.0000   -0.0000    0.0001    0.0000   -0.0000    0.0000
       44 FE2    4f1-      -0.0000    0.0000    0.0001   -0.0000    0.0000    0.0000    0.0000    0.0000    0.0001   -0.0000
       45 FE2    4f0        0.0000    0.0002   -0.0000   -0.0000    0.0001    0.0000   -0.0000    0.0000    0.0000    0.0011
       46 FE2    4f1+      -0.0000   -0.0000    0.0000    0.0001    0.0000    0.0000   -0.0000    0.0001   -0.0000   -0.0000
       47 FE2    4f2+       0.0000   -0.0000    0.0000   -0.0000    0.0000    0.0001    0.0000   -0.0000   -0.0000    0.0000
       48 FE2    4f3+      -0.0000    0.0000   -0.0000   -0.0000   -0.0000    0.0000   -0.0000    0.0000   -0.0000   -0.0000
 
          Orbital           21        22        23        24    
          Energy           -0.3700   -0.3700   -0.2833   -0.2052
          Occ. No.          0.0000    0.0000    0.0000    0.0000
 
        1 O1     1s         0.0000    0.0000   -0.0007   -0.0111
        2 O1     2s         0.0000    0.0000    0.0095   -0.1129
        3 O1     3s         0.0000    0.0000   -0.0168   -0.0294
        4 O1     2px       -0.0232   -0.0009   -0.0000   -0.0000
        5 O1     3px       -0.0008   -0.0000   -0.0000   -0.0000
        6 O1     2py        0.0009   -0.0232   -0.0000   -0.0000
        7 O1     3py        0.0000   -0.0008   -0.0000   -0.0000
        8 O1     2pz        0.0000    0.0000    0.9331    0.2151
        9 O1     3pz        0.0000    0.0000    0.2105    0.0680
       10 O1     3d2-      -0.0000   -0.0000    0.0000    0.0000
       11 O1     3d1-       0.0000   -0.0008    0.0000   -0.0000
       12 O1     3d0       -0.0000   -0.0000   -0.0064   -0.0021
       13 O1     3d1+      -0.0008   -0.0000    0.0000   -0.0000
       14 O1     3d2+      -0.0000    0.0000    0.0000   -0.0000
       15 FE2    1s         0.0000    0.0000    0.0002    0.0001
       16 FE2    2s         0.0000    0.0000    0.0014    0.0006
       17 FE2    3s         0.0000    0.0000    0.0070    0.0038
       18 FE2    4s         0.0000    0.0000    0.0787    0.2071
       19 FE2    5s         0.0000    0.0000   -0.1472    0.9885
       20 FE2    2px       -0.0003   -0.0000    0.0000    0.0000
       21 FE2    3px        0.0011    0.0000    0.0000    0.0000
       22 FE2    4px        0.9946    0.0368    0.0000    0.0000
       23 FE2    5px        0.0933    0.0035    0.0000    0.0000
       24 FE2    2py        0.0000   -0.0003    0.0000    0.0000
       25 FE2    3py       -0.0000    0.0011    0.0000    0.0000
       26 FE2    4py       -0.0368    0.9946    0.0000    0.0000
       27 FE2    5py       -0.0035    0.0933    0.0000    0.0000
       28 FE2    2pz        0.0000    0.0000    0.0001    0.0000
       29 FE2    3pz        0.0000    0.0000    0.0049    0.0016
       30 FE2    4pz       -0.0000   -0.0000    0.3724    0.0810
       31 FE2    5pz       -0.0000   -0.0000    0.0309    0.0052
       32 FE2    3d2-      -0.0000    0.0000   -0.0000    0.0000
       33 FE2    4d2-      -0.0000    0.0000   -0.0000    0.0000
       34 FE2    3d1-       0.0013   -0.0365    0.0000    0.0000
       35 FE2    4d1-       0.0003   -0.0081    0.0000   -0.0000
       36 FE2    3d0        0.0000    0.0000    0.0127    0.0040
       37 FE2    4d0       -0.0000   -0.0000   -0.0250   -0.0067
       38 FE2    3d1+      -0.0365   -0.0013    0.0000    0.0000
       39 FE2    4d1+      -0.0081   -0.0003    0.0000   -0.0000
       40 FE2    3d2+       0.0000    0.0000    0.0000    0.0000
       41 FE2    4d2+       0.0000    0.0000    0.0000    0.0000
       42 FE2    4f3-       0.0000   -0.0000    0.0000    0.0000
       43 FE2    4f2-       0.0000   -0.0000    0.0000    0.0000
       44 FE2    4f1-       0.0000   -0.0006   -0.0000   -0.0000
       45 FE2    4f0       -0.0000   -0.0000   -0.0005   -0.0003
       46 FE2    4f1+      -0.0006   -0.0000   -0.0000   -0.0000
       47 FE2    4f2+      -0.0000   -0.0000    0.0000    0.0000
       48 FE2    4f3+       0.0000    0.0000    0.0000    0.0000
--
 
 
++    Molecular charges:
      ------------------
 
      Mulliken charges per centre and basis function type
      ---------------------------------------------------
 
                            O1                      FE2   
                     alpha        beta       alpha        beta
      1s           1.0000      1.0000      1.0000      1.0000
      2s           0.9999      0.9999      1.0000      1.0000
      2px          0.9999      0.9999      1.0000      1.0000
      2pz          0.0005      0.0005      1.0000      1.0000
      2py          0.9999      0.9999      1.0000      1.0000
      3s           0.0000      0.0000      1.0000      1.0000
      3px         -0.0000      0.0000      0.9999      0.9999
      3pz         -0.0001     -0.0001      0.9998      0.9997
      3py         -0.0000      0.0000      0.9999      0.9999
      4s           0.0000      0.0000     -0.0001     -0.0001
      3d2+        -0.0000      0.0000      0.9942      0.0000
      3d1+         0.0000      0.0000      0.9952      0.0000
      3d0          0.0000      0.0000      0.9973      1.0003
      3d1-         0.0000      0.0000      0.9952      0.0000
      3d2-        -0.0000      0.0000      0.9942      0.0000
      4px          0.0000      0.0000      0.0001      0.0000
      4pz          0.0000      0.0000     -0.0001     -0.0001
      4py          0.0000      0.0000      0.0001      0.0000
      5s           0.0000      0.0000     -0.0002     -0.0002
      4d2+         0.0000      0.0000      0.0058      0.0000
      4d1+         0.0000      0.0000      0.0048      0.0000
      4d0          0.0000      0.0000      0.0029     -0.0000
      4d1-         0.0000      0.0000      0.0048      0.0000
      4d2-         0.0000      0.0000      0.0058      0.0000
      5px          0.0000      0.0000      0.0000      0.0000
      5pz          0.0000      0.0000     -0.0001     -0.0000
      5py          0.0000      0.0000      0.0000      0.0000
      4f3+         0.0000      0.0000      0.0000      0.0000
      4f2+         0.0000      0.0000      0.0000      0.0000
      4f1+         0.0000      0.0000      0.0000      0.0001
      4f0          0.0000      0.0000      0.0001      0.0003
      4f1-         0.0000      0.0000      0.0000      0.0001
      4f2-         0.0000      0.0000      0.0000      0.0000
      4f3-         0.0000      0.0000      0.0000      0.0000
      Total        4.0002      4.0001     13.9998      9.9999
      Total              8.0003                 23.9997
 
      Charge           -0.0003                  2.0003
 
      Total electronic charge=   32.000000
 
      Total            charge=    2.000000
--
 
 
  Input file to MOLDEN was generated!
 
 
++    Static properties:
      ------------------
 
 
      LoProp Charges per center
 

                   O1       FE2   
      Nuclear      8.0000  26.0000
      Electronic  -7.9993 -24.0007
 
      Total        0.0007   1.9993
--
 
 
++    Natural Bond Order analysis
      ---------------------------
      Based on LoProp computed density
      -------------------------------------------------------------------------------------
      Atom A       Atom B       Bond Order
      -------------------------------------------------------------------------------------
      NBO located     27.998 core electrons.
      The remaining    4.002 electrons are to be considered as diffuse
--
 
 
++    Molecular orbitals:
      -------------------
 
      Title: Natural orbitals

      Molecular orbitals for symmetry species 1: a  
 
          Orbital            1         2         3         4         5         6         7         8         9        10    
          Energy         -264.3262  -32.5162  -20.9836   -1.5369   -1.3962   -1.0489  -27.1556  -27.5018  -28.0346   -5.4712
          Occ. No.          2.0000    2.0000    2.0000    2.0000    2.0000    2.0000    2.0000    2.0000    2.0000    2.0000
 
        1 O1     1s        -0.0000    0.0000    1.0000    0.0003   -0.0000   -0.0000   -0.0000    0.0000    0.0000   -0.0000
        2 O1     2s        -0.0000    0.0012   -0.0003    1.0001   -0.0000   -0.0000   -0.0000    0.0000    0.0082   -0.0109
        3 O1     3s        -0.0000   -0.0000   -0.0006   -0.0076    0.0000    0.0000    0.0000   -0.0000   -0.0000   -0.0002
        4 O1     2px        0.0000   -0.0000   -0.0000    0.0000    0.6196   -0.7766    0.0902    0.0674   -0.0000   -0.0000
        5 O1     3px        0.0000   -0.0000   -0.0000    0.0000    0.0003   -0.0003    0.0000   -0.0000   -0.0000   -0.0000
        6 O1     2py        0.0000   -0.0000    0.0000    0.0000    0.7715    0.6238    0.1116   -0.0544   -0.0000   -0.0000
        7 O1     3py        0.0000   -0.0000    0.0000    0.0000    0.0003    0.0003    0.0000    0.0000   -0.0000   -0.0000
        8 O1     2pz       -0.0000   -0.0000    0.0000   -0.0227    0.0000    0.0000    0.0000   -0.0000   -0.0002    0.0005
        9 O1     3pz       -0.0000   -0.0000   -0.0001   -0.0079    0.0000    0.0000    0.0000   -0.0000   -0.0001    0.0007
       10 O1     3d2-      -0.0000   -0.0000   -0.0000    0.0000   -0.0000    0.0000   -0.0000   -0.0000   -0.0000   -0.0000
       11 O1     3d1-      -0.0000    0.0000   -0.0000   -0.0000   -0.0044   -0.0036   -0.0006    0.0003    0.0000    0.0000
       12 O1     3d0        0.0000   -0.0000   -0.0007   -0.0036    0.0000    0.0000    0.0000   -0.0000   -0.0000   -0.0000
       13 O1     3d1+      -0.0000    0.0000    0.0000   -0.0000   -0.0036    0.0045   -0.0005   -0.0004    0.0000    0.0000
       14 O1     3d2+       0.0000    0.0000    0.0000    0.0000    0.0000    0.0000    0.0000   -0.0000   -0.0000   -0.0000
       15 FE2    1s         1.0000   -0.0000   -0.0000   -0.0000   -0.0000   -0.0000   -0.0000    0.0000   -0.0000   -0.0001
       16 FE2    2s         0.0000    0.9900   -0.0000    0.0002    0.0000    0.0000    0.0000   -0.0000   -0.0022    0.1406
       17 FE2    3s         0.0001   -0.1407   -0.0000    0.0100    0.0000    0.0000    0.0000   -0.0000    0.0051    0.9877
       18 FE2    4s         0.0000   -0.0003   -0.0000   -0.0020    0.0000    0.0000    0.0000   -0.0000   -0.0000    0.0020
       19 FE2    5s         0.0000    0.0002   -0.0000   -0.0019    0.0000    0.0000    0.0000   -0.0000   -0.0000   -0.0006
       20 FE2    2px       -0.0000    0.0000   -0.0000   -0.0000   -0.0882    0.0658    0.6163    0.7677    0.0000   -0.0000
       21 FE2    3px        0.0000   -0.0000    0.0000    0.0000    0.0192   -0.0179   -0.0840   -0.1052   -0.0000   -0.0000
       22 FE2    4px        0.0000   -0.0000   -0.0000    0.0000    0.0009   -0.0011    0.0005    0.0006   -0.0000   -0.0000
       23 FE2    5px       -0.0000    0.0000    0.0000   -0.0000   -0.0001    0.0001    0.0001    0.0001    0.0000    0.0000
       24 FE2    2py       -0.0000    0.0000    0.0000   -0.0000   -0.1096   -0.0527    0.7627   -0.6203   -0.0000   -0.0000
       25 FE2    3py        0.0000   -0.0000    0.0000    0.0000    0.0238    0.0143   -0.1039    0.0850    0.0000   -0.0000
       26 FE2    4py        0.0000   -0.0000    0.0000    0.0000    0.0011    0.0009    0.0007   -0.0005   -0.0000   -0.0000
       27 FE2    5py       -0.0000    0.0000   -0.0000   -0.0000   -0.0001   -0.0001    0.0001   -0.0001    0.0000    0.0000
       28 FE2    2pz       -0.0000   -0.0029    0.0000    0.0082   -0.0000   -0.0000   -0.0000    0.0000   -0.9978    0.0047
       29 FE2    3pz        0.0000    0.0001   -0.0000   -0.0008    0.0000    0.0000    0.0000   -0.0000    0.0650   -0.0002
       30 FE2    4pz        0.0000   -0.0000   -0.0000   -0.0021    0.0000    0.0000    0.0000   -0.0000   -0.0002    0.0004
       31 FE2    5pz       -0.0000    0.0000   -0.0000   -0.0008    0.0000    0.0000    0.0000   -0.0000   -0.0001    0.0001
       32 FE2    3d2-      -0.0000   -0.0000   -0.0000    0.0000   -0.0000    0.0000   -0.0000   -0.0000    0.0000    0.0000
       33 FE2    4d2-       0.0000    0.0000    0.0000   -0.0000    0.0000   -0.0000    0.0000    0.0000   -0.0000   -0.0000
       34 FE2    3d1-       0.0000   -0.0000    0.0000    0.0000    0.0017    0.0014    0.0002   -0.0001   -0.0000   -0.0000
       35 FE2    4d1-       0.0000   -0.0000    0.0000    0.0000    0.0008    0.0006    0.0001   -0.0001   -0.0000   -0.0000
       36 FE2    3d0        0.0000   -0.0035   -0.0000    0.0003    0.0000    0.0000    0.0000   -0.0000    0.0003    0.0670
       37 FE2    4d0        0.0000    0.0000   -0.0000   -0.0006    0.0000    0.0000   -0.0000    0.0000   -0.0000    0.0004
       38 FE2    3d1+       0.0000   -0.0000   -0.0000    0.0000    0.0014   -0.0017    0.0002    0.0001   -0.0000   -0.0000
       39 FE2    4d1+       0.0000   -0.0000   -0.0000    0.0000    0.0006   -0.0008    0.0001    0.0001   -0.0000   -0.0000
       40 FE2    3d2+      -0.0000   -0.0000    0.0000   -0.0000    0.0000    0.0000    0.0000   -0.0000   -0.0000    0.0000
       41 FE2    4d2+       0.0000    0.0000   -0.0000    0.0000   -0.0000   -0.0000   -0.0000    0.0000    0.0000   -0.0000
       42 FE2    4f3-      -0.0000   -0.0000   -0.0000   -0.0000    0.0000    0.0000   -0.0000   -0.0000   -0.0000    0.0000
       43 FE2    4f2-       0.0000    0.0000   -0.0000   -0.0000   -0.0000    0.0000   -0.0000    0.0000    0.0000   -0.0000
       44 FE2    4f1-       0.0000    0.0000    0.0000   -0.0000   -0.0001   -0.0000    0.0005   -0.0004   -0.0000   -0.0000
       45 FE2    4f0        0.0000   -0.0000    0.0000    0.0000   -0.0000   -0.0000   -0.0000    0.0000   -0.0002    0.0000
       46 FE2    4f1+       0.0000    0.0000   -0.0000   -0.0000   -0.0000    0.0000    0.0004    0.0005    0.0000   -0.0000
       47 FE2    4f2+      -0.0000   -0.0000   -0.0000    0.0000   -0.0000   -0.0000   -0.0000   -0.0000   -0.0000    0.0000
       48 FE2    4f3+      -0.0000   -0.0000   -0.0000   -0.0000   -0.0000    0.0000    0.0000   -0.0000    0.0000    0.0000
 
          Orbital           11        12        13        14        15        16        17        18        19        20    
          Energy           -3.9068   -3.9077   -3.5370   -1.2422   -0.8631   -0.8631   -0.8251   -0.8251    0.3855    2.9397
          Occ. No.          1.9999    1.9999    1.9996    1.9987    1.0000    1.0000    1.0000    1.0000    0.0013    0.0004
 
        1 O1     1s         0.0000   -0.0000   -0.0000    0.0003   -0.0000    0.0000   -0.0000   -0.0000    0.0047    0.0004
        2 O1     2s        -0.0000    0.0000   -0.0002    0.0055    0.0000    0.0000    0.0000    0.0000    0.0573    0.0016
        3 O1     3s         0.0000   -0.0000   -0.0004    0.0036    0.0000    0.0000   -0.0000   -0.0000    0.0301    0.0003
        4 O1     2px       -0.0049   -0.0103    0.0000    0.0000   -0.0000   -0.0000   -0.0042    0.0001    0.0000   -0.0000
        5 O1     3px        0.0001    0.0002    0.0000    0.0000   -0.0000   -0.0000   -0.0019    0.0000   -0.0000   -0.0000
        6 O1     2py       -0.0103    0.0049    0.0000    0.0000   -0.0000   -0.0000   -0.0001   -0.0042   -0.0000    0.0000
        7 O1     3py        0.0002   -0.0001    0.0000    0.0000   -0.0000   -0.0000   -0.0000   -0.0019   -0.0000   -0.0000
        8 O1     2pz       -0.0000    0.0000    0.0002   -0.0030   -0.0000    0.0000    0.0000    0.0000   -0.0157    0.0046
        9 O1     3pz       -0.0000    0.0000    0.0004   -0.0062   -0.0000    0.0000    0.0000    0.0000   -0.0325    0.0118
       10 O1     3d2-       0.0000    0.0000    0.0000   -0.0000    0.0000   -0.0000    0.0000    0.0000   -0.0000    0.0000
       11 O1     3d1-       0.0000   -0.0000   -0.0000   -0.0000    0.0000    0.0000    0.0000    0.0002    0.0000   -0.0000
       12 O1     3d0        0.0000   -0.0000   -0.0000    0.0005    0.0000    0.0000   -0.0000   -0.0000    0.0007   -0.0024
       13 O1     3d1+       0.0000    0.0000   -0.0000   -0.0000    0.0000    0.0000    0.0002   -0.0000    0.0000   -0.0000
       14 O1     3d2+      -0.0000    0.0000   -0.0000   -0.0000   -0.0000   -0.0000    0.0000    0.0000   -0.0000   -0.0000
       15 FE2    1s         0.0000   -0.0000   -0.0000    0.0000    0.0000    0.0000    0.0000    0.0000   -0.0000    0.0000
       16 FE2    2s         0.0000   -0.0000   -0.0001    0.0059   -0.0000   -0.0000    0.0000    0.0000    0.0000    0.0001
       17 FE2    3s         0.0000   -0.0000   -0.0004    0.0666    0.0000    0.0000    0.0000    0.0000    0.0014    0.0003
       18 FE2    4s         0.0000   -0.0000    0.0000   -0.0008    0.0000    0.0000   -0.0000    0.0000   -0.0776    0.0027
       19 FE2    5s        -0.0000    0.0000    0.0002   -0.0027   -0.0000   -0.0000    0.0000   -0.0000    0.0147    0.0012
       20 FE2    2px        0.0588    0.1234   -0.0000   -0.0000   -0.0000   -0.0000   -0.0000    0.0000   -0.0000    0.0000
       21 FE2    3px        0.4267    0.8939    0.0000   -0.0000   -0.0000   -0.0000   -0.0001    0.0000   -0.0000    0.0000
       22 FE2    4px       -0.0021   -0.0044    0.0000    0.0000    0.0000    0.0000    0.0006   -0.0000   -0.0000    0.0000
       23 FE2    5px       -0.0000   -0.0001   -0.0000   -0.0000    0.0000    0.0000    0.0000   -0.0000    0.0000   -0.0000
       24 FE2    2py        0.1233   -0.0590   -0.0000   -0.0000   -0.0000   -0.0000   -0.0000   -0.0000    0.0000   -0.0000
       25 FE2    3py        0.8939   -0.4267   -0.0000   -0.0000   -0.0000   -0.0000   -0.0000   -0.0001   -0.0000    0.0000
       26 FE2    4py       -0.0044    0.0021    0.0000    0.0000    0.0000    0.0000    0.0000    0.0006   -0.0000    0.0000
       27 FE2    5py       -0.0001    0.0000   -0.0000   -0.0000    0.0000    0.0000    0.0000    0.0000    0.0000   -0.0000
       28 FE2    2pz       -0.0000    0.0000   -0.0650   -0.0004   -0.0000   -0.0000    0.0000    0.0000   -0.0000   -0.0003
       29 FE2    3pz       -0.0000    0.0000   -0.9978   -0.0069    0.0000   -0.0000    0.0000   -0.0000   -0.0006   -0.0023
       30 FE2    4pz       -0.0000    0.0000    0.0029   -0.0041    0.0000   -0.0000   -0.0000    0.0000   -0.0327    0.2648
       31 FE2    5pz        0.0000   -0.0000    0.0014   -0.0006   -0.0000   -0.0000    0.0000   -0.0000   -0.0029   -0.2737
       32 FE2    3d2-       0.0000    0.0000    0.0000   -0.0000   -0.0039    0.9971   -0.0000   -0.0000   -0.0000    0.0000
       33 FE2    4d2-       0.0000    0.0000    0.0000    0.0000    0.0003   -0.0762    0.0000    0.0000   -0.0000    0.0000
       34 FE2    3d1-       0.0001   -0.0001    0.0000    0.0000    0.0000    0.0000    0.0173    0.9975    0.0000   -0.0000
       35 FE2    4d1-      -0.0000    0.0000    0.0000    0.0000   -0.0000   -0.0000   -0.0012   -0.0691    0.0000   -0.0000
       36 FE2    3d0       -0.0000    0.0000    0.0068   -0.9976   -0.0000   -0.0000    0.0000   -0.0000   -0.0304   -0.0007
       37 FE2    4d0        0.0000   -0.0000   -0.0002    0.0273    0.0000    0.0000   -0.0000    0.0000   -1.0056   -0.0084
       38 FE2    3d1+       0.0001    0.0001    0.0000    0.0000    0.0000    0.0000    0.9975   -0.0173    0.0000   -0.0000
       39 FE2    4d1+      -0.0000   -0.0000    0.0000    0.0000   -0.0000   -0.0000   -0.0691    0.0012    0.0000   -0.0000
       40 FE2    3d2+      -0.0000    0.0000    0.0000   -0.0000    0.9971    0.0039   -0.0000   -0.0000   -0.0000   -0.0000
       41 FE2    4d2+      -0.0000    0.0000   -0.0000    0.0000   -0.0762   -0.0003    0.0000    0.0000   -0.0000   -0.0000
       42 FE2    4f3-       0.0000    0.0000    0.0000   -0.0000    0.0000   -0.0000   -0.0000   -0.0000   -0.0000   -0.0000
       43 FE2    4f2-       0.0000   -0.0000   -0.0000   -0.0000   -0.0000    0.0001   -0.0000   -0.0000    0.0000    0.0000
       44 FE2    4f1-      -0.0062    0.0030    0.0000    0.0000    0.0000    0.0000    0.0000    0.0001    0.0000    0.0000
       45 FE2    4f0       -0.0000    0.0000   -0.0031   -0.0002    0.0000   -0.0000    0.0000   -0.0000   -0.0038    0.9250
       46 FE2    4f1+      -0.0030   -0.0062    0.0000    0.0000    0.0000    0.0000    0.0001   -0.0000    0.0000   -0.0000
       47 FE2    4f2+       0.0000    0.0000   -0.0000    0.0000    0.0001    0.0000   -0.0000   -0.0000   -0.0000    0.0000
       48 FE2    4f3+      -0.0000    0.0000    0.0000   -0.0000   -0.0000   -0.0000    0.0000   -0.0000   -0.0000   -0.0000
 
          Orbital           21        22        23        24        25        26        27        28        29        30    
          Energy            1.4398    1.4398   -0.4467    1.7885    1.6751    1.6751    0.6209    0.6209   -0.2391   -0.1422
          Occ. No.          0.0001    0.0001    0.0000    0.0000    0.0000    0.0000    0.0000    0.0000    0.0000    0.0000
 
        1 O1     1s        -0.0000   -0.0000    0.0055   -0.0070    0.0000    0.0000    0.0000    0.0000    0.0109   -0.0002
        2 O1     2s         0.0000    0.0000    0.0514   -0.0786   -0.0000   -0.0000    0.0000    0.0000    0.1209   -0.0233
        3 O1     3s        -0.0000   -0.0000    0.0883   -0.1226    0.0000    0.0000   -0.0000   -0.0000    0.2737    0.3440
        4 O1     2px       -0.0022    0.0017    0.0000    0.0000   -0.0228    0.0017   -0.0155    0.0008    0.0000    0.0000
        5 O1     3px       -0.0076    0.0059   -0.0000   -0.0000   -0.0860    0.0066    0.0266   -0.0014   -0.0000   -0.0000
        6 O1     2py       -0.0017   -0.0022    0.0000    0.0000   -0.0017   -0.0228   -0.0008   -0.0155    0.0000   -0.0000
        7 O1     3py       -0.0059   -0.0076   -0.0000   -0.0000   -0.0066   -0.0860    0.0014    0.0266   -0.0000   -0.0000
        8 O1     2pz        0.0000    0.0000   -0.0361    0.0544   -0.0000   -0.0000    0.0000    0.0000   -0.0323   -0.8469
        9 O1     3pz        0.0000    0.0000   -0.0529    0.1257   -0.0000   -0.0000    0.0000    0.0000   -0.1756   -0.2145
       10 O1     3d2-       0.0000   -0.0000   -0.0000    0.0000   -0.0000   -0.0000    0.0000    0.0000    0.0000   -0.0000
       11 O1     3d1-       0.0004    0.0006   -0.0000    0.0000    0.0010    0.0126   -0.0003   -0.0055    0.0000    0.0000
       12 O1     3d0       -0.0000   -0.0000    0.0029   -0.0115    0.0000    0.0000   -0.0000   -0.0000    0.0061    0.1557
       13 O1     3d1+       0.0006   -0.0004   -0.0000    0.0000    0.0126   -0.0010   -0.0055    0.0003    0.0000    0.0000
       14 O1     3d2+      -0.0000   -0.0000    0.0000   -0.0000   -0.0000    0.0000    0.0000   -0.0000   -0.0000    0.0000
       15 FE2    1s         0.0000    0.0000   -0.0000    0.0001   -0.0000   -0.0000    0.0000    0.0000   -0.0001   -0.0002
       16 FE2    2s         0.0000    0.0000   -0.0002    0.0007   -0.0000   -0.0000    0.0000    0.0000   -0.0010   -0.0015
       17 FE2    3s         0.0000    0.0000   -0.0033    0.0034   -0.0000   -0.0000    0.0000    0.0000   -0.0042   -0.0079
       18 FE2    4s        -0.0000   -0.0000    0.6988    0.0590   -0.0000   -0.0000    0.0000    0.0000   -0.7413   -0.0888
       19 FE2    5s         0.0000    0.0000   -0.7080    0.0328    0.0000    0.0000   -0.0000   -0.0000   -0.7498    0.0018
       20 FE2    2px        0.0001   -0.0000    0.0000   -0.0000   -0.0002    0.0000   -0.0001    0.0000    0.0000   -0.0000
       21 FE2    3px        0.0005   -0.0004    0.0000    0.0000   -0.0015    0.0001   -0.0038    0.0002    0.0000   -0.0000
       22 FE2    4px       -0.4522    0.3491    0.0000    0.0000    0.3904   -0.0299   -0.3208    0.0173    0.0000   -0.0000
       23 FE2    5px        0.5200   -0.4014    0.0000    0.0000    0.7460   -0.0572   -0.0411    0.0022    0.0000   -0.0000
       24 FE2    2py        0.0000    0.0001    0.0000   -0.0000   -0.0000   -0.0002   -0.0000   -0.0001    0.0000   -0.0000
       25 FE2    3py        0.0004    0.0005    0.0000    0.0000   -0.0001   -0.0015   -0.0002   -0.0038    0.0000   -0.0000
       26 FE2    4py       -0.3491   -0.4522    0.0000    0.0000    0.0299    0.3904   -0.0173   -0.3208    0.0000   -0.0000
       27 FE2    5py        0.4014    0.5200    0.0000    0.0000    0.0572    0.7460   -0.0022   -0.0411    0.0000   -0.0000
       28 FE2    2pz        0.0000    0.0000   -0.0000   -0.0000   -0.0000   -0.0000    0.0000    0.0000   -0.0002   -0.0002
       29 FE2    3pz        0.0000    0.0000   -0.0012    0.0025   -0.0000   -0.0000    0.0000    0.0000   -0.0036   -0.0049
       30 FE2    4pz       -0.0000   -0.0000   -0.0215   -0.0412    0.0000    0.0000   -0.0000   -0.0000   -0.1142    0.2077
       31 FE2    5pz       -0.0000   -0.0000   -0.0236    0.9731   -0.0000   -0.0000    0.0000    0.0000   -0.0236    0.0301
       32 FE2    3d2-       0.0000   -0.0000   -0.0000   -0.0000    0.0000   -0.0000   -0.0000   -0.0000   -0.0000    0.0000
       33 FE2    4d2-      -0.0000    0.0000   -0.0000   -0.0000    0.0000   -0.0000   -0.0000   -0.0000   -0.0000    0.0000
       34 FE2    3d1-       0.0003    0.0004   -0.0000   -0.0000   -0.0000   -0.0002    0.0033    0.0614   -0.0000    0.0000
       35 FE2    4d1-       0.0014    0.0019   -0.0000   -0.0000   -0.0011   -0.0149    0.0478    0.8848   -0.0000    0.0000
       36 FE2    3d0        0.0000    0.0000   -0.0036    0.0071   -0.0000   -0.0000    0.0000    0.0000   -0.0082   -0.0186
       37 FE2    4d0        0.0000    0.0000   -0.0814    0.0344   -0.0000   -0.0000    0.0000    0.0000   -0.0163   -0.0936
       38 FE2    3d1+       0.0004   -0.0003   -0.0000   -0.0000   -0.0002    0.0000    0.0614   -0.0033   -0.0000    0.0000
       39 FE2    4d1+       0.0019   -0.0014   -0.0000   -0.0000   -0.0149    0.0011    0.8848   -0.0478   -0.0000    0.0000
       40 FE2    3d2+      -0.0000   -0.0000    0.0000    0.0000   -0.0000   -0.0000   -0.0000    0.0000    0.0000   -0.0000
       41 FE2    4d2+      -0.0000   -0.0000    0.0000    0.0000   -0.0000   -0.0000   -0.0000    0.0000    0.0000   -0.0000
       42 FE2    4f3-       0.0000    0.0000   -0.0000    0.0000   -0.0000   -0.0000   -0.0000    0.0000    0.0000   -0.0000
       43 FE2    4f2-      -0.0000   -0.0000    0.0000   -0.0000   -0.0000    0.0000    0.0000   -0.0000   -0.0000   -0.0000
       44 FE2    4f1-       0.3007    0.3895    0.0000   -0.0000   -0.0415   -0.5415   -0.0173   -0.3206    0.0000   -0.0000
       45 FE2    4f0        0.0000    0.0000   -0.0041    0.3063   -0.0000   -0.0000    0.0000    0.0000    0.0183   -0.0633
       46 FE2    4f1+       0.3895   -0.3007    0.0000   -0.0000   -0.5415    0.0415   -0.3206    0.0173    0.0000   -0.0000
       47 FE2    4f2+      -0.0000    0.0000   -0.0000    0.0000   -0.0000   -0.0000    0.0000    0.0000    0.0000    0.0000
       48 FE2    4f3+       0.0000   -0.0000   -0.0000    0.0000   -0.0000    0.0000    0.0000   -0.0000    0.0000   -0.0000
 
          Orbital           31        32        33        34        35        36        37        38        39        40    
          Energy            1.0882    1.0824   -0.1466    0.5869    0.3624    0.6573    0.3564    0.3865    0.3873    1.5233
          Occ. No.          0.0000    0.0000    0.0000    0.0000    0.0000    0.0000    0.0000    0.0000    0.0000    0.0000
 
        1 O1     1s        -0.0000   -0.0000   -0.0059    0.0014    0.0000    0.0016    0.0000   -0.0000    0.0000    0.0014
        2 O1     2s        -0.0000   -0.0000   -0.0663    0.0260    0.0000    0.0167    0.0003   -0.0000    0.0000    0.0124
        3 O1     3s         0.0000   -0.0000   -0.1355    0.8436    0.0001   -0.1671   -0.0028    0.0000   -0.0021   -0.3531
        4 O1     2px        0.0301   -0.0000   -0.0000   -0.0000    0.0042   -0.0001    0.0044   -0.0000   -0.0001    0.0000
        5 O1     3px       -0.0710    0.0098   -0.0000   -0.0002    0.6716   -0.0128    0.7471    0.0000   -0.0060    0.0002
        6 O1     2py       -0.0001   -0.0300    0.0000   -0.0000    0.0051    0.0001   -0.0042    0.0000    0.0001   -0.0002
        7 O1     3py       -0.0044    0.0864   -0.0000   -0.0003    0.7455    0.0108   -0.6716   -0.0000    0.0056    0.0001
        8 O1     2pz        0.0000    0.0000    0.3621    0.4041    0.0002    0.0261    0.0004   -0.0000    0.0004    0.0674
        9 O1     3pz       -0.0000   -0.0000    0.1089   -0.3004   -0.0007   -0.9448   -0.0157    0.0000    0.0004   -0.3366
       10 O1     3d2-      -0.0000    0.0000   -0.0000   -0.0005   -0.0000    0.0005    0.0000    0.0000    0.0018    0.0002
       11 O1     3d1-      -0.0001   -0.0116   -0.0000   -0.0002    0.0075    0.0026   -0.0002    0.0000    0.0072   -0.0415
       12 O1     3d0       -0.0000    0.0000   -0.0429    0.2284    0.0000   -0.4026   -0.0068    0.0000    0.0077    0.8723
       13 O1     3d1+       0.0117   -0.0001    0.0000    0.0000   -0.0026   -0.0003   -0.0041   -0.0000   -0.0207    0.0046
       14 O1     3d2+      -0.0000   -0.0000    0.0000    0.0002   -0.0000   -0.0002   -0.0000    0.0018   -0.0000   -0.0001
       15 FE2    1s        -0.0000   -0.0000    0.0001   -0.0002   -0.0000   -0.0006   -0.0000    0.0000    0.0000   -0.0002
       16 FE2    2s        -0.0000   -0.0000    0.0007   -0.0015   -0.0000   -0.0043   -0.0001    0.0000    0.0000   -0.0014
       17 FE2    3s        -0.0000   -0.0000    0.0038   -0.0082   -0.0000   -0.0220   -0.0004    0.0000    0.0000   -0.0074
       18 FE2    4s        -0.0000   -0.0000    0.0138   -0.0010   -0.0001   -0.1378   -0.0023    0.0000   -0.0001   -0.0723
       19 FE2    5s         0.0000   -0.0000   -0.0133    0.0665    0.0000   -0.0159   -0.0003    0.0000   -0.0001   -0.0240
       20 FE2    2px       -0.0002   -0.0000    0.0000    0.0000   -0.0001    0.0000   -0.0001   -0.0000    0.0000   -0.0000
       21 FE2    3px       -0.0070   -0.0000    0.0000    0.0000   -0.0028    0.0001   -0.0030   -0.0000    0.0000    0.0000
       22 FE2    4px       -0.6448    0.0006    0.0000    0.0000   -0.0679    0.0012   -0.0710    0.0000    0.0003    0.0000
       23 FE2    5px       -0.1164    0.0001    0.0000    0.0000   -0.0115    0.0002   -0.0120    0.0000    0.0000    0.0000
       24 FE2    2py        0.0000    0.0002   -0.0000    0.0000   -0.0001   -0.0000    0.0001    0.0000   -0.0000   -0.0000
       25 FE2    3py        0.0000    0.0070   -0.0000    0.0000   -0.0032   -0.0000    0.0028    0.0000   -0.0000   -0.0000
       26 FE2    4py        0.0020    0.6432   -0.0000    0.0000   -0.0843   -0.0010    0.0676   -0.0000   -0.0005   -0.0006
[...]
 
  Total nr of CASPT2 parameters:
   Before reduction:      408969
   After  reduction:      408969
 
 The contributions to the second order correlation energy in atomic units.
-----------------------------------------------------------------------------------------------------------------------------
  IT.      VJTU        VJTI        ATVX        AIVX        VJAI        BVAT        BJAT        BJAI        TOTAL       RNORM  
-----------------------------------------------------------------------------------------------------------------------------
   1    -0.001809   -0.029075   -0.017204   -0.173105   -0.017594   -0.076114   -0.020389   -0.045677   -0.380967    0.018316
   2    -0.001810   -0.029087   -0.017768   -0.173508   -0.017661   -0.076316   -0.020728   -0.045820   -0.382699    0.005242
   3    -0.001809   -0.029089   -0.017931   -0.173644   -0.017658   -0.076309   -0.020750   -0.045834   -0.383022    0.001765
   4    -0.001809   -0.029090   -0.017917   -0.173621   -0.017651   -0.076277   -0.020716   -0.045819   -0.382899    0.000726
   5    -0.001809   -0.029090   -0.017904   -0.173607   -0.017651   -0.076279   -0.020716   -0.045818   -0.382873    0.000196
   6    -0.001809   -0.029090   -0.017903   -0.173611   -0.017652   -0.076283   -0.020719   -0.045819   -0.382886    0.000061
   7    -0.001809   -0.029090   -0.017903   -0.173613   -0.017652   -0.076284   -0.020719   -0.045820   -0.382889    0.000020
   8    -0.001809   -0.029090   -0.017904   -0.173612   -0.017652   -0.076283   -0.020719   -0.045819   -0.382887    0.000006
   9    -0.001809   -0.029090   -0.017904   -0.173612   -0.017652   -0.076283   -0.020719   -0.045819   -0.382887    0.000002
-------------------------------------------------------------------------------------------------------------------
 
  FINAL CASPT2 RESULT:
 
  Correlation energy /Case, /Symm, and sums:
 VJTU     -0.00180896 -0.00180896
 VJTIP    -0.00962831 -0.00962831
 VJTIM    -0.01946135 -0.01946135
 ATVX     -0.01790351 -0.01790351
 AIVX     -0.17361205 -0.17361205
 VJAIP    -0.01442562 -0.01442562
 VJAIM    -0.00322620 -0.00322620
 BVATP    -0.02151615 -0.02151615
 BVATM    -0.05476711 -0.05476711
 BJATP    -0.01228182 -0.01228182
 BJATM    -0.00843691 -0.00843691
 BJAIP    -0.03118440 -0.03118440
 BJAIM    -0.01463503 -0.01463503
 Summed:  -0.38288741 -0.38288741
 
      Reference energy:       -1345.4527690192
      E2 (Non-variational):      -0.3828874089
      E2 (Variational):          -0.3828874098
      Total energy:           -1345.8356564291
      Residual norm:              0.0000007232
      Reference weight:           0.93757
 
      Contributions to the CASPT2 correlation energy
      Active & Virtual Only:         -0.0941867650
      One Inactive Excited:          -0.1961397463
      Two Inactive Excited:          -0.0925608976
 
 
++ Denominators, etc.
----------------------------------------------------------------------------------------------------
 Report on small energy denominators, large coefficients, and large energy contributions.
CASE  SYMM ACTIVE-MIX  NON-ACTIVE INDICES          DENOMINATOR     RHS VALUE       COEFFICIENT     CONTRIBUTION
ATVX     1  Mu1.0001  Se1.026                      -0.08320589     -0.00000000     -0.00000000      0.00000000
ATVX     1  Mu1.0002  Se1.026                      -0.07979863      0.00000000      0.00000001      0.00000000
ATVX     1  Mu1.0003  Se1.026                      -0.07931634      0.00000000      0.00000002      0.00000000
ATVX     1  Mu1.0004  Se1.026                      -0.02260733      0.00000000      0.00000001      0.00000000
ATVX     1  Mu1.0005  Se1.026                      -0.01528173     -0.00000000      0.00000000     -0.00000000
ATVX     1  Mu1.0006  Se1.026                      -0.01527967      0.00000000     -0.00000000     -0.00000000
ATVX     1  Mu1.0007  Se1.026                       0.24184475      0.00000626     -0.00002674     -0.00000000
ATVX     1  Mu1.0008  Se1.026                       0.24228467      0.00000673     -0.00002864     -0.00000000
ATVX     1  Mu1.0009  Se1.026                       0.24509865      0.00000000     -0.00000000     -0.00000000
ATVX     1  Mu1.0010  Se1.026                       0.24542319     -0.00000001      0.00000005     -0.00000000
ATVX     1  Mu1.0011  Se1.026                       0.24614615      0.00000535     -0.00002320     -0.00000000
ATVX     1  Mu1.0012  Se1.026                       0.24681140      0.00000001     -0.00000005     -0.00000000
ATVX     1  Mu1.0013  Se1.026                       0.24707323     -0.00000502      0.00002135     -0.00000000
ATVX     1  Mu1.0014  Se1.026                       0.25071289     -0.00000000      0.00000000     -0.00000000
ATVX     1  Mu1.0015  Se1.026                       0.25071399      0.00000000     -0.00000000     -0.00000000
ATVX     1  Mu1.0016  Se1.026                       0.25690191      0.00000000     -0.00000002     -0.00000000
ATVX     1  Mu1.0017  Se1.026                       0.25701129      0.00000001     -0.00000008     -0.00000000
ATVX     1  Mu1.0018  Se1.026                       0.26357149      0.00000000     -0.00000000     -0.00000000
ATVX     1  Mu1.0019  Se1.026                       0.26405859      0.00000000     -0.00000000     -0.00000000
ATVX     1  Mu1.0020  Se1.026                       0.27117394     -0.00000001      0.00000006     -0.00000000
ATVX     1  Mu1.0021  Se1.026                       0.27118444      0.00000000     -0.00000001     -0.00000000
ATVX     1  Mu1.0022  Se1.026                       0.28142710      0.00000000     -0.00000001     -0.00000000
ATVX     1  Mu1.0023  Se1.026                       0.28194027     -0.00000000     -0.00000000      0.00000000
ATVX     1  Mu1.0024  Se1.026                       0.28404707      0.00000000     -0.00000000     -0.00000000
ATVX     1  Mu1.0025  Se1.026                       0.28455401     -0.00000000      0.00000000     -0.00000000
ATVX     1  Mu1.0026  Se1.026                       0.28562009      0.00000000      0.00000000      0.00000000
ATVX     1  Mu1.0027  Se1.026                       0.28609892     -0.00000000      0.00000000     -0.00000000
ATVX     1  Mu1.0028  Se1.026                       0.28773110     -0.00003784      0.00033176     -0.00000001
ATVX     1  Mu1.0029  Se1.026                       0.28824391     -0.00003727      0.00033504     -0.00000001
ATVX     1  Mu1.0030  Se1.026                       0.29236328     -0.00000000      0.00000000     -0.00000000
ATVX     1  Mu1.0031  Se1.026                       0.29277710     -0.00000000      0.00000000     -0.00000000
ATVX     1  Mu1.0032  Se1.026                       0.29340077     -0.00103934      0.00353254     -0.00000367
ATVX     1  Mu1.0001  Se1.027                       0.04474412     -0.00000000     -0.00000000      0.00000000
ATVX     1  Mu1.0002  Se1.027                       0.04815139      0.00000000     -0.00000000     -0.00000000
ATVX     1  Mu1.0003  Se1.027                       0.04863367     -0.00000191      0.00020997     -0.00000000
ATVX     1  Mu1.0004  Se1.027                       0.10534269      0.00000000      0.00000000      0.00000000
ATVX     1  Mu1.0005  Se1.027                       0.11266829      0.00000003      0.00000016      0.00000000
ATVX     1  Mu1.0006  Se1.027                       0.11267035      0.00010416      0.00056545      0.00000006
ATVX     1  Mu1.0001  Se1.028                       0.04485300      0.00000000      0.00000000      0.00000000
ATVX     1  Mu1.0002  Se1.028                       0.04826027      0.00000196     -0.00021255     -0.00000000
ATVX     1  Mu1.0003  Se1.028                       0.04874255      0.00000000     -0.00000000     -0.00000000
ATVX     1  Mu1.0004  Se1.028                       0.10545157     -0.00000000      0.00000000     -0.00000000
ATVX     1  Mu1.0005  Se1.028                       0.11277717      0.00010423      0.00056467      0.00000006
ATVX     1  Mu1.0006  Se1.028                       0.11277923     -0.00000003     -0.00000016      0.00000000
ATVX     1  Mu1.0001  Se1.029                       0.12945490      0.00000000     -0.00000000     -0.00000000
ATVX     1  Mu1.0002  Se1.029                       0.13286217     -0.00000000      0.00000001     -0.00000000
ATVX     1  Mu1.0003  Se1.029                       0.13334445     -0.00000000      0.00000001     -0.00000000
ATVX     1  Mu1.0004  Se1.029                       0.19005347      0.00000000     -0.00000000     -0.00000000
ATVX     1  Mu1.0005  Se1.029                       0.19737907      0.00000000     -0.00000000     -0.00000000
ATVX     1  Mu1.0006  Se1.029                       0.19738113     -0.00000000      0.00000000     -0.00000000
ATVX     1  Mu1.0001  Se1.030                       0.24313292     -0.00000000      0.00000000     -0.00000000
ATVX     1  Mu1.0002  Se1.030                       0.24654018      0.00000000     -0.00000000     -0.00000000
ATVX     1  Mu1.0003  Se1.030                       0.24702247      0.00000000      0.00000000      0.00000000
ATVX     1  Mu1.0214  Se1.031                       2.13172781      0.07364934     -0.03573357     -0.00263175
ATVX     1  Mu1.0215  Se1.032                       2.13173766      0.07364585     -0.03573172     -0.00263149
AIVX     1  Mu1.0098  In1.011 Se1.033               3.21934762     -0.09690691      0.03020313     -0.00292689
AIVX     1  Mu1.0099  In1.011 Se1.033               3.22580787     -0.07569146      0.02584962     -0.00195660
AIVX     1  Mu1.0169  In1.009 Se1.034               6.56923590      0.17875511     -0.02721057     -0.00486403
AIVX     1  Mu1.0169  In1.010 Se1.035               6.56941837      0.17888663     -0.02722993     -0.00487107
AIVX     1  Mu1.0027  In1.011 Se1.037               3.49849018      0.11076393     -0.03058943     -0.00338821
AIVX     1  Mu1.0028  In1.011 Se1.037               3.49849079      0.10347753     -0.02857715     -0.00295709
AIVX     1  Mu1.0059  In1.011 Se1.038               3.74842650      0.15157724     -0.03913809     -0.00593244
AIVX     1  Mu1.0029  In1.011 Se1.041               3.55660144      0.10223291     -0.02772913     -0.00283483
BVATM    1  Mu1.0001  Se1.032 Se1.031               1.99238007      0.07066729     -0.03572858     -0.00252484
BVATM    1  Mu1.0001  Se1.038 Se1.037               5.01360841     -0.12978799      0.02588722     -0.00335985
BJATP    1  Mu1.0002  In1.011 Se1.033 Se1.031       3.02582224     -0.08193440      0.02688348     -0.00220268
BJATP    1  Mu1.0001  In1.011 Se1.033 Se1.032       3.02582814      0.08193450     -0.02688348     -0.00220268
BJATM    1  Mu1.0002  In1.011 Se1.033 Se1.031       3.02582224      0.07617118     -0.02690196     -0.00204915
BJATM    1  Mu1.0001  In1.011 Se1.033 Se1.032       3.02582814     -0.07617124      0.02690194     -0.00204915
BJAIP    1  Se1.033 In1.011 Se1.033 In1.011         4.05923068      0.11518125     -0.03026923     -0.00348645
--
 
   (Skipping property calculation,
    use PROP keyword to activate)
--
 
  Total CASPT2 energies:
::    CASPT2 Root  1     Total energy:  -1345.83565643
 
  A NEW JOBIPH FILE NAMED 'JOBMIX' IS PREPARED.
********************************************************************************
--- Stop Module: caspt2 at Tue Dec 17 22:58:04 2024 /rc=_RC_ALL_IS_WELL_ ---
*** files: xmldump
    saved to directory /home/grierjones/DDCASPT2/iron_oxo_DDCASPT2/cluster/3.89
--- Module caspt2 spent 5 minutes 31 seconds ---

>>> EXPORT i = B

>>> EXPORT j = P

>>> IF (-FILE GMJ_e2_${i}_${j}.csv)

>>> COPY /tmp/3.89/GMJ_RHS_B_P.csv /home/grierjones/DDCASPT2/iron_oxo_DDCASPT2/cluster/3.89/GMJ_RHS_B_P.csv

>>> COPY /tmp/3.89/GMJ_IVECW_B_P.csv /home/grierjones/DDCASPT2/iron_oxo_DDCASPT2/cluster/3.89/GMJ_IVECW_B_P.csv

>>> COPY /tmp/3.89/GMJ_IVECX_B_P.csv /home/grierjones/DDCASPT2/iron_oxo_DDCASPT2/cluster/3.89/GMJ_IVECX_B_P.csv

>>> COPY /tmp/3.89/GMJ_IVECC2_B_P.csv /home/grierjones/DDCASPT2/iron_oxo_DDCASPT2/cluster/3.89/GMJ_IVECC2_B_P.csv

>>> COPY /tmp/3.89/GMJ_e2_B_P.csv /home/grierjones/DDCASPT2/iron_oxo_DDCASPT2/cluster/3.89/GMJ_e2_B_P.csv

>>> END FOREACH

>>> EXPORT j = M

>>> IF (-FILE GMJ_e2_${i}_${j}.csv)

>>> COPY /tmp/3.89/GMJ_RHS_B_M.csv /home/grierjones/DDCASPT2/iron_oxo_DDCASPT2/cluster/3.89/GMJ_RHS_B_M.csv

>>> COPY /tmp/3.89/GMJ_IVECW_B_M.csv /home/grierjones/DDCASPT2/iron_oxo_DDCASPT2/cluster/3.89/GMJ_IVECW_B_M.csv

>>> COPY /tmp/3.89/GMJ_IVECX_B_M.csv /home/grierjones/DDCASPT2/iron_oxo_DDCASPT2/cluster/3.89/GMJ_IVECX_B_M.csv

>>> COPY /tmp/3.89/GMJ_IVECC2_B_M.csv /home/grierjones/DDCASPT2/iron_oxo_DDCASPT2/cluster/3.89/GMJ_IVECC2_B_M.csv

>>> COPY /tmp/3.89/GMJ_e2_B_M.csv /home/grierjones/DDCASPT2/iron_oxo_DDCASPT2/cluster/3.89/GMJ_e2_B_M.csv

>>> END FOREACH

>>> END FOREACH

>>> EXPORT i = E

>>> EXPORT j = P

>>> IF (-FILE GMJ_e2_${i}_${j}.csv)

>>> COPY /tmp/3.89/GMJ_RHS_E_P.csv /home/grierjones/DDCASPT2/iron_oxo_DDCASPT2/cluster/3.89/GMJ_RHS_E_P.csv

>>> COPY /tmp/3.89/GMJ_IVECW_E_P.csv /home/grierjones/DDCASPT2/iron_oxo_DDCASPT2/cluster/3.89/GMJ_IVECW_E_P.csv

>>> COPY /tmp/3.89/GMJ_IVECX_E_P.csv /home/grierjones/DDCASPT2/iron_oxo_DDCASPT2/cluster/3.89/GMJ_IVECX_E_P.csv

>>> COPY /tmp/3.89/GMJ_IVECC2_E_P.csv /home/grierjones/DDCASPT2/iron_oxo_DDCASPT2/cluster/3.89/GMJ_IVECC2_E_P.csv

>>> COPY /tmp/3.89/GMJ_e2_E_P.csv /home/grierjones/DDCASPT2/iron_oxo_DDCASPT2/cluster/3.89/GMJ_e2_E_P.csv

>>> END FOREACH

>>> EXPORT j = M

>>> IF (-FILE GMJ_e2_${i}_${j}.csv)

>>> COPY /tmp/3.89/GMJ_RHS_E_M.csv /home/grierjones/DDCASPT2/iron_oxo_DDCASPT2/cluster/3.89/GMJ_RHS_E_M.csv

>>> COPY /tmp/3.89/GMJ_IVECW_E_M.csv /home/grierjones/DDCASPT2/iron_oxo_DDCASPT2/cluster/3.89/GMJ_IVECW_E_M.csv

>>> COPY /tmp/3.89/GMJ_IVECX_E_M.csv /home/grierjones/DDCASPT2/iron_oxo_DDCASPT2/cluster/3.89/GMJ_IVECX_E_M.csv

>>> COPY /tmp/3.89/GMJ_IVECC2_E_M.csv /home/grierjones/DDCASPT2/iron_oxo_DDCASPT2/cluster/3.89/GMJ_IVECC2_E_M.csv

>>> COPY /tmp/3.89/GMJ_e2_E_M.csv /home/grierjones/DDCASPT2/iron_oxo_DDCASPT2/cluster/3.89/GMJ_e2_E_M.csv

>>> END FOREACH

>>> END FOREACH

>>> EXPORT i = F

>>> EXPORT j = P

>>> IF (-FILE GMJ_e2_${i}_${j}.csv)

>>> COPY /tmp/3.89/GMJ_RHS_F_P.csv /home/grierjones/DDCASPT2/iron_oxo_DDCASPT2/cluster/3.89/GMJ_RHS_F_P.csv

>>> COPY /tmp/3.89/GMJ_IVECW_F_P.csv /home/grierjones/DDCASPT2/iron_oxo_DDCASPT2/cluster/3.89/GMJ_IVECW_F_P.csv

>>> COPY /tmp/3.89/GMJ_IVECX_F_P.csv /home/grierjones/DDCASPT2/iron_oxo_DDCASPT2/cluster/3.89/GMJ_IVECX_F_P.csv

>>> COPY /tmp/3.89/GMJ_IVECC2_F_P.csv /home/grierjones/DDCASPT2/iron_oxo_DDCASPT2/cluster/3.89/GMJ_IVECC2_F_P.csv

>>> COPY /tmp/3.89/GMJ_e2_F_P.csv /home/grierjones/DDCASPT2/iron_oxo_DDCASPT2/cluster/3.89/GMJ_e2_F_P.csv

>>> END FOREACH

>>> EXPORT j = M

>>> IF (-FILE GMJ_e2_${i}_${j}.csv)

>>> COPY /tmp/3.89/GMJ_RHS_F_M.csv /home/grierjones/DDCASPT2/iron_oxo_DDCASPT2/cluster/3.89/GMJ_RHS_F_M.csv

>>> COPY /tmp/3.89/GMJ_IVECW_F_M.csv /home/grierjones/DDCASPT2/iron_oxo_DDCASPT2/cluster/3.89/GMJ_IVECW_F_M.csv

>>> COPY /tmp/3.89/GMJ_IVECX_F_M.csv /home/grierjones/DDCASPT2/iron_oxo_DDCASPT2/cluster/3.89/GMJ_IVECX_F_M.csv

>>> COPY /tmp/3.89/GMJ_IVECC2_F_M.csv /home/grierjones/DDCASPT2/iron_oxo_DDCASPT2/cluster/3.89/GMJ_IVECC2_F_M.csv

>>> COPY /tmp/3.89/GMJ_e2_F_M.csv /home/grierjones/DDCASPT2/iron_oxo_DDCASPT2/cluster/3.89/GMJ_e2_F_M.csv

>>> END FOREACH

>>> END FOREACH

>>> EXPORT i = G

>>> EXPORT j = P

>>> IF (-FILE GMJ_e2_${i}_${j}.csv)

>>> COPY /tmp/3.89/GMJ_RHS_G_P.csv /home/grierjones/DDCASPT2/iron_oxo_DDCASPT2/cluster/3.89/GMJ_RHS_G_P.csv

>>> COPY /tmp/3.89/GMJ_IVECW_G_P.csv /home/grierjones/DDCASPT2/iron_oxo_DDCASPT2/cluster/3.89/GMJ_IVECW_G_P.csv

>>> COPY /tmp/3.89/GMJ_IVECX_G_P.csv /home/grierjones/DDCASPT2/iron_oxo_DDCASPT2/cluster/3.89/GMJ_IVECX_G_P.csv

>>> COPY /tmp/3.89/GMJ_IVECC2_G_P.csv /home/grierjones/DDCASPT2/iron_oxo_DDCASPT2/cluster/3.89/GMJ_IVECC2_G_P.csv

>>> COPY /tmp/3.89/GMJ_e2_G_P.csv /home/grierjones/DDCASPT2/iron_oxo_DDCASPT2/cluster/3.89/GMJ_e2_G_P.csv

>>> END FOREACH

>>> EXPORT j = M

>>> IF (-FILE GMJ_e2_${i}_${j}.csv)

>>> COPY /tmp/3.89/GMJ_RHS_G_M.csv /home/grierjones/DDCASPT2/iron_oxo_DDCASPT2/cluster/3.89/GMJ_RHS_G_M.csv

>>> COPY /tmp/3.89/GMJ_IVECW_G_M.csv /home/grierjones/DDCASPT2/iron_oxo_DDCASPT2/cluster/3.89/GMJ_IVECW_G_M.csv

>>> COPY /tmp/3.89/GMJ_IVECX_G_M.csv /home/grierjones/DDCASPT2/iron_oxo_DDCASPT2/cluster/3.89/GMJ_IVECX_G_M.csv

>>> COPY /tmp/3.89/GMJ_IVECC2_G_M.csv /home/grierjones/DDCASPT2/iron_oxo_DDCASPT2/cluster/3.89/GMJ_IVECC2_G_M.csv

>>> COPY /tmp/3.89/GMJ_e2_G_M.csv /home/grierjones/DDCASPT2/iron_oxo_DDCASPT2/cluster/3.89/GMJ_e2_G_M.csv

>>> END FOREACH

>>> END FOREACH

>>> EXPORT i = H

>>> EXPORT j = P

>>> IF (-FILE GMJ_e2_${i}_${j}.csv)

>>> COPY /tmp/3.89/GMJ_RHS_H_P.csv /home/grierjones/DDCASPT2/iron_oxo_DDCASPT2/cluster/3.89/GMJ_RHS_H_P.csv

>>> COPY /tmp/3.89/GMJ_IVECW_H_P.csv /home/grierjones/DDCASPT2/iron_oxo_DDCASPT2/cluster/3.89/GMJ_IVECW_H_P.csv

>>> COPY /tmp/3.89/GMJ_IVECX_H_P.csv /home/grierjones/DDCASPT2/iron_oxo_DDCASPT2/cluster/3.89/GMJ_IVECX_H_P.csv

>>> COPY /tmp/3.89/GMJ_IVECC2_H_P.csv /home/grierjones/DDCASPT2/iron_oxo_DDCASPT2/cluster/3.89/GMJ_IVECC2_H_P.csv

>>> COPY /tmp/3.89/GMJ_e2_H_P.csv /home/grierjones/DDCASPT2/iron_oxo_DDCASPT2/cluster/3.89/GMJ_e2_H_P.csv

>>> END FOREACH

>>> EXPORT j = M

>>> IF (-FILE GMJ_e2_${i}_${j}.csv)

>>> COPY /tmp/3.89/GMJ_RHS_H_M.csv /home/grierjones/DDCASPT2/iron_oxo_DDCASPT2/cluster/3.89/GMJ_RHS_H_M.csv

>>> COPY /tmp/3.89/GMJ_IVECW_H_M.csv /home/grierjones/DDCASPT2/iron_oxo_DDCASPT2/cluster/3.89/GMJ_IVECW_H_M.csv

>>> COPY /tmp/3.89/GMJ_IVECX_H_M.csv /home/grierjones/DDCASPT2/iron_oxo_DDCASPT2/cluster/3.89/GMJ_IVECX_H_M.csv

>>> COPY /tmp/3.89/GMJ_IVECC2_H_M.csv /home/grierjones/DDCASPT2/iron_oxo_DDCASPT2/cluster/3.89/GMJ_IVECC2_H_M.csv

>>> COPY /tmp/3.89/GMJ_e2_H_M.csv /home/grierjones/DDCASPT2/iron_oxo_DDCASPT2/cluster/3.89/GMJ_e2_H_M.csv

>>> END FOREACH

>>> END FOREACH

>>> EXPORT i = A

>>> IF (-FILE GMJ_e2_$i.csv)

>>> COPY /tmp/3.89/GMJ_RHS_A.csv /home/grierjones/DDCASPT2/iron_oxo_DDCASPT2/cluster/3.89/GMJ_RHS_A.csv

>>> COPY /tmp/3.89/GMJ_IVECW_A.csv /home/grierjones/DDCASPT2/iron_oxo_DDCASPT2/cluster/3.89/GMJ_IVECW_A.csv

>>> COPY /tmp/3.89/GMJ_IVECX_A.csv /home/grierjones/DDCASPT2/iron_oxo_DDCASPT2/cluster/3.89/GMJ_IVECX_A.csv

>>> COPY /tmp/3.89/GMJ_IVECC2_A.csv /home/grierjones/DDCASPT2/iron_oxo_DDCASPT2/cluster/3.89/GMJ_IVECC2_A.csv

>>> COPY /tmp/3.89/GMJ_e2_A.csv /home/grierjones/DDCASPT2/iron_oxo_DDCASPT2/cluster/3.89/GMJ_e2_A.csv

>>> END FOREACH

>>> EXPORT i = C

>>> IF (-FILE GMJ_e2_$i.csv)

>>> COPY /tmp/3.89/GMJ_RHS_C.csv /home/grierjones/DDCASPT2/iron_oxo_DDCASPT2/cluster/3.89/GMJ_RHS_C.csv

>>> COPY /tmp/3.89/GMJ_IVECW_C.csv /home/grierjones/DDCASPT2/iron_oxo_DDCASPT2/cluster/3.89/GMJ_IVECW_C.csv

>>> COPY /tmp/3.89/GMJ_IVECX_C.csv /home/grierjones/DDCASPT2/iron_oxo_DDCASPT2/cluster/3.89/GMJ_IVECX_C.csv

>>> COPY /tmp/3.89/GMJ_IVECC2_C.csv /home/grierjones/DDCASPT2/iron_oxo_DDCASPT2/cluster/3.89/GMJ_IVECC2_C.csv

>>> COPY /tmp/3.89/GMJ_e2_C.csv /home/grierjones/DDCASPT2/iron_oxo_DDCASPT2/cluster/3.89/GMJ_e2_C.csv

>>> END FOREACH

>>> EXPORT i = D

>>> IF (-FILE GMJ_e2_$i.csv)

>>> COPY /tmp/3.89/GMJ_RHS_D.csv /home/grierjones/DDCASPT2/iron_oxo_DDCASPT2/cluster/3.89/GMJ_RHS_D.csv

>>> COPY /tmp/3.89/GMJ_IVECW_D.csv /home/grierjones/DDCASPT2/iron_oxo_DDCASPT2/cluster/3.89/GMJ_IVECW_D.csv

>>> COPY /tmp/3.89/GMJ_IVECX_D.csv /home/grierjones/DDCASPT2/iron_oxo_DDCASPT2/cluster/3.89/GMJ_IVECX_D.csv

>>> COPY /tmp/3.89/GMJ_IVECC2_D.csv /home/grierjones/DDCASPT2/iron_oxo_DDCASPT2/cluster/3.89/GMJ_IVECC2_D.csv

>>> COPY /tmp/3.89/GMJ_e2_D.csv /home/grierjones/DDCASPT2/iron_oxo_DDCASPT2/cluster/3.89/GMJ_e2_D.csv

>>> END FOREACH

.########################.
.# Non-zero return code #.
.########################.

    Timing: Wall=462.72 User=459.03 System=3.56
************************************
*** WorkDir at /tmp/3.89 cleaned ***
************************************
