[Molden Format]
[N_Atoms]
                     2
[Atoms] (AU)
B1          1      5           0.00000000      0.00000000      0.00000000
N2          2      7           0.00000000      0.00000000      4.34637009
[Charge] (Mulliken)
  0.318087067655493     
 -0.318087067655508     
[GTO] (AU)
   1
   s  14
  3.336021700E+04  1.039699991E-04
  4.972095200E+03  5.254399956E-04
  1.125641700E+03  2.509059979E-03
  3.164913600E+02  1.031887991E-02
  1.020072600E+02  3.636632969E-02
  3.629587300E+01  1.064607991E-01
  1.397141000E+01  2.403999880E-01
  5.741156000E+00  3.748581168E-01
  2.494268000E+00  3.100066974E-01
  1.114202000E+00  7.922455933E-02
  4.215490000E-01 -4.947589958E-03
  1.696330000E-01 -7.737119935E-03
  6.853500000E-02 -1.501079987E-03
  2.398700000E-02 -1.333299989E-04
   s  14
  3.336021700E+04 -2.030000008E-05
  4.972095200E+03 -1.025700004E-04
  1.125641700E+03 -4.911300020E-04
  3.164913600E+02 -2.026570008E-03
  1.020072600E+02 -7.261010030E-03
  3.629587300E+01 -2.197722009E-02
  1.397141000E+01 -5.408428022E-02
  5.741156000E+00 -1.022402604E-01
  2.494268000E+00 -1.423595206E-01
  1.114202000E+00 -4.658690019E-02
  4.215490000E-01  3.799402916E-01
  1.696330000E-01  5.890463624E-01
  6.853500000E-02  1.749075107E-01
  2.398700000E-02 -1.142030005E-03
   p   9
  5.500000000E+01  1.229800005E-03
  1.336610100E+01  8.827380035E-03
  4.135394000E+00  3.843340015E-02
  1.481256000E+00  1.150031805E-01
  6.021360000E-01  2.733674011E-01
  2.556360000E-01  4.061972116E-01
  1.111510000E-01  3.014967912E-01
  4.764800000E-02  7.684809030E-02
  1.667700000E-02 -8.170000032E-06
 
   2
   s  14
  7.476171500E+04  1.182599996E-04
  1.112365400E+04  5.172899983E-04
  2.512685700E+03  2.266659992E-03
  7.037772900E+02  9.145289970E-03
  2.254787900E+02  3.239342989E-02
  7.961581000E+01  9.770792967E-02
  3.023728300E+01  2.317036792E-01
  1.226362200E+01  3.768898887E-01
  5.265086000E+00  3.177420689E-01
  2.333471000E+00  8.211308973E-02
  9.018560000E-01  3.312089989E-03
  3.583360000E-01  3.720819988E-03
  1.410930000E-01  3.165419989E-03
  4.938300000E-02  4.595799985E-04
   s  14
  7.476171500E+04 -2.707000010E-05
  1.112365400E+04 -1.183700004E-04
  2.512685700E+03 -5.203800020E-04
  7.037772900E+02 -2.102930008E-03
  2.254787900E+02 -7.568200028E-03
  7.961581000E+01 -2.346767009E-02
  3.023728300E+01 -6.042901023E-02
  1.226362200E+01 -1.170549104E-01
  5.265086000E+00 -1.555321506E-01
  2.333471000E+00 -2.468935009E-02
  9.018560000E-01  3.625054514E-01
  3.583360000E-01  5.550845021E-01
  1.410930000E-01  2.148376908E-01
  4.938300000E-02  8.983850034E-03
   p   9
  1.266665700E+02  1.233630000E-03
  2.983738900E+01  9.493409996E-03
  9.394038000E+00  4.293961998E-02
  3.405104000E+00  1.362925399E-01
  1.350000000E+00  2.921362499E-01
  5.576960000E-01  3.887887598E-01
  2.324490000E-01  2.946801399E-01
  9.426400000E-02  8.012875997E-02
  3.299200000E-02  5.405199998E-04
 
[MO]
Sym=     1a  
Ene=   -15.3730
Spin= Alpha
Occup=    2.00000
   1        -0.00004609
   2        -0.00065722
   3        -0.00000000
   4        -0.00000000
   5        -0.00068916
   6         1.00000726
   7        -0.00497385
   8        -0.00000000
   9        -0.00000000
  10        -0.00024713
Sym=     2a  
Ene=    -7.7906
Spin= Alpha
Occup=    2.00000
   1         0.99999867
   2         0.00205621
   3        -0.00000000
   4        -0.00000000
   5         0.00068116
   6         0.00006530
   7         0.00149829
   8        -0.00000000
   9        -0.00000000
  10         0.00071003
Sym=     3a  
Ene=    -0.8286
Spin= Alpha
Occup=    2.00000
   1        -0.00538331
   2         0.02326669
   3        -0.00000001
   4        -0.00000001
   5         0.05222249
   6         0.00388423
   7         0.98376244
   8        -0.00000000
   9        -0.00000001
  10        -0.01584375
Sym=     4a  
Ene=    -0.2668
Spin= Alpha
Occup=    2.00000
   1         0.00000000
   2        -0.00000013
   3         0.27194811
   4         0.26043650
   5        -0.00000020
   6         0.00000001
   7         0.00000010
   8         0.64716060
   9         0.61976618
  10         0.00000028
Sym=     5a  
Ene=    -0.2668
Spin= Alpha
Occup=    2.00000
   1        -0.00000000
   2         0.00000005
   3         0.26043650
   4        -0.27194811
   5         0.00000008
   6        -0.00000000
   7        -0.00000004
   8         0.61976618
   9        -0.64716060
  10        -0.00000011
Sym=     6a  
Ene=    -0.5377
Spin= Alpha
Occup=    1.93625
   1         0.00194698
   2        -0.99581273
   3        -0.00000004
   4        -0.00000009
   5         0.03874354
   6         0.00812110
   7         0.14143061
   8        -0.00000007
   9        -0.00000015
  10         0.05651700
Sym=     7a  
Ene=    -0.0004
Spin= Alpha
Occup=    0.06375
   1         0.00005414
   2        -0.04254103
   3        -0.00000014
   4        -0.00000030
   5        -1.01129898
   6         0.02210600
   7         0.28155317
   8        -0.00000006
   9        -0.00000014
  10         0.05237358
Sym=     8a  
Ene=     0.0353
Spin= Alpha
Occup=    0.00000
   1        -0.00000000
   2        -0.00000002
   3        -0.60040247
   4         0.71027641
   5        -0.00000011
   6         0.00000000
   7         0.00000004
   8         0.29145825
   9        -0.34479525
  10        -0.00000003
Sym=     9a  
Ene=     0.0353
Spin= Alpha
Occup=    0.00000
   1         0.00000000
   2         0.00000005
   3        -0.71027641
   4        -0.60040247
   5         0.00000023
   6        -0.00000001
   7        -0.00000008
   8         0.34479525
   9         0.29145825
  10         0.00000006
Sym=    10a  
Ene=     0.2884
Spin= Alpha
Occup=    0.00000
   1        -0.01050130
   2        -0.23123917
   3         0.00000001
   4         0.00000002
   5        -0.26710954
   6         0.00764335
   7         0.07646332
   8         0.00000011
   9         0.00000025
  10        -1.03254279
