   This run of MOLCAS is using the pymolcas driver

                             OPE
                             OPE          NMOL  CASOP  ENMOLC A   SO
                 OPE        NMOLC        AS  OP EN  MO LC     AS  OP
                OPENM       OL CA        SO  PE NM  OL CA     SOP EN
                OP EN      MO   LC       AS  OP ENMOL  CASO   PENMOL
                OP  EN     MO   LC       AS  OP EN     MO     LC ASO
               OP   E  NMOL  C  AS       OP  EN MO     LC     AS  OP
               OP  E   NMO   LC AS        OPEN  MO     LCASOP EN   M
               O  PEN   MO  LCA  SO
            OPE   NMO   L   CAS    OP
        OPENMOL  CASOP     ENMOL   CASOPE
     OPENMOLCA   SOPENMOLCASOPEN   MOLCASOPE
    OPENMOLCAS   OP           EN   MOL    CAS
    OPENMOLCAS       OP  ENM        O     LCA
    OPENMOLCAS    OPEN  MOLCASO     P  E  NMO
    OPENMOLCAS     OP               E  N  MOL
    OPENMOLCA   SO           PENM   O  L  CAS    OPEN    MO    LCAS
    OPENMOLCA   SOP           ENM   O  L  CAS   OP  EN  MOLC  AS   O
    OPENMOLCA   SOPE           NM      O  LCA   S      OP  EN MO
    OPENMOLC                AS         O  PEN   M      OL  CA  SOPE
    OPENMO        LCASOPE  NMOL        C  ASO   P      ENMOLC     AS
    OPE     NMO      LCA  SO     P     E   NM   OL  CA SO  PE N   MO
          OPENMOLCA            SOPE   NMO        LCAS  O    P  ENMO
     OPENMOLCASOPENMOLCASOPENMOLCASOPENMOLCA
        OPENMOLCASOPENMOLCASOPENMOLCASOPE
            OPENMOLCASOPENMOLCASOPENM
               OPENMOLCASOPENMOLCA        version: ea724fe96-dirty
                   OPENMOLCASO
                       OPE                tag:

 OpenMolcas is free software; you can redistribute it and/or modify it
 under the terms of the GNU Lesser General Public License version 2.1.
 OpenMolcas is distributed in the hope that it will be useful, but it
 is provided "as is" and without any express or implied warranties.
 For more details see the full text of the license in the file
 LICENSE or in <http://www.gnu.org/licenses/>.

                 Copyright (C) The OpenMolcas Authors
           For the author list and the recommended citation,
                   consult the file CONTRIBUTORS.md

           *************************************************
           * pymolcas version py2.28                       *
           *   build c4a6d18ded8cb6cad61d2372a9abd97c      *
           *   (after the EMIL interpreter by V. Veryazov) *
           *************************************************

configuration info
------------------
C Compiler ID: Intel
C flags: -std=gnu99
Fortran Compiler ID: Intel
Fortran flags: -fpp -i8 -r8 -heap-arrays
Definitions: _MOLCAS_;_I8_;_LINUX_
Parallel: OFF (GA=OFF)


   ----------------------------------------------------------------------------------
  |
  |              Project: H12_2.22
  |       Submitted from: /home/grierjones/DDCASPT2/hydrogen_comps/H12_chain/H12_2.22
  |         Scratch area: /tmp/H12_2.22
  |      Save outputs to: /home/grierjones/DDCASPT2/hydrogen_comps/H12_chain/H12_2.22
  |               Molcas: /home/grierjones/Test/build
  |
  | Scratch area is empty
  |
  |       MOLCAS_DRIVER = /usr/local/pymolcas
  | MOLCAS_KEEP_WORKDIR = NO
  |  MOLCAS_NEW_WORKDIR = YES
  |       MOLCAS_NPROCS = 1
  |        MOLCAS_PRINT = NORMAL
  |       MOLCAS_SOURCE = /home/grierjones/Test/build
  |    MOLCAS_STRUCTURE = 0
  |
   ----------------------------------------------------------------------------------

++ ---------   Input file   ---------

&GATEWAY
coord=H12_2.22.xyz
Basis = ANO-RCC-VDZP
Group = nosymm
Expert
End of Input

&SEWARD
End of Input

&SCF

>>> COPY $WorkDir/H12_2.22.scf.h5 $CurrDir/

&RASSCF
Title= RASSCF
FileOrb
/home/grierjones/DDCASPT2/hydrogen_comps/H12_chain/H12_2.20/H12_2.20.RasOrb
NACTEL
12 0 0
Inactive
0
RAS2
12
Symmetry
1
Spin
1
orblisting
all
ITERation
300 200

>>> COPY $WorkDir/H12_2.22.rasscf.h5 $CurrDir/

>>> COPY $WorkDir/GMJ_Fock_MO.csv $CurrDir/H12_2.22.GMJ_Fock_MO.csv

>>> COPY $WorkDir/GMJ_PT2_Fock_MO.csv $CurrDir/H12_2.22.GMJ_PT2_Fock_MO.csv

&MOTRA
Frozen=0
LUMORB

>>> COPY $WorkDir/GMJ_one_int_indx.csv $CurrDir/H12_2.22.GMJ_one_int_indx.csv

>>> COPY $WorkDir/GMJ_one_int.csv $CurrDir/H12_2.22.GMJ_one_int.csv

>>> COPY $WorkDir/GMJ_two_int_indx.csv $CurrDir/H12_2.22.GMJ_two_int_indx.csv

>>> COPY $WorkDir/GMJ_two_int.csv $CurrDir/H12_2.22.GMJ_two_int.csv

&CASPT2
Frozen
0
MAXITER
50

>>> FOREACH i IN (B,E,F,G,H)

  >>> FOREACH j IN (P,M)

    >>> IF (-FILE GMJ_e2_${i}_${j}.csv)

      >>> COPY $WorkDir/GMJ_RHS_${i}_${j}.csv $CurrDir/GMJ_RHS_${i}_${j}.csv

      >>> COPY $WorkDir/GMJ_IVECW_${i}_${j}.csv $CurrDir/GMJ_IVECW_${i}_${j}.csv

      >>> COPY $WorkDir/GMJ_IVECX_${i}_${j}.csv $CurrDir/GMJ_IVECX_${i}_${j}.csv

      >>> COPY $WorkDir/GMJ_IVECC2_${i}_${j}.csv $CurrDir/GMJ_IVECC2_${i}_${j}.csv

      >>> COPY $WorkDir/GMJ_e2_${i}_${j}.csv $CurrDir/GMJ_e2_${i}_${j}.csv

    >>> END IF

  >>> END FOREACH

>>> END FOREACH

>>> FOREACH i IN (A,C,D)

  >>> IF (-FILE GMJ_e2_$i.csv)

    >>> COPY $WorkDir/GMJ_RHS_$i.csv $CurrDir/GMJ_RHS_$i.csv

    >>> COPY $WorkDir/GMJ_IVECW_$i.csv $CurrDir/GMJ_IVECW_$i.csv

    >>> COPY $WorkDir/GMJ_IVECX_$i.csv $CurrDir/GMJ_IVECX_$i.csv

    >>> COPY $WorkDir/GMJ_IVECC2_$i.csv $CurrDir/GMJ_IVECC2_$i.csv

    >>> COPY $WorkDir/GMJ_e2_$i.csv $CurrDir/GMJ_e2_$i.csv

  >>> END IF

>>> END FOREACH

-- ----------------------------------

--- Start Module: gateway at Tue Nov 19 03:35:16 2024 ---
 
()()()()()()()()()()()()()()()()()()()()()()()()()()()()()()()()()()()()()()()()()()()()()()()()()()

                                              &GATEWAY

                                   only a single process is used
                       available to each process: 2.0 GB of memory, 1 thread?
()()()()()()()()()()()()()()()()()()()()()()()()()()()()()()()()()()()()()()()()()()()()()()()()()()
 
 ###############################################################################
 ###############################################################################
 ###                                                                         ###
 ###                                                                         ###
 ###                                                                         ###
 ###    WARNING: EXPERT option is ON!                                        ###
 ###                                                                         ###
 ###                                                                         ###
 ###############################################################################
 ###############################################################################
 
++    Symmetry information:
      ---------------------
 
                    Character Table for C1 
 
                             E  
                    a        1  x, y, xy, Rz, z, xz, Ry, yz, Rx, I
--
 
 
++    Basis set information:
      ----------------------
 
 
      Basis set label: H.ANO-RCC...2S1P.
 
      Electronic valence basis set:
      ------------------
      Associated Effective Charge   1.000000 au
      Associated Actual Charge      1.000000 au
      Nuclear Model: Point charge
 
      Shell  nPrim  nBasis  Cartesian Spherical Contaminant
         s       8       2        X                  
         p       4       1        X                  
--
 
 
++    Molecular structure info:
      -------------------------
 
                    ************************************************ 
                    **** Cartesian Coordinates / Bohr, Angstrom **** 
                    ************************************************ 
 
     Center  Label                x              y              z                     x              y              z
        1      H1               0.000000       0.000000       0.000000              0.000000       0.000000       0.000000
        2      H2               0.000000       0.000000       4.203208              0.000000       0.000000       2.224242
        3      H3               0.000000       0.000000       8.406418              0.000000       0.000000       4.448485
        4      H4               0.000000       0.000000      12.609627              0.000000       0.000000       6.672727
        5      H5               0.000000       0.000000      16.812837              0.000000       0.000000       8.896970
        6      H6               0.000000       0.000000      21.016045              0.000000       0.000000      11.121212
        7      H7               0.000000       0.000000      25.219255              0.000000       0.000000      13.345455
        8      H8               0.000000       0.000000      29.422463              0.000000       0.000000      15.569697
        9      H9               0.000000       0.000000      33.625671              0.000000       0.000000      17.793939
       10      H10              0.000000       0.000000      37.828882              0.000000       0.000000      20.018182
       11      H11              0.000000       0.000000      42.032090              0.000000       0.000000      22.242424
       12      H12              0.000000       0.000000      46.235300              0.000000       0.000000      24.466667
 
                    *************************************** 
                    *    InterNuclear Distances / Bohr    * 
                    *************************************** 
 
               1 H1            2 H2            3 H3            4 H4            5 H5            6 H6    
    1 H1       0.000000
    2 H2       4.203208        0.000000
    3 H3       8.406418        4.203210        0.000000
    4 H4      12.609627        8.406418        4.203208        0.000000
    5 H5      16.812837       12.609628        8.406418        4.203210        0.000000
    6 H6      21.016045       16.812837       12.609627        8.406418        4.203208        0.000000
    7 H7      25.219255       21.016047       16.812837       12.609628        8.406418        4.203210
    8 H8      29.422463       25.219255       21.016045       16.812837       12.609627        8.406418
    9 H9      33.625671       29.422463       25.219253       21.016045       16.812835       12.609627
   10 H10     37.828882       33.625673       29.422463       25.219255       21.016045       16.812837
   11 H11     42.032090       37.828882       33.625671       29.422463       25.219253       21.016045
   12 H12     46.235300       42.032092       37.828882       33.625673       29.422463       25.219255
 
               7 H7            8 H8            9 H9           10 H10          11 H11          12 H12   
    7 H7       0.000000
    8 H8       4.203208        0.000000
    9 H9       8.406416        4.203208        0.000000
   10 H10     12.609627        8.406418        4.203210        0.000000
   11 H11     16.812835       12.609627        8.406418        4.203208        0.000000
   12 H12     21.016045       16.812837       12.609628        8.406418        4.203210        0.000000
 
                    ******************************************* 
                    *    InterNuclear Distances / Angstrom    * 
                    ******************************************* 
 
               1 H1            2 H2            3 H3            4 H4            5 H5            6 H6    
    1 H1       0.000000
    2 H2       2.224242        0.000000
    3 H3       4.448485        2.224243        0.000000
    4 H4       6.672727        4.448485        2.224242        0.000000
    5 H5       8.896970        6.672728        4.448485        2.224243        0.000000
    6 H6      11.121212        8.896970        6.672727        4.448485        2.224242        0.000000
    7 H7      13.345455       11.121213        8.896970        6.672728        4.448485        2.224243
    8 H8      15.569697       13.345455       11.121212        8.896970        6.672727        4.448485
    9 H9      17.793939       15.569697       13.345454       11.121212        8.896969        6.672727
   10 H10     20.018182       17.793940       15.569697       13.345455       11.121212        8.896970
   11 H11     22.242424       20.018182       17.793939       15.569697       13.345454       11.121212
   12 H12     24.466667       22.242425       20.018182       17.793940       15.569697       13.345455
 
               7 H7            8 H8            9 H9           10 H10          11 H11          12 H12   
    7 H7       0.000000
    8 H8       2.224242        0.000000
    9 H9       4.448484        2.224242        0.000000
   10 H10      6.672727        4.448485        2.224243        0.000000
   11 H11      8.896969        6.672727        4.448485        2.224242        0.000000
   12 H12     11.121212        8.896970        6.672728        4.448485        2.224243        0.000000
--
 
 
            Nuclear Potential Energy              6.00458549 au
 
 ###############################################################################
 ###############################################################################
 ###                                                                         ###
 ###                                                                         ###
 ###    There were warnings during the execution                             ###
 ###    Please, check the output with care!                                  ###
 ###                                                                         ###
 ###                                                                         ###
 ###############################################################################
 ###############################################################################
--- Stop Module: gateway at Tue Nov 19 03:35:16 2024 /rc=_RC_ALL_IS_WELL_ ---
*** files: xmldump
    saved to directory /home/grierjones/DDCASPT2/hydrogen_comps/H12_chain/H12_2.22

--- Start Module: seward at Tue Nov 19 03:35:16 2024 ---
 
()()()()()()()()()()()()()()()()()()()()()()()()()()()()()()()()()()()()()()()()()()()()()()()()()()

                                              &SEWARD

                                   only a single process is used
                       available to each process: 2.0 GB of memory, 1 thread?
()()()()()()()()()()()()()()()()()()()()()()()()()()()()()()()()()()()()()()()()()()()()()()()()()()
 
 ###############################################################################
 ###############################################################################
 ###                                                                         ###
 ###                                                                         ###
 ###                                                                         ###
 ###    WARNING: EXPERT option is ON!                                        ###
 ###                                                                         ###
 ###                                                                         ###
 ###############################################################################
 ###############################################################################
               SEWARD will generate:
                  Multipole Moment integrals up to order  2
                  Kinetic Energy integrals
                  Nuclear Attraction integrals (point charge)
                  One-Electron Hamiltonian integrals
                  Velocity integrals
                  Relativistic Douglas-Kroll-Hess integrals:
                    - Parametrization         : EXP
                    - DKH order of Hamiltonian: 2
                    - DKH order of Properties : 0
                         - multipole moment operators
                         - electric potential operators
                         - contact operators
                  Atomic mean-field integrals
                  Two-Electron Repulsion integrals
 
                   Integrals are discarded if absolute value <: 0.10E-13
                   Integral cutoff threshold is set to       <: 0.10E-15
 
            Nuclear Potential Energy              6.00458549 au
 
 
      Basis set specifications :
      Symmetry species         a  
      Basis functions           60
 
 
  Input file to MOLDEN was generated!
 
 ###############################################################################
 ###############################################################################
 ###                                                                         ###
 ###                                                                         ###
 ###    There were warnings during the execution                             ###
 ###    Please, check the output with care!                                  ###
 ###                                                                         ###
 ###                                                                         ###
 ###############################################################################
 ###############################################################################
--- Stop Module: seward at Tue Nov 19 03:35:17 2024 /rc=_RC_ALL_IS_WELL_ ---
*** files: H12_2.22.GssOrb H12_2.22.guessorb.h5 H12_2.22.guessorb.molden xmldump
    saved to directory /home/grierjones/DDCASPT2/hydrogen_comps/H12_chain/H12_2.22

*** symbolic link created: INPORB -> H12_2.22.GssOrb
--- Start Module: scf at Tue Nov 19 03:35:17 2024 ---
 
()()()()()()()()()()()()()()()()()()()()()()()()()()()()()()()()()()()()()()()()()()()()()()()()()()

                                                &SCF

                                   only a single process is used
                       available to each process: 2.0 GB of memory, 1 thread?
()()()()()()()()()()()()()()()()()()()()()()()()()()()()()()()()()()()()()()()()()()()()()()()()()()
 
++    Input section:
      --------------
 
      Header of the integral files:
      
       Integrals generated by seward 4.2.0  , Tue Nov 19 03:35:16 2024
 
 
      Cartesian coordinates in Angstrom:
      -----------------------------------------------------
      No.  Label        X            Y            Z        
      -----------------------------------------------------
       1   H1         0.00000000   0.00000000   0.00000000
       2   H2         0.00000000   0.00000000   2.22424200
       3   H3         0.00000000   0.00000000   4.44848500
       4   H4         0.00000000   0.00000000   6.67272700
       5   H5         0.00000000   0.00000000   8.89697000
       6   H6         0.00000000   0.00000000  11.12121200
       7   H7         0.00000000   0.00000000  13.34545500
       8   H8         0.00000000   0.00000000  15.56969700
       9   H9         0.00000000   0.00000000  17.79393900
      10   H10        0.00000000   0.00000000  20.01818200
      11   H11        0.00000000   0.00000000  22.24242400
      12   H12        0.00000000   0.00000000  24.46666700
      -----------------------------------------------------
      Nuclear repulsion energy =    6.00458549
--
 
++    Orbital specifications:
      -----------------------
 
      Symmetry species               1
                                     a
      Frozen orbitals                0
      Occupied orbitals              6
      Secondary orbitals            54
      Deleted orbitals               0
      Total number of orbitals      60
      Number of basis functions     60
--
 
      Molecular charge                           0.000
 
++    Optimization specifications:
      ----------------------------
 
      SCF Algorithm: Conventional
      Minimized density differences are used
      Number of density matrices in core                5
      Maximum number of NDDO SCF iterations           400
      Maximum number of HF SCF iterations             400
      Threshold for SCF energy change            0.10E-08
      Threshold for density matrix               0.10E-03
      Threshold for Fock matrix                  0.15E-03
      Threshold for linear dependence            0.10E-08
      Threshold at which DIIS is turned on       0.15E+00
      Threshold at which QNR/C2DIIS is turned on 0.75E-01
      Threshold for Norm(delta) (QNR/C2DIIS)     0.20E-04
      DIIS extrapolation of the SCF procedure
      All orbitals punched on: SCFORB
--
 
      Input vectors read from INPORB
      Orbital file label: *Guess orbitals
 
 
++ Convergence information
                                   SCF        iterations: Energy and convergence statistics
 
Iter     Tot. SCF        One-elec.       Two-elec.     Energy      Max Dij or  Max Fij      DNorm      TNorm      AccCon     Time
         Energy          Energy          Energy        Change      Delta Norm                                                in Sec.
   1    -5.066080444   -18.317424904     7.246758973   0.00E+00    0.36E+00*   0.12E+00*    0.52E+01   0.12E+02   None         0.
   2    -5.358861938   -18.253464332     6.890016907  -0.29E+00*   0.15E+00*   0.22E-01*    0.16E+01   0.11E+02   EDIIS        0.
   3    -5.375119046   -18.168176832     6.788472299  -0.16E-01*   0.86E-01*   0.87E-02*    0.39E+00   0.11E+02   EDIIS        0.
   4    -5.379179834   -18.164893118     6.781127798  -0.41E-02*   0.37E-01*   0.11E-01*    0.15E+00   0.11E+02   c2DIIS       0.
   5    -5.381821890   -18.148898773     6.762491397  -0.26E-02*   0.14E-01*   0.20E-02*    0.91E-01   0.11E+02   QNRc2DIIS    0.
   6    -5.381927910   -18.155940640     6.769427244  -0.11E-03*   0.67E-02*   0.10E-02*    0.28E-01   0.11E+02   QNRc2DIIS    0.
   7    -5.381964432   -18.155205311     6.768655393  -0.37E-04*   0.67E-02*   0.43E-03*    0.76E-02   0.11E+02   QNRc2DIIS    0.
   8    -5.381974923   -18.153791269     6.767230859  -0.10E-04*   0.53E-03*   0.67E-04     0.31E-02   0.11E+02   QNRc2DIIS    0.
   9    -5.381975106   -18.153814779     6.767254187  -0.18E-06*   0.13E-03*   0.21E-04     0.75E-03   0.11E+02   QNRc2DIIS    0.
  10    -5.381975117   -18.153779458     6.767218855  -0.11E-07*   0.38E-04*   0.72E-05     0.30E-03   0.11E+02   QNRc2DIIS    0.
  11    -5.381975118   -18.153772472     6.767211867  -0.13E-08*   0.10E-04    0.14E-05     0.38E-04   0.11E+02   QNRc2DIIS    0.
  12    -5.381975118   -18.153774970     6.767214365  -0.90E-10    0.79E-05    0.62E-06     0.26E-04   0.11E+02   QNRc2DIIS    0.
 
       Convergence after 12 Macro Iterations
--
 
 *****************************************************************************************************************************
 *                                                                                                                           *
 *                                             SCF/KS-DFT Program, Final results                                             *
 *                                                                                                                           *
 *                                                                                                                           *
 *                                                                                                                           *
 *                                                       Final Results                                                       *
 *                                                                                                                           *
 *****************************************************************************************************************************
 
::    Total SCF energy                                 -5.3819751180
      One-electron energy                             -18.1537749697
      Two-electron energy                               6.7672143652
      Nuclear repulsion energy                          6.0045854865
      Kinetic energy (interpolated)                     3.9983996944
      Virial theorem                                    1.3460322953
      Total spin, S(S+1)                                0.0000000000
      Total spin, S                                     0.0000000000
      Max non-diagonal density matrix element           0.0000080705
      Max non-diagonal Fock matrix element              0.0000005369
 
 
      All orbitals with orbital energies smaller than  E(LUMO)+0.5 are printed
 
++    Molecular orbitals:
      -------------------
 
      Title: SCF orbitals

      Molecular orbitals for symmetry species 1: a  
 
          Orbital            1         2         3         4         5         6         7         8         9        10    
          Energy           -0.4251   -0.4155   -0.4003   -0.3799   -0.3557   -0.3332   -0.1514   -0.1209   -0.0857   -0.0510
          Occ. No.          2.0000    2.0000    2.0000    2.0000    2.0000    2.0000    0.0000    0.0000    0.0000    0.0000
 
        1 H1     1s         0.0898   -0.1800    0.2606   -0.3161    0.3215   -0.2264    0.2646   -0.4083    0.4433   -0.3989
        2 H1     2s         0.0131   -0.0272    0.0416   -0.0545    0.0606   -0.0461    0.0838   -0.1384    0.1608   -0.1522
        3 H1     2px        0.0000   -0.0000    0.0000   -0.0000    0.0000   -0.0000   -0.0000    0.0000   -0.0000    0.0000
        4 H1     2py        0.0000   -0.0000    0.0000   -0.0000    0.0000   -0.0000    0.0000    0.0000   -0.0000    0.0000
        5 H1     2pz        0.0044   -0.0082    0.0107   -0.0112    0.0096   -0.0057   -0.0012    0.0050   -0.0105    0.0150
        6 H2     1s         0.1304   -0.2463    0.3227   -0.3381    0.2835   -0.1627   -0.1080    0.2731   -0.4363    0.5157
        7 H2     2s         0.0155   -0.0352    0.0580   -0.0772    0.0806   -0.0548   -0.0279    0.0904   -0.1612    0.1986
        8 H2     2px       -0.0000    0.0000   -0.0000   -0.0000   -0.0000   -0.0000    0.0000   -0.0000    0.0000   -0.0000
        9 H2     2py        0.0000   -0.0000   -0.0000   -0.0000    0.0000   -0.0000   -0.0000    0.0000   -0.0000    0.0000
       10 H2     2pz        0.0002    0.0011   -0.0044    0.0090   -0.0125    0.0104   -0.0137    0.0182   -0.0137    0.0037
       11 H3     1s         0.2186   -0.3167    0.2229    0.0312   -0.2910    0.3199   -0.3622    0.3367   -0.0032   -0.3776
       12 H3     2s         0.0337   -0.0480    0.0293    0.0213   -0.0776    0.0835   -0.1196    0.1141    0.0040   -0.1457
       13 H3     2px        0.0000   -0.0000    0.0000   -0.0000    0.0000   -0.0000   -0.0000    0.0000   -0.0000   -0.0000
       14 H3     2py        0.0000   -0.0000   -0.0000    0.0000   -0.0000    0.0000    0.0000   -0.0000    0.0000   -0.0000
       15 H3     2pz        0.0049   -0.0048   -0.0011    0.0086   -0.0118    0.0082    0.0086   -0.0173    0.0188   -0.0090
       16 H4     1s         0.2485   -0.3091    0.1276    0.1663   -0.3433    0.2652    0.2434   -0.4272    0.3079    0.1239
       17 H4     2s         0.0323   -0.0505    0.0338    0.0224   -0.0806    0.0778    0.0744   -0.1509    0.1186    0.0448
       18 H4     2px       -0.0000   -0.0000    0.0000    0.0000   -0.0000    0.0000   -0.0000    0.0000   -0.0000   -0.0000
       19 H4     2py        0.0000    0.0000    0.0000    0.0000    0.0000    0.0000   -0.0000   -0.0000    0.0000   -0.0000
       20 H4     2pz       -0.0016    0.0056   -0.0084    0.0037    0.0074   -0.0123    0.0165   -0.0101   -0.0097    0.0198
       21 H5     1s         0.3030   -0.1843   -0.1984    0.3052    0.0636   -0.3519    0.3879   -0.0264   -0.4524    0.2835
       22 H5     2s         0.0443   -0.0212   -0.0444    0.0573    0.0281   -0.0950    0.1259   -0.0025   -0.1699    0.1059
       23 H5     2px        0.0000   -0.0000    0.0000   -0.0000   -0.0000   -0.0000    0.0000    0.0000    0.0000   -0.0000
       24 H5     2py        0.0000    0.0000   -0.0000   -0.0000   -0.0000    0.0000    0.0000    0.0000   -0.0000    0.0000
       25 H5     2pz        0.0048    0.0014   -0.0087    0.0028    0.0097   -0.0113   -0.0137    0.0166    0.0010   -0.0190
       26 H6     1s         0.3142   -0.1107   -0.2768    0.2210    0.2007   -0.3327   -0.3447    0.3027    0.2571   -0.4744
       27 H6     2s         0.0437   -0.0255   -0.0430    0.0556    0.0376   -0.0932   -0.1095    0.1119    0.0918   -0.1818
       28 H6     2px       -0.0000   -0.0000   -0.0000    0.0000    0.0000   -0.0000   -0.0000    0.0000   -0.0000   -0.0000
       29 H6     2py        0.0000    0.0000    0.0000   -0.0000    0.0000    0.0000   -0.0000   -0.0000   -0.0000   -0.0000
       30 H6     2pz       -0.0036    0.0062    0.0010   -0.0104    0.0016    0.0127   -0.0166   -0.0049    0.0193    0.0027
       31 H7     1s         0.3142    0.1107   -0.2768   -0.2210    0.2007    0.3327   -0.3447   -0.3027    0.2571    0.4744
       32 H7     2s         0.0437    0.0255   -0.0430   -0.0556    0.0376    0.0932   -0.1095   -0.1119    0.0918    0.1818
       33 H7     2px       -0.0000    0.0000    0.0000    0.0000   -0.0000   -0.0000    0.0000    0.0000    0.0000   -0.0000
       34 H7     2py        0.0000    0.0000   -0.0000   -0.0000    0.0000   -0.0000    0.0000   -0.0000   -0.0000   -0.0000
       35 H7     2pz        0.0036    0.0062   -0.0010   -0.0104   -0.0016    0.0127    0.0166   -0.0049   -0.0193    0.0027
       36 H8     1s         0.3030    0.1843   -0.1984   -0.3052    0.0636    0.3519    0.3879    0.0264   -0.4524   -0.2835
       37 H8     2s         0.0443    0.0212   -0.0444   -0.0573    0.0281    0.0950    0.1259    0.0025   -0.1699   -0.1059
       38 H8     2px       -0.0000   -0.0000    0.0000   -0.0000   -0.0000   -0.0000   -0.0000    0.0000   -0.0000   -0.0000
       39 H8     2py       -0.0000    0.0000    0.0000    0.0000    0.0000   -0.0000    0.0000   -0.0000    0.0000   -0.0000
       40 H8     2pz       -0.0048    0.0014    0.0087    0.0028   -0.0097   -0.0113    0.0137    0.0166   -0.0010   -0.0190
       41 H9     1s         0.2485    0.3091    0.1276   -0.1663   -0.3433   -0.2652    0.2434    0.4272    0.3079   -0.1239
       42 H9     2s         0.0323    0.0505    0.0338   -0.0224   -0.0806   -0.0778    0.0744    0.1509    0.1186   -0.0448
       43 H9     2px       -0.0000   -0.0000   -0.0000   -0.0000    0.0000   -0.0000   -0.0000    0.0000    0.0000   -0.0000
       44 H9     2py        0.0000    0.0000   -0.0000   -0.0000    0.0000   -0.0000   -0.0000   -0.0000   -0.0000   -0.0000
       45 H9     2pz        0.0016    0.0056    0.0084    0.0037   -0.0074   -0.0123   -0.0165   -0.0101    0.0097    0.0198
       46 H10    1s         0.2186    0.3167    0.2229   -0.0312   -0.2910   -0.3199   -0.3622   -0.3367   -0.0032    0.3776
       47 H10    2s         0.0337    0.0480    0.0293   -0.0213   -0.0776   -0.0835   -0.1196   -0.1141    0.0040    0.1457
       48 H10    2px       -0.0000    0.0000    0.0000   -0.0000   -0.0000   -0.0000    0.0000    0.0000   -0.0000   -0.0000
       49 H10    2py        0.0000   -0.0000   -0.0000   -0.0000   -0.0000    0.0000   -0.0000   -0.0000   -0.0000   -0.0000
       50 H10    2pz       -0.0049   -0.0048    0.0011    0.0086    0.0118    0.0082   -0.0086   -0.0173   -0.0188   -0.0090
       51 H11    1s         0.1304    0.2463    0.3227    0.3381    0.2835    0.1627   -0.1080   -0.2731   -0.4363   -0.5157
       52 H11    2s         0.0155    0.0352    0.0580    0.0772    0.0806    0.0548   -0.0279   -0.0904   -0.1612   -0.1986
       53 H11    2px        0.0000   -0.0000   -0.0000    0.0000    0.0000    0.0000    0.0000   -0.0000   -0.0000   -0.0000
       54 H11    2py       -0.0000   -0.0000    0.0000   -0.0000   -0.0000   -0.0000    0.0000   -0.0000    0.0000    0.0000
       55 H11    2pz       -0.0002    0.0011    0.0044    0.0090    0.0125    0.0104    0.0137    0.0182    0.0137    0.0037
       56 H12    1s         0.0898    0.1800    0.2606    0.3161    0.3215    0.2264    0.2646    0.4083    0.4433    0.3989
       57 H12    2s         0.0131    0.0272    0.0416    0.0545    0.0606    0.0461    0.0838    0.1384    0.1608    0.1522
       58 H12    2px       -0.0000    0.0000   -0.0000    0.0000   -0.0000   -0.0000   -0.0000   -0.0000    0.0000   -0.0000
       59 H12    2py       -0.0000   -0.0000    0.0000   -0.0000    0.0000    0.0000   -0.0000   -0.0000   -0.0000   -0.0000
       60 H12    2pz       -0.0044   -0.0082   -0.0107   -0.0112   -0.0096   -0.0057    0.0012    0.0050    0.0105    0.0150
 
          Orbital           11        12        13        14        15    
          Energy           -0.0210   -0.0006    0.3180    0.3272    0.3441
          Occ. No.          0.0000    0.0000    0.0000    0.0000    0.0000
 
        1 H1     1s         0.2990   -0.1606   -0.0813    0.1334   -0.1416
        2 H1     2s         0.1175   -0.0640    0.1653   -0.2989    0.3857
        3 H1     2px        0.0000    0.0000    0.0000   -0.0000    0.0000
        4 H1     2py       -0.0000    0.0000    0.0000   -0.0000    0.0000
        5 H1     2pz       -0.0157    0.0103   -0.0158    0.0260   -0.0287
        6 H2     1s        -0.4627    0.2750   -0.1270    0.1888   -0.1654
        7 H2     2s        -0.1788    0.1050    0.1417   -0.2230    0.2130
        8 H2     2px       -0.0000   -0.0000    0.0000   -0.0000    0.0000
        9 H2     2py       -0.0000    0.0000   -0.0000    0.0000   -0.0000
       10 H2     2pz        0.0052   -0.0066    0.0025   -0.0075    0.0148
       11 H3     1s         0.5506   -0.3962   -0.1413    0.1758   -0.0871
       12 H3     2s         0.2093   -0.1487    0.1866   -0.2473    0.1386
       13 H3     2px       -0.0000    0.0000   -0.0000    0.0000    0.0000
       14 H3     2py        0.0000   -0.0000   -0.0000    0.0000    0.0000
       15 H3     2pz       -0.0055    0.0101   -0.0057    0.0022    0.0076
       16 H4     1s        -0.5152    0.4732   -0.1637    0.1461    0.0216
       17 H4     2s        -0.1959    0.1781    0.2066   -0.2014   -0.0272
       18 H4     2px        0.0000   -0.0000   -0.0000    0.0000    0.0000
       19 H4     2py        0.0000   -0.0000   -0.0000   -0.0000    0.0000
       20 H4     2pz       -0.0103   -0.0018    0.0010   -0.0071    0.0121
       21 H5     1s         0.3432   -0.5394   -0.1741    0.1016    0.1063
       22 H5     2s         0.1311   -0.2024    0.2250   -0.1368   -0.1723
       23 H5     2px       -0.0000   -0.0000    0.0000    0.0000   -0.0000
       24 H5     2py       -0.0000    0.0000   -0.0000   -0.0000    0.0000
       25 H5     2pz        0.0100    0.0072   -0.0040   -0.0053    0.0102
       26 H6     1s        -0.1446    0.5664   -0.1822    0.0306    0.1694
       27 H6     2s        -0.0542    0.2128    0.2332   -0.0463   -0.2634
       28 H6     2px       -0.0000    0.0000   -0.0000    0.0000   -0.0000
       29 H6     2py       -0.0000    0.0000    0.0000   -0.0000   -0.0000
       30 H6     2pz       -0.0170    0.0031    0.0025   -0.0084    0.0017
       31 H7     1s        -0.1446   -0.5664   -0.1822   -0.0306    0.1694
       32 H7     2s        -0.0542   -0.2128    0.2332    0.0463   -0.2634
       33 H7     2px        0.0000    0.0000    0.0000   -0.0000   -0.0000
       34 H7     2py       -0.0000    0.0000   -0.0000   -0.0000   -0.0000
       35 H7     2pz        0.0170    0.0031   -0.0025   -0.0084   -0.0017
       36 H8     1s         0.3432    0.5394   -0.1741   -0.1016    0.1063
       37 H8     2s         0.1311    0.2024    0.2250    0.1368   -0.1723
       38 H8     2px        0.0000    0.0000   -0.0000   -0.0000   -0.0000
       39 H8     2py        0.0000    0.0000   -0.0000    0.0000    0.0000
       40 H8     2pz       -0.0100    0.0072    0.0040   -0.0053   -0.0102
       41 H9     1s        -0.5152   -0.4732   -0.1637   -0.1461    0.0216
       42 H9     2s        -0.1959   -0.1781    0.2066    0.2014   -0.0272
       43 H9     2px        0.0000    0.0000    0.0000   -0.0000   -0.0000
       44 H9     2py        0.0000   -0.0000   -0.0000   -0.0000    0.0000
       45 H9     2pz        0.0103   -0.0018   -0.0010   -0.0071   -0.0121
       46 H10    1s         0.5506    0.3962   -0.1413   -0.1758   -0.0871
       47 H10    2s         0.2093    0.1487    0.1866    0.2473    0.1386
       48 H10    2px       -0.0000    0.0000   -0.0000   -0.0000   -0.0000
       49 H10    2py       -0.0000    0.0000   -0.0000   -0.0000    0.0000
       50 H10    2pz        0.0055    0.0101    0.0057    0.0022   -0.0076
       51 H11    1s        -0.4627   -0.2750   -0.1270   -0.1888   -0.1654
       52 H11    2s        -0.1788   -0.1050    0.1417    0.2230    0.2130
       53 H11    2px        0.0000   -0.0000    0.0000    0.0000    0.0000
       54 H11    2py        0.0000   -0.0000    0.0000    0.0000   -0.0000
       55 H11    2pz       -0.0052   -0.0066   -0.0025   -0.0075   -0.0148
       56 H12    1s         0.2990    0.1606   -0.0813   -0.1334   -0.1416
       57 H12    2s         0.1175    0.0640    0.1653    0.2989    0.3857
       58 H12    2px       -0.0000    0.0000   -0.0000   -0.0000    0.0000
       59 H12    2py       -0.0000   -0.0000   -0.0000   -0.0000   -0.0000
       60 H12    2pz        0.0157    0.0103    0.0158    0.0260    0.0287
--
 
 
++    Molecular charges:
      ------------------
 
      Mulliken charges per centre and basis function type
      ---------------------------------------------------
 
                H1      H2      H3      H4      H5      H6      H7      H8      H9      H10     H11     H12   
      1s       0.8789  0.9523  0.9192  0.9298  0.9226  0.9256  0.9256  0.9226  0.9298  0.9192  0.9523  0.8789
      2s       0.0703  0.0806  0.0668  0.0702  0.0690  0.0695  0.0695  0.0690  0.0702  0.0668  0.0806  0.0703
      2px      0.0000  0.0000  0.0000  0.0000  0.0000  0.0000  0.0000  0.0000  0.0000  0.0000  0.0000  0.0000
      2pz      0.0065  0.0079  0.0077  0.0076  0.0078  0.0077  0.0077  0.0078  0.0076  0.0077  0.0079  0.0065
      2py      0.0000  0.0000  0.0000  0.0000  0.0000  0.0000  0.0000  0.0000  0.0000  0.0000  0.0000  0.0000
      Total    0.9557  1.0408  0.9937  1.0076  0.9994  1.0028  1.0028  0.9994  1.0076  0.9937  1.0408  0.9557
 
      N-E      0.0443 -0.0408  0.0063 -0.0076  0.0006 -0.0028 -0.0028  0.0006 -0.0076  0.0063 -0.0408  0.0443
 
      Total electronic charge=   12.000000
 
      Total            charge=   -0.000000
--
 
 
  Input file to MOLDEN was generated!
 
 
++    Static properties:
      ------------------
 
 
      LoProp Charges per center
 

                   H1       H2       H3       H4       H5       H6       H7       H8       H9       H10   
      Nuclear      1.0000   1.0000   1.0000   1.0000   1.0000   1.0000   1.0000   1.0000   1.0000   1.0000
      Electronic  -0.9746  -1.0203  -0.9956  -1.0073  -0.9996  -1.0027  -1.0027  -0.9996  -1.0073  -0.9956
 
      Total        0.0254  -0.0203   0.0044  -0.0073   0.0004  -0.0027  -0.0027   0.0004  -0.0073   0.0044
 

                   H11      H12   
      Nuclear      1.0000   1.0000
      Electronic  -1.0203  -0.9746
 
      Total       -0.0203   0.0254
--
 
 
++    Natural Bond Order analysis
      ---------------------------
      Based on LoProp computed density
      -------------------------------------------------------------------------------------
      Atom A       Atom B       Bond Order
      -------------------------------------------------------------------------------------
      NBO located      0.957 non-bonded electrons on atom H1        
      NBO located      1.004 non-bonded electrons on atom H3        
      NBO located      1.016 non-bonded electrons on atom H4        
      NBO located      1.008 non-bonded electrons on atom H5        
      NBO located      1.011 non-bonded electrons on atom H6        
      NBO located      1.011 non-bonded electrons on atom H7        
      NBO located      1.008 non-bonded electrons on atom H8        
      NBO located      1.016 non-bonded electrons on atom H9        
      NBO located      1.004 non-bonded electrons on atom H10       
      NBO located      0.957 non-bonded electrons on atom H12       
      The remaining    2.006 electrons are to be considered as diffuse
--
 
 
++    Molecular properties:
      ---------------------
 
      Charge (e):
                      =   -0.0000
      Dipole Moment (Debye):
      Origin of the operator (Ang)=    0.0000    0.0000    0.0000
                   X=  6.5338E-15               Y= -7.5614E-14               Z=  1.2308E-06           Total=  1.2308E-06
      Quadrupole Moment (Debye*Ang):
      Origin of the operator (Ang)=    0.0000    0.0000   12.2333
                  XX= -2.6631E+01              XY= -7.8850E-29              XZ= -2.7173E-14              YY= -2.6631E+01
                  YZ=  8.2206E-13              ZZ=  6.6480E+00
      In traceless form (Debye*Ang)
                  XX= -1.6640E+01              XY= -1.1828E-28              XZ= -4.0759E-14              YY= -1.6640E+01
                  YZ=  1.2331E-12              ZZ=  3.3279E+01
--
 
 
  Input file to MOLDEN was generated!
 
 ###############################################################################
 ###############################################################################
 ###                                                                         ###
 ###                                                                         ###
 ###    RunFile label nBas                                                   ###
 ###    was used       78 times                                              ###
 ###                                                                         ###
 ###                                                                         ###
 ###############################################################################
 ###############################################################################
--- Stop Module: scf at Tue Nov 19 03:35:18 2024 /rc=_RC_ALL_IS_WELL_ ---
*** files: H12_2.22.LprOrb H12_2.22.LoProp.molden H12_2.22.scf.molden H12_2.22.ScfOrb H12_2.22.scf.h5 xmldump
    saved to directory /home/grierjones/DDCASPT2/hydrogen_comps/H12_chain/H12_2.22

>>> COPY /tmp/H12_2.22/H12_2.22.scf.h5 /home/grierjones/DDCASPT2/hydrogen_comps/H12_chain/H12_2.22/

*** symbolic link created: INPORB -> H12_2.22.ScfOrb
--- Start Module: rasscf at Tue Nov 19 03:35:18 2024 ---
 
()()()()()()()()()()()()()()()()()()()()()()()()()()()()()()()()()()()()()()()()()()()()()()()()()()

                                              &RASSCF

                                   only a single process is used
                       available to each process: 2.0 GB of memory, 1 thread?
()()()()()()()()()()()()()()()()()()()()()()()()()()()()()()()()()()()()()()()()()()()()()()()()()()
 
 
 *************** WARNING ****************
 ###############################################################################
 ###############################################################################
 ###                                                                         ###
 ###                                                                         ###
 ###    Too many macro-iterations.                                           ###
 ###                                                                         ###
 ###                                                                         ###
 ###############################################################################
 ###############################################################################
 Too many macro-iterations requested.
 Reset to maximum, new MAXIT=     200
 ****************************************
 
 *************** WARNING ****************
 ###############################################################################
 ###############################################################################
 ###                                                                         ###
 ###                                                                         ###
 ###    Too many SX-iterations.                                              ###
 ###                                                                         ###
 ###                                                                         ###
 ###############################################################################
 ###############################################################################
 Too many SX-iterations requested.
 Reset to maximum, new ITMAX=     100
 ****************************************
 
      Header of the ONEINT file:
      --------------------------
      
      Integrals generated by seward 4.2.0  , Tue Nov 19 03:35:16 2024
 
 
      OrdInt status: non-squared
 
 
      Cartesian coordinates in Angstrom:
      -----------------------------------------------------
      No.  Label        X            Y            Z        
      -----------------------------------------------------
       1   H1         0.00000000   0.00000000   0.00000000
       2   H2         0.00000000   0.00000000   2.22424200
       3   H3         0.00000000   0.00000000   4.44848500
       4   H4         0.00000000   0.00000000   6.67272700
       5   H5         0.00000000   0.00000000   8.89697000
       6   H6         0.00000000   0.00000000  11.12121200
       7   H7         0.00000000   0.00000000  13.34545500
       8   H8         0.00000000   0.00000000  15.56969700
       9   H9         0.00000000   0.00000000  17.79393900
      10   H10        0.00000000   0.00000000  20.01818200
      11   H11        0.00000000   0.00000000  22.24242400
      12   H12        0.00000000   0.00000000  24.46666700
      -----------------------------------------------------
      Nuclear repulsion energy =    6.00458549
 
++    Wave function specifications:
      -----------------------------
 
      Number of closed shell electrons           0
      Number of electrons in active shells      12
      Max number of holes in RAS1 space          0
      Max nr of electrons in RAS3 space          0
      Number of inactive orbitals                0
      Number of active orbitals                 12
      Number of secondary orbitals              48
      Spin quantum number                      0.0
      State symmetry                             1
--
 
++    Orbital specifications:
      -----------------------
 
      Symmetry species                           1
                                                 a
      Frozen orbitals                            0
      Inactive orbitals                          0
      Active orbitals                           12
      RAS1 orbitals                              0
      RAS2 orbitals                             12
      RAS3 orbitals                              0
      Secondary orbitals                        48
      Deleted orbitals                           0
      Number of basis functions                 60
--
 
++    CI expansion specifications:
      ----------------------------
 
      Number of CSFs                        226512
      Number of determinants                427350
      Number of root(s) required                 1
      Root chosen for geometry opt.              1
      CI root used                               1
         
      highest root included in the CI            1
      max. size of the explicit Hamiltonian    200
--
 
++    Optimization specifications:
      ----------------------------
 
      RASSCF algorithm: Conventional
      Maximum number of macro iterations       200
      Maximum number of SX iterations          100
      Threshold for RASSCF energy            0.100E-07
      Threshold for max MO rotation          0.100E+00
      Threshold for max BLB element          0.100E-03
      Level shift parameter                  0.500E+00
      Make Quasi-Newton update
--
 
      The MO-coefficients are taken from the file:
      /home/grierjones/DDCASPT2/hydrogen_comps/H12_chain/H12_2.20/H12_2.20.RasOrb                                                     
      Title: RASSCF average (pseudo-natural) orbitals                                      
 
      Total molecular charge    0.00
 
      ************************************************************************************************************************
      *                                                                                                                      *
      *                                            Wave function control section                                             *
      *                                                                                                                      *
      ************************************************************************************************************************
 
 
                                         RASSCF iterations: Energy and convergence statistics
                                         ----------------------------------------------------
 
      Iter CI   SX   CI       RASSCF       Energy    max ROT     max BLB   max BLB  Level Ln srch  Step   QN   Walltime
          iter iter root      energy       change     param      element    value   shift minimum  type update hh:mm:ss
 Nr of preliminary CI iterations:  10
        1   1    4    1    -6.03729054    0.00E+00   0.14E-02    6  20 1 -0.13E-02*  0.01   0.00    SX    NO    0:00:12
        2   2    4    1    -6.03732050   -0.30E-04* -0.31E-03    1  13 1  0.27E-03*  0.01   0.00    SX    NO    0:00:03
        3   8    4    1    -6.03764847   -0.33E-03* -0.47E-03    6  20 1 -0.35E-03*  0.01   0.00    SX    NO    0:00:08
        4  34    4    1    -6.03769022   -0.42E-04*  0.43E-03    9  19 1 -0.28E-03*  0.01   0.00    SX    NO    0:00:31
        5  24    4    1    -6.03769502   -0.48E-05* -0.51E-03    9  19 1 -0.15E-03*  0.01   1.02    QN   YES    0:00:21
        6  65    4    1    -6.03769623   -0.12E-05* -0.12E-03    6  20 1 -0.65E-04   0.01   0.96    QN   YES    0:00:58
        7  11    3    1    -6.03769628   -0.52E-07*  0.57E-04    9  19 1 -0.39E-04   0.01   0.85    QN   YES    0:00:11
        8  10    3    1    -6.03769631   -0.28E-07*  0.16E-04    9  19 1 -0.86E-05   0.01   1.05    QN   YES    0:00:10
        9   1    3    1    -6.03769631   -0.56E-09  -0.41E-05    6  20 1 -0.32E-05   0.01   0.76    QN   YES    0:00:02
      Convergence after  9 iterations
 
  Dmat in MO in SXCTL bf call to SXHAM                                                                                    
  mat. size =    12x   12
 
        1.5274141693617289
       -0.0000000105994159      1.5014683796516806
        0.0000756804641201      0.0000000941987236      1.4567544323650006
       -0.0000000548528017     -0.0001386192270952     -0.0000001159397624      1.3918225668969191
        0.0000619426646211     -0.0000000141946926      0.0001922377182601     -0.0000003107480940      1.3070650792695890
        0.0000000557703634     -0.0001028446222105     -0.0000000028611811      0.0001114199377413     -0.0000007170731462
        1.2091484562410213
        0.0000975204611753      0.0000003416947994      0.0002323813418732      0.0000000038020055      0.0001548042876296
        0.0000004771351724      0.6100954860311117
        0.0000002248168304      0.0001927293621277     -0.0000000019945318     -0.0000857826621063     -0.0000004240582457
       -0.0000412532905497     -0.0000001187966948      0.5406400057676086
       -0.0000805249897380      0.0000000207682654     -0.0001179091578760      0.0000004895256261      0.0000218778648850
        0.0000000022768589      0.0002481740094028      0.0000000090667909      0.7998938520339913
        0.0000000001920407     -0.0001685281773669     -0.0000004307144688      0.0001433040762907     -0.0000000000596679
        0.0001706097440621      0.0000003048070620      0.0003056346350746     -0.0000006837750593      0.6991322264158525
        0.0000958306257607     -0.0000000020446418      0.0000244302961537      0.0000003367405644      0.0000341015497413
       -0.0000000183500285     -0.0001158289876107     -0.0000001087658769      0.0000564642494905     -0.0000000136228579
        0.4922637307535742
       -0.0000000027830582      0.0000159357584330      0.0000002268008021      0.0000273281177162     -0.0000000000306179
       -0.0000134862448376      0.0000000524247463      0.0000611659265702      0.0000000523962322     -0.0000382584353675
        0.0000000151879371      0.4643016152137449
       10   1    3    1    -6.03769631   -0.66E-10  -0.41E-05    1  23 1  0.92E-07   0.01   0.76    QN   YES    0:00:03
 
      ************************************************************************************************************************
                                                      Wave function printout:
                       occupation of active orbitals, and spin coupling of open shells (u,d: Spin up or down)
      ************************************************************************************************************************
 
      Note: transformation to natural orbitals
      has been made, which may change the order of the CSFs.
 
      printout of CI-coefficients larger than  0.05 for root  1
      energy=      -6.037696
      conf/sym  111111111111     Coeff  Weight
             1  222222000000  -0.30366 0.09221
            43  222220002000   0.14247 0.02030
            67  2222ud00ud00   0.14848 0.02205
            83  222u2du0d000  -0.11459 0.01313
           105  22u22d0ud000  -0.09695 0.00940
           134  2u222d00u0d0   0.08809 0.00776
           156  u2222d000ud0  -0.05016 0.00252
           160  u2222d00u00d   0.10624 0.01129
           173  222202000200   0.08949 0.00801
           191  222ud2u00d00  -0.10646 0.01133
           213  22u2d20u0d00  -0.08923 0.00796
           228  2u22d2ud0000  -0.05025 0.00252
           240  2u22d2000ud0   0.08964 0.00804
           244  2u22d200u00d  -0.05051 0.00255
           266  u222d2000u0d   0.07473 0.00558
           269  222022200000   0.06682 0.00447
           291  22ud22ud0000   0.09079 0.00824
           303  22ud22000ud0  -0.05049 0.00255
           321  2u2d22u000d0  -0.07360 0.00542
           347  u22d22u0000d  -0.06833 0.00467
           355  220222020000   0.05506 0.00303
           385  2ud2220u00d0  -0.07058 0.00498
           411  u2d2220u000d  -0.06606 0.00436
           456  ud22220000ud   0.06724 0.00452
           478  022222000002   0.05189 0.00269
          5623  222200002200  -0.07530 0.00567
          5721  222ud0u02d00  -0.07463 0.00557
          5827  22u2d00u2d00  -0.06176 0.00381
          5952  2u22d0002ud0  -0.05707 0.00326
          6087  u222d0002u0d  -0.05246 0.00275
          6238  22ud20ud2000  -0.05311 0.00282
          6365  2u2d20u020d0  -0.05017 0.00252
          7196  222u0du0d200  -0.06054 0.00367
          7713  22udududud00  -0.06267 0.00393
          8660  22uudduudd00  -0.05322 0.00283
 
      Natural orbitals and occupation numbers for root  1
      sym 1:   1.527414   1.501469   1.456755   1.391822   1.307065   1.209148   0.610095   0.540639   0.799894   0.699133
               0.492264   0.464302
 
      ************************************************************************************************************************
      *                                                                                                                      *
      *                                                    Final results                                                     *
      *                                                                                                                      *
      ************************************************************************************************************************
 
 
++    Wave function specifications:
      -----------------------------
 
      Number of closed shell electrons           0
      Number of electrons in active shells      12
      Max number of holes in RAS1 space          0
      Max nr of electrons in RAS3 space          0
      Number of inactive orbitals                0
      Number of active orbitals                 12
      Number of secondary orbitals              48
      Spin quantum number                      0.0
      State symmetry                             1
--
 
++    Orbital specifications:
      -----------------------
 
      Symmetry species                           1
                                                 a
      Frozen orbitals                            0
      Inactive orbitals                          0
      Active orbitals                           12
      RAS1 orbitals                              0
      RAS2 orbitals                             12
      RAS3 orbitals                              0
      Secondary orbitals                        48
      Deleted orbitals                           0
      Number of basis functions                 60
--
 
++    CI expansion specifications:
      ----------------------------
 
      Number of CSFs                        226512
      Number of determinants                427350
      Number of root(s) required                 1
      CI root used                               1
      highest root included in the CI            1
      Root passed to geometry opt.               1
--
 
++    Final optimization conditions:
      ------------------------------
 
      Average CI energy                              -6.03769631
      RASSCF energy for state  1                     -6.03769631
      Super-CI energy                                -0.00000000
      RASSCF energy change                            0.00000000
      Max change in MO coefficients               0.241E-05
      Max non-diagonal density matrix element    -0.405E-05
      Maximum BLB matrix element                  0.924E-07
      (orbital pair   1,  23 in symmetry   1)
      Norm of electronic gradient            0.420E-06
--
 
 
      Final state energy(ies):
      ------------------------
 
::    RASSCF root number  1 Total energy:     -6.03769631
 
++    Molecular orbitals:
      -------------------
 
      Pseudonatural active orbitals and approximate occupation numbers
 
 
 
 
      Molecular orbitals for symmetry species 1: a  
 
 
      Orbital                1         2         3         4         5         6         7         8         9        10
      Energy            0.0000    0.0000    0.0000    0.0000    0.0000    0.0000    0.0000    0.0000    0.0000    0.0000
      Occ. No.          1.5274    1.5015    1.4568    1.3918    1.3071    1.2091    0.6101    0.5406    0.7999    0.6991
 
    1 H1     1s         0.1123    0.2147    0.2950   -0.3372    0.3210   -0.2240    0.4171    0.3825   -0.2491   -0.3769
    2 H1     2s         0.0076    0.0150    0.0216   -0.0261    0.0265   -0.0196    0.0483    0.0468   -0.0259   -0.0412
    3 H1     2px        0.0000    0.0000    0.0000   -0.0000   -0.0000    0.0000   -0.0000    0.0000   -0.0000   -0.0000
    4 H1     2py       -0.0000   -0.0000   -0.0000    0.0000   -0.0000   -0.0000    0.0000   -0.0000    0.0000    0.0000
    5 H1     2pz        0.0014    0.0025    0.0030   -0.0027    0.0020   -0.0010    0.0022    0.0026   -0.0008   -0.0015
    6 H2     1s         0.1601    0.2858    0.3489   -0.3348    0.2490   -0.1234   -0.4026   -0.4756    0.0935    0.2502
    7 H2     2s         0.0089    0.0191    0.0299   -0.0379    0.0378   -0.0254   -0.0541   -0.0761    0.0006    0.0231
    8 H2     2px        0.0000    0.0000   -0.0000   -0.0000    0.0000    0.0000   -0.0000   -0.0000   -0.0000   -0.0000
    9 H2     2py       -0.0000    0.0000    0.0000    0.0000    0.0000    0.0000   -0.0000   -0.0000   -0.0000   -0.0000
   10 H2     2pz        0.0010    0.0009   -0.0005    0.0026   -0.0039    0.0033   -0.0001    0.0006    0.0019    0.0014
   11 H3     1s         0.2329    0.3238    0.2074    0.0591   -0.3081    0.3408   -0.0375    0.3164    0.3703    0.3408
   12 H3     2s         0.0155    0.0208    0.0098    0.0149   -0.0395    0.0419    0.0021    0.0588    0.0485    0.0437
   13 H3     2px       -0.0000   -0.0000   -0.0000    0.0000    0.0000    0.0000   -0.0000    0.0000    0.0000    0.0000
   14 H3     2py       -0.0000   -0.0000   -0.0000    0.0000   -0.0000   -0.0000   -0.0000    0.0000    0.0000   -0.0000
   15 H3     2pz        0.0007   -0.0001   -0.0021    0.0036   -0.0032    0.0014    0.0006    0.0009   -0.0007   -0.0008
   16 H4     1s         0.2679    0.3074    0.0809    0.2257   -0.3617    0.2407    0.3162   -0.0883   -0.2324   -0.4251
   17 H4     2s         0.0158    0.0227    0.0122    0.0147   -0.0392    0.0362    0.0554   -0.0096   -0.0229   -0.0602
   18 H4     2px       -0.0000   -0.0000   -0.0000   -0.0000   -0.0000   -0.0000   -0.0000    0.0000    0.0000   -0.0000
   19 H4     2py        0.0000   -0.0000    0.0000   -0.0000   -0.0000    0.0000    0.0000    0.0000   -0.0000   -0.0000
   20 H4     2pz        0.0008   -0.0008   -0.0029    0.0020    0.0016   -0.0036   -0.0008    0.0003   -0.0017   -0.0000
   21 H5     1s         0.3072    0.1870   -0.2034    0.3123    0.0507   -0.3780   -0.4208   -0.2670   -0.4016   -0.0251
   22 H5     2s         0.0196    0.0093   -0.0202    0.0251    0.0139   -0.0481   -0.0698   -0.0414   -0.0502    0.0047
   23 H5     2px       -0.0000    0.0000   -0.0000   -0.0000    0.0000    0.0000    0.0000    0.0000    0.0000    0.0000
   24 H5     2py       -0.0000    0.0000   -0.0000   -0.0000   -0.0000    0.0000    0.0000    0.0000   -0.0000   -0.0000
   25 H5     2pz        0.0002   -0.0017   -0.0025   -0.0006    0.0036   -0.0027   -0.0008   -0.0007    0.0012    0.0010
   26 H6     1s         0.3199    0.0945   -0.2984    0.1955    0.2443   -0.3385    0.2310    0.4320    0.3482    0.3144
   27 H6     2s         0.0197    0.0101   -0.0205    0.0234    0.0199   -0.0457    0.0312    0.0762    0.0405    0.0513
   28 H6     2px       -0.0000   -0.0000   -0.0000    0.0000    0.0000    0.0000   -0.0000   -0.0000    0.0000   -0.0000
   29 H6     2py        0.0000    0.0000   -0.0000    0.0000    0.0000   -0.0000    0.0000   -0.0000    0.0000    0.0000
   30 H6     2pz        0.0003   -0.0020   -0.0010   -0.0032    0.0015    0.0035   -0.0001   -0.0009    0.0016   -0.0008
   31 H7     1s         0.3199   -0.0945   -0.2984   -0.1955    0.2443    0.3385    0.2310   -0.4320    0.3482   -0.3144
   32 H7     2s         0.0197   -0.0101   -0.0205   -0.0234    0.0199    0.0457    0.0312   -0.0762    0.0405   -0.0513
   33 H7     2px       -0.0000   -0.0000    0.0000    0.0000   -0.0000   -0.0000    0.0000    0.0000   -0.0000    0.0000
   34 H7     2py        0.0000    0.0000   -0.0000   -0.0000   -0.0000   -0.0000   -0.0000   -0.0000    0.0000    0.0000
   35 H7     2pz       -0.0003   -0.0020    0.0010   -0.0032   -0.0015    0.0035    0.0001   -0.0009   -0.0016   -0.0008
   36 H8     1s         0.3072   -0.1870   -0.2034   -0.3123    0.0507    0.3780   -0.4208    0.2670   -0.4016    0.0251
   37 H8     2s         0.0196   -0.0093   -0.0202   -0.0251    0.0139    0.0481   -0.0698    0.0414   -0.0502   -0.0047
   38 H8     2px       -0.0000   -0.0000    0.0000    0.0000    0.0000   -0.0000    0.0000   -0.0000    0.0000    0.0000
   39 H8     2py        0.0000   -0.0000    0.0000    0.0000   -0.0000   -0.0000   -0.0000   -0.0000   -0.0000   -0.0000
   40 H8     2pz       -0.0002   -0.0017    0.0025   -0.0006   -0.0036   -0.0027    0.0008   -0.0007   -0.0012    0.0010
   41 H9     1s         0.2679   -0.3074    0.0809   -0.2257   -0.3617   -0.2407    0.3162    0.0883   -0.2324    0.4251
   42 H9     2s         0.0158   -0.0227    0.0122   -0.0147   -0.0392   -0.0362    0.0554    0.0096   -0.0229    0.0602
   43 H9     2px        0.0000    0.0000    0.0000    0.0000    0.0000   -0.0000   -0.0000   -0.0000   -0.0000   -0.0000
   44 H9     2py        0.0000    0.0000   -0.0000    0.0000   -0.0000   -0.0000    0.0000    0.0000    0.0000    0.0000
   45 H9     2pz       -0.0008   -0.0008    0.0029    0.0020   -0.0016   -0.0036    0.0008    0.0003    0.0017   -0.0000
   46 H10    1s         0.2329   -0.3238    0.2074   -0.0591   -0.3081   -0.3408   -0.0375   -0.3164    0.3703   -0.3408
   47 H10    2s         0.0155   -0.0208    0.0098   -0.0149   -0.0395   -0.0419    0.0021   -0.0588    0.0485   -0.0437
   48 H10    2px        0.0000    0.0000    0.0000    0.0000   -0.0000    0.0000    0.0000    0.0000    0.0000   -0.0000
   49 H10    2py       -0.0000    0.0000    0.0000    0.0000    0.0000    0.0000    0.0000    0.0000    0.0000   -0.0000
   50 H10    2pz       -0.0007   -0.0001    0.0021    0.0036    0.0032    0.0014   -0.0006    0.0009    0.0007   -0.0008
   51 H11    1s         0.1601   -0.2858    0.3489    0.3347    0.2490    0.1234   -0.4026    0.4756    0.0935   -0.2502
   52 H11    2s         0.0089   -0.0191    0.0299    0.0379    0.0378    0.0254   -0.0541    0.0761    0.0006   -0.0231
   53 H11    2px        0.0000   -0.0000   -0.0000    0.0000   -0.0000   -0.0000   -0.0000    0.0000   -0.0000    0.0000
   54 H11    2py        0.0000    0.0000   -0.0000   -0.0000    0.0000    0.0000    0.0000   -0.0000    0.0000    0.0000
   55 H11    2pz       -0.0010    0.0009    0.0005    0.0026    0.0039    0.0033    0.0001    0.0006   -0.0019    0.0014
   56 H12    1s         0.1123   -0.2147    0.2950    0.3372    0.3210    0.2240    0.4171   -0.3825   -0.2491    0.3769
   57 H12    2s         0.0076   -0.0150    0.0216    0.0261    0.0265    0.0196    0.0483   -0.0468   -0.0259    0.0412
   58 H12    2px       -0.0000   -0.0000    0.0000   -0.0000    0.0000   -0.0000    0.0000   -0.0000    0.0000    0.0000
   59 H12    2py       -0.0000    0.0000    0.0000    0.0000   -0.0000    0.0000    0.0000   -0.0000   -0.0000    0.0000
   60 H12    2pz       -0.0014    0.0025   -0.0030   -0.0027   -0.0020   -0.0010   -0.0022    0.0026    0.0008   -0.0015
 
 
      Orbital               11        12        13        14        15        16        17        18        19        20
      Energy            0.0000    0.0000    0.3290    0.3382    0.3550    0.3812    0.4183    0.4675    0.5269    0.5981
      Occ. No.          0.4923    0.4643    0.0000    0.0000    0.0000    0.0000    0.0000    0.0000    0.0000    0.0000
 
    1 H1     1s         0.2900   -0.1564   -0.0602   -0.0933    0.0870   -0.0454    0.0185    0.0893    0.1464   -0.1800
    2 H1     2s         0.0373   -0.0208    0.1657    0.3018   -0.3957    0.4524    0.4817    0.4888    0.4595   -0.3998
    3 H1     2px        0.0000   -0.0000    0.0000    0.0000   -0.0000   -0.0000    0.0000   -0.0000   -0.0000   -0.0000
    4 H1     2py       -0.0000    0.0000    0.0000    0.0000   -0.0000   -0.0000   -0.0000   -0.0000   -0.0000   -0.0000
    5 H1     2pz        0.0024   -0.0014   -0.0134   -0.0226    0.0260   -0.0251   -0.0237   -0.0260   -0.0347    0.0532
    6 H2     1s        -0.4253    0.2516   -0.1127   -0.1716    0.1596   -0.1014   -0.0425   -0.0239   -0.0598    0.1354
    7 H2     2s        -0.0749    0.0467    0.1430    0.2240   -0.2117    0.1086   -0.0645   -0.2791   -0.4786    0.6274
    8 H2     2px       -0.0000    0.0000   -0.0000    0.0000   -0.0000   -0.0000   -0.0000   -0.0000    0.0000    0.0000
    9 H2     2py       -0.0000   -0.0000   -0.0000   -0.0000    0.0000    0.0000    0.0000    0.0000    0.0000    0.0000
   10 H2     2pz        0.0007   -0.0003    0.0000    0.0040   -0.0115    0.0178    0.0166    0.0046   -0.0142    0.0308
   11 H3     1s         0.4844   -0.3531   -0.1221   -0.1445    0.0588    0.0520    0.0958    0.0524   -0.0100   -0.0006
   12 H3     2s         0.0875   -0.0642    0.1885    0.2514   -0.1434   -0.0829   -0.3141   -0.4225   -0.3101   -0.0222
   13 H3     2px       -0.0000   -0.0000    0.0000    0.0000   -0.0000    0.0000   -0.0000    0.0000    0.0000   -0.0000
   14 H3     2py        0.0000   -0.0000    0.0000    0.0000   -0.0000   -0.0000    0.0000   -0.0000    0.0000    0.0000
   15 H3     2pz        0.0015   -0.0013   -0.0032    0.0004   -0.0087    0.0123    0.0066    0.0019    0.0193   -0.0769
   16 H4     1s        -0.4494    0.4167   -0.1396   -0.1297   -0.0066    0.1104    0.0853    0.0098    0.0183   -0.1000
   17 H4     2s        -0.0793    0.0782    0.2107    0.2052    0.0288   -0.2854   -0.3102   -0.0086    0.4186   -0.6142
   18 H4     2px        0.0000   -0.0000    0.0000   -0.0000   -0.0000   -0.0000   -0.0000   -0.0000    0.0000   -0.0000
   19 H4     2py       -0.0000    0.0000   -0.0000   -0.0000    0.0000   -0.0000    0.0000   -0.0000   -0.0000    0.0000
   20 H4     2pz        0.0013   -0.0010   -0.0013    0.0049   -0.0110    0.0047   -0.0073   -0.0041    0.0103    0.0211
   21 H5     1s         0.2932   -0.4701   -0.1511   -0.0811   -0.0956    0.1170   -0.0085   -0.0483    0.0155    0.0434
   22 H5     2s         0.0559   -0.0870    0.2271    0.1398    0.1725   -0.2978   -0.0027    0.4069    0.3476    0.2925
   23 H5     2px        0.0000   -0.0000    0.0000   -0.0000    0.0000   -0.0000   -0.0000    0.0000    0.0000   -0.0000
   24 H5     2py        0.0000    0.0000    0.0000   -0.0000   -0.0000   -0.0000    0.0000    0.0000   -0.0000    0.0000
   25 H5     2pz        0.0004   -0.0013   -0.0016    0.0062   -0.0092   -0.0035   -0.0114   -0.0019   -0.0138    0.0568
   26 H6     1s        -0.1240    0.4925   -0.1563   -0.0330   -0.1376    0.0561   -0.0797   -0.0343   -0.0166    0.0755
   27 H6     2s        -0.0190    0.0918    0.2358    0.0462    0.2666   -0.1197    0.3223    0.2517   -0.3842    0.4897
   28 H6     2px       -0.0000   -0.0000    0.0000    0.0000    0.0000    0.0000    0.0000    0.0000    0.0000   -0.0000
   29 H6     2py        0.0000    0.0000   -0.0000   -0.0000   -0.0000    0.0000   -0.0000    0.0000    0.0000   -0.0000
   30 H6     2pz        0.0007   -0.0012    0.0001    0.0077   -0.0025   -0.0124   -0.0049    0.0032   -0.0135   -0.0407
   31 H7     1s        -0.1241   -0.4925   -0.1563    0.0330   -0.1376   -0.0561   -0.0797    0.0343   -0.0166   -0.0755
   32 H7     2s        -0.0190   -0.0918    0.2358   -0.0462    0.2666    0.1197    0.3223   -0.2517   -0.3842   -0.4897
   33 H7     2px        0.0000    0.0000    0.0000   -0.0000    0.0000    0.0000    0.0000   -0.0000   -0.0000   -0.0000
   34 H7     2py       -0.0000   -0.0000   -0.0000   -0.0000   -0.0000   -0.0000    0.0000    0.0000    0.0000   -0.0000
   35 H7     2pz       -0.0007   -0.0012   -0.0001    0.0077    0.0025   -0.0124    0.0049    0.0032    0.0135   -0.0407
   36 H8     1s         0.2932    0.4701   -0.1511    0.0811   -0.0956   -0.1170   -0.0085    0.0483    0.0155   -0.0434
   37 H8     2s         0.0559    0.0870    0.2271   -0.1398    0.1725    0.2978   -0.0027   -0.4069    0.3476   -0.2925
   38 H8     2px        0.0000   -0.0000    0.0000   -0.0000    0.0000    0.0000   -0.0000   -0.0000    0.0000   -0.0000
   39 H8     2py        0.0000   -0.0000   -0.0000   -0.0000   -0.0000    0.0000    0.0000   -0.0000   -0.0000   -0.0000
   40 H8     2pz       -0.0004   -0.0013    0.0016    0.0062    0.0092   -0.0035    0.0114   -0.0019    0.0138    0.0568
   41 H9     1s        -0.4494   -0.4167   -0.1396    0.1297   -0.0066   -0.1104    0.0853   -0.0097    0.0183    0.1000
   42 H9     2s        -0.0793   -0.0782    0.2107   -0.2052    0.0288    0.2854   -0.3102    0.0086    0.4186    0.6142
   43 H9     2px       -0.0000    0.0000   -0.0000   -0.0000    0.0000    0.0000   -0.0000   -0.0000   -0.0000   -0.0000
   44 H9     2py        0.0000    0.0000   -0.0000   -0.0000   -0.0000   -0.0000    0.0000   -0.0000   -0.0000   -0.0000
   45 H9     2pz       -0.0013   -0.0010    0.0013    0.0049    0.0110    0.0047    0.0073   -0.0041   -0.0103    0.0211
   46 H10    1s         0.4844    0.3531   -0.1221    0.1445    0.0588   -0.0520    0.0958   -0.0524   -0.0100    0.0006
   47 H10    2s         0.0875    0.0642    0.1885   -0.2514   -0.1434    0.0829   -0.3141    0.4225   -0.3101    0.0222
   48 H10    2px        0.0000    0.0000   -0.0000   -0.0000    0.0000   -0.0000   -0.0000   -0.0000    0.0000    0.0000
   49 H10    2py        0.0000   -0.0000    0.0000   -0.0000    0.0000    0.0000   -0.0000   -0.0000   -0.0000    0.0000
   50 H10    2pz       -0.0015   -0.0013    0.0032    0.0004    0.0087    0.0123   -0.0066    0.0019   -0.0193   -0.0769
   51 H11    1s        -0.4253   -0.2516   -0.1127    0.1716    0.1596    0.1014   -0.0425    0.0239   -0.0598   -0.1354
   52 H11    2s        -0.0749   -0.0467    0.1430   -0.2240   -0.2117   -0.1086   -0.0645    0.2791   -0.4786   -0.6274
   53 H11    2px       -0.0000   -0.0000   -0.0000    0.0000   -0.0000   -0.0000    0.0000   -0.0000    0.0000   -0.0000
   54 H11    2py       -0.0000    0.0000   -0.0000   -0.0000    0.0000   -0.0000   -0.0000    0.0000   -0.0000   -0.0000
   55 H11    2pz       -0.0007   -0.0003   -0.0000    0.0040    0.0115    0.0178   -0.0166    0.0046    0.0142    0.0308
   56 H12    1s         0.2900    0.1564   -0.0602    0.0933    0.0870    0.0454    0.0185   -0.0893    0.1464    0.1800
   57 H12    2s         0.0373    0.0208    0.1657   -0.3018   -0.3957   -0.4524    0.4817   -0.4888    0.4595    0.3998
   58 H12    2px       -0.0000    0.0000   -0.0000    0.0000    0.0000   -0.0000   -0.0000    0.0000    0.0000   -0.0000
   59 H12    2py        0.0000    0.0000    0.0000   -0.0000    0.0000    0.0000   -0.0000    0.0000   -0.0000   -0.0000
   60 H12    2pz       -0.0024   -0.0014    0.0134   -0.0226   -0.0260   -0.0251    0.0237   -0.0260    0.0347    0.0532
 
 
      Orbital               21        22        23        24        25        26        27        28        29        30
      Energy            0.6597    0.6947    0.7004    0.7426    0.7431    0.7978    0.7978    0.8098    0.8098    0.8294
      Occ. No.          0.0000    0.0000    0.0000    0.0000    0.0000    0.0000    0.0000    0.0000    0.0000    0.0000
 
    1 H1     1s         0.1705   -0.0982   -0.0236    0.1878    0.1834    0.0000   -0.0000   -0.0000   -0.0000    0.0000
    2 H1     2s         0.3083   -0.1644   -0.0446    0.1819    0.1752   -0.0000   -0.0000   -0.0000   -0.0000   -0.0000
    3 H1     2px        0.0000   -0.0000    0.0000    0.0000   -0.0000    0.0807   -0.0274   -0.0094   -0.1671   -0.0948
    4 H1     2py        0.0000    0.0000    0.0000   -0.0000   -0.0000   -0.0274   -0.0807   -0.1671    0.0094   -0.2234
    5 H1     2pz       -0.0670    0.0303   -0.0132   -0.3424   -0.3396    0.0000    0.0000    0.0000   -0.0000    0.0000
    6 H2     1s        -0.1858    0.1411    0.0531   -0.1772   -0.1720   -0.0000   -0.0000    0.0000    0.0000    0.0000
    7 H2     2s        -0.6348    0.4133    0.1417   -0.4395   -0.4240    0.0000    0.0000    0.0000    0.0000    0.0000
    8 H2     2px        0.0000   -0.0000   -0.0000   -0.0000    0.0000    0.1580   -0.0537   -0.0168   -0.2984   -0.1432
    9 H2     2py       -0.0000    0.0000    0.0000   -0.0000   -0.0000   -0.0537   -0.1580   -0.2984    0.0168   -0.3374
   10 H2     2pz       -0.0373    0.0560    0.0554    0.3513    0.3510    0.0000   -0.0000   -0.0000   -0.0000   -0.0000
   11 H3     1s         0.0929   -0.1378   -0.0835    0.1637    0.1619   -0.0000   -0.0000   -0.0000   -0.0000   -0.0000
   12 H3     2s         0.3744   -0.4427   -0.2353    0.4512    0.4416   -0.0000   -0.0000   -0.0000   -0.0000   -0.0000
   13 H3     2px        0.0000    0.0000   -0.0000   -0.0000    0.0000    0.2273   -0.0772   -0.0204   -0.3626   -0.1196
   14 H3     2py        0.0000    0.0000    0.0000   -0.0000   -0.0000   -0.0772   -0.2273   -0.3626    0.0204   -0.2819
   15 H3     2pz        0.1534   -0.1911   -0.1319   -0.2305   -0.2321   -0.0000    0.0000    0.0000   -0.0000    0.0000
   16 H4     1s         0.0801    0.0482    0.0934   -0.1032   -0.1121    0.0000    0.0000    0.0000   -0.0000   -0.0000
   17 H4     2s         0.3123    0.1590    0.2686   -0.2676   -0.2875   -0.0000    0.0000    0.0000    0.0000    0.0000
   18 H4     2px       -0.0000    0.0000    0.0000   -0.0000   -0.0000    0.2828   -0.0961   -0.0193   -0.3427   -0.0359
   19 H4     2py       -0.0000    0.0000    0.0000   -0.0000   -0.0000   -0.0961   -0.2828   -0.3427    0.0193   -0.0845
   20 H4     2pz       -0.1527    0.2855    0.2306    0.0913    0.0868    0.0000    0.0000   -0.0000   -0.0000   -0.0000
   21 H5     1s        -0.1804    0.0929   -0.0731    0.0297    0.0537    0.0000   -0.0000   -0.0000   -0.0000   -0.0000
   22 H5     2s        -0.6910    0.2703   -0.2144    0.0608    0.1261   -0.0000   -0.0000    0.0000    0.0000    0.0000
   23 H5     2px       -0.0000    0.0000    0.0000   -0.0000   -0.0000    0.3222   -0.1094   -0.0137   -0.2433    0.0667
   24 H5     2py       -0.0000    0.0000    0.0000    0.0000   -0.0000   -0.1094   -0.3222   -0.2433    0.0137    0.1571
   25 H5     2pz        0.0173   -0.2588   -0.3238   -0.0108    0.0141    0.0000   -0.0000   -0.0000   -0.0000   -0.0000
   26 H6     1s         0.0947   -0.1908    0.0286    0.0140   -0.0147    0.0000    0.0000   -0.0000   -0.0000   -0.0000
   27 H6     2s         0.3514   -0.5880    0.0803    0.0621   -0.0298    0.0000   -0.0000   -0.0000   -0.0000   -0.0000
   28 H6     2px       -0.0000   -0.0000    0.0000    0.0000   -0.0000    0.3423   -0.1163   -0.0050   -0.0882    0.1349
   29 H6     2py       -0.0000    0.0000    0.0000    0.0000   -0.0000   -0.1163   -0.3423   -0.0882    0.0050    0.3178
   30 H6     2pz        0.1222    0.1042    0.3803   -0.0050   -0.0592   -0.0000    0.0000    0.0000   -0.0000    0.0000
   31 H7     1s         0.0947    0.1908    0.0286   -0.0140   -0.0147   -0.0000   -0.0000    0.0000    0.0000   -0.0000
   32 H7     2s         0.3514    0.5880    0.0803   -0.0621   -0.0298   -0.0000   -0.0000    0.0000    0.0000    0.0000
   33 H7     2px       -0.0000    0.0000    0.0000   -0.0000   -0.0000    0.3423   -0.1163    0.0050    0.0882    0.1349
   34 H7     2py        0.0000   -0.0000    0.0000    0.0000   -0.0000   -0.1163   -0.3423    0.0882   -0.0050    0.3178
   35 H7     2pz       -0.1222    0.1042   -0.3803   -0.0050    0.0592    0.0000   -0.0000   -0.0000    0.0000   -0.0000
   36 H8     1s        -0.1804   -0.0929   -0.0731   -0.0297    0.0537    0.0000    0.0000    0.0000    0.0000   -0.0000
   37 H8     2s        -0.6910   -0.2703   -0.2144   -0.0608    0.1261   -0.0000    0.0000   -0.0000   -0.0000   -0.0000
   38 H8     2px       -0.0000   -0.0000   -0.0000    0.0000   -0.0000    0.3222   -0.1094    0.0137    0.2433    0.0667
   39 H8     2py        0.0000   -0.0000    0.0000    0.0000   -0.0000   -0.1094   -0.3222    0.2433   -0.0137    0.1571
   40 H8     2pz       -0.0173   -0.2588    0.3238   -0.0108   -0.0141   -0.0000    0.0000   -0.0000   -0.0000   -0.0000
   41 H9     1s         0.0801   -0.0482    0.0934    0.1032   -0.1121    0.0000   -0.0000    0.0000   -0.0000   -0.0000
   42 H9     2s         0.3123   -0.1590    0.2686    0.2676   -0.2875   -0.0000   -0.0000    0.0000    0.0000   -0.0000
   43 H9     2px        0.0000   -0.0000    0.0000    0.0000   -0.0000    0.2828   -0.0961    0.0193    0.3427   -0.0359
   44 H9     2py       -0.0000    0.0000    0.0000   -0.0000   -0.0000   -0.0961   -0.2828    0.3427   -0.0193   -0.0845
   45 H9     2pz        0.1527    0.2855   -0.2306    0.0913   -0.0868    0.0000    0.0000    0.0000   -0.0000    0.0000
   46 H10    1s         0.0929    0.1378   -0.0835   -0.1637    0.1619   -0.0000    0.0000    0.0000   -0.0000   -0.0000
   47 H10    2s         0.3744    0.4427   -0.2353   -0.4512    0.4416    0.0000   -0.0000    0.0000   -0.0000    0.0000
   48 H10    2px        0.0000    0.0000    0.0000   -0.0000   -0.0000    0.2273   -0.0772    0.0204    0.3626   -0.1196
   49 H10    2py       -0.0000    0.0000    0.0000   -0.0000   -0.0000   -0.0772   -0.2273    0.3626   -0.0204   -0.2819
   50 H10    2pz       -0.1534   -0.1911    0.1319   -0.2306    0.2321   -0.0000   -0.0000   -0.0000    0.0000    0.0000
   51 H11    1s        -0.1858   -0.1411    0.0531    0.1772   -0.1720   -0.0000   -0.0000    0.0000   -0.0000    0.0000
[...]
   53 H11    2px       -0.0000   -0.0000    0.0000    0.0000    0.0000   -0.0000   -0.0000   -0.0000    0.0000   -0.0000
   54 H11    2py       -0.0000    0.0000    0.0000   -0.0000   -0.0000   -0.0000    0.0000    0.0000    0.0000   -0.0000
   55 H11    2pz        0.2226    0.0570   -0.2568   -0.1479    0.1416   -0.3466    0.4777   -0.5071   -0.4233    0.2406
   56 H12    1s         0.1307    0.1763   -0.1611   -0.1090   -0.1687    0.1491   -0.1336    0.1131    0.0833   -0.0444
   57 H12    2s         0.2223    0.3200   -0.2656   -0.1754   -0.2822    0.2170   -0.1637    0.1174    0.0758   -0.0372
   58 H12    2px        0.0000    0.0000    0.0000   -0.0000   -0.0000    0.0000    0.0000    0.0000   -0.0000   -0.0000
   59 H12    2py        0.0000    0.0000   -0.0000   -0.0000    0.0000    0.0000    0.0000   -0.0000   -0.0000    0.0000
   60 H12    2pz       -0.1400   -0.3961    0.1674    0.1215    0.4303   -0.4151    0.3739   -0.3077   -0.2194    0.1142
--
 
      Von Neumann Entropy (Root  1) =  5.22297
 

      Mulliken population analysis for root number:  1
      -----------------------------------------------
 
 
++    Molecular charges:
      ------------------
 
      Mulliken charges per centre and basis function type
      ---------------------------------------------------
 
                H1      H2      H3      H4      H5      H6      H7      H8      H9      H10     H11     H12   
      1s       0.9866  1.0019  1.0016  1.0008  1.0012  1.0010  1.0010  1.0012  1.0008  1.0016  1.0019  0.9866
      2s       0.0076  0.0017 -0.0035 -0.0023 -0.0029 -0.0026 -0.0026 -0.0029 -0.0023 -0.0035  0.0017  0.0076
      2px      0.0000  0.0000  0.0000  0.0000  0.0000  0.0000  0.0000  0.0000  0.0000  0.0000  0.0000  0.0000
      2pz      0.0006  0.0018  0.0016  0.0016  0.0016  0.0016  0.0016  0.0016  0.0016  0.0016  0.0018  0.0006
      2py      0.0000  0.0000  0.0000  0.0000  0.0000  0.0000  0.0000  0.0000  0.0000  0.0000  0.0000  0.0000
      Total    0.9948  1.0054  0.9997  1.0001  0.9999  1.0000  1.0000  0.9999  1.0001  0.9997  1.0054  0.9948
 
      N-E      0.0052 -0.0054  0.0003 -0.0001  0.0001 -0.0000 -0.0000  0.0001 -0.0001  0.0003 -0.0054  0.0052
 
      Total electronic charge=   12.000000
 
      Total            charge=   -0.000000
--
 
 

      Expectation values of various properties for root number:  1
      -----------------------------------------------------------
 
 
++    Molecular properties:
      ---------------------
 
      Charge (e):
                      =   -0.0000
      Dipole Moment (Debye):
      Origin of the operator (Ang)=    0.0000    0.0000    0.0000
                   X=  3.8262E-13               Y= -2.1184E-13               Z=  2.3791E-08           Total=  2.3791E-08
      Quadrupole Moment (Debye*Ang):
      Origin of the operator (Ang)=    0.0000    0.0000   12.2333
                  XX= -1.8436E+01              XY=  1.1116E-27              XZ=  5.7643E-13              YY= -1.8436E+01
                  YZ= -6.6292E-13              ZZ= -1.5711E+01
      In traceless form (Debye*Ang)
                  XX= -1.3626E+00              XY=  1.6675E-27              XZ=  8.6464E-13              YY= -1.3626E+00
                  YZ= -9.9439E-13              ZZ=  2.7251E+00
--
 

      LoProp population analysis for root number:  1
      -----------------------------------------------
 
 
++    LoProp analysis:
      ----------------
 
 
 
  Input file to MOLDEN was generated!
 
 
++    Static properties:
      ------------------
 
 
      LoProp Charges per center
 

                   H1       H2       H3       H4       H5       H6       H7       H8       H9       H10   
      Nuclear      1.0000   1.0000   1.0000   1.0000   1.0000   1.0000   1.0000   1.0000   1.0000   1.0000
      Electronic  -1.0000  -1.0000  -0.9998  -1.0001  -1.0000  -1.0000  -1.0000  -1.0000  -1.0001  -0.9998
 
      Total       -0.0000  -0.0000   0.0002  -0.0001   0.0000  -0.0000  -0.0000   0.0000  -0.0001   0.0002
 

                   H11      H12   
      Nuclear      1.0000   1.0000
      Electronic  -1.0000  -1.0000
 
      Total       -0.0000  -0.0000
--
 
 
      Natural Bond Order analysis for root number:  1
 
++    Natural Bond Order analysis
      ---------------------------
      Based on LoProp computed density
      -------------------------------------------------------------------------------------
      Atom A       Atom B       Bond Order
      -------------------------------------------------------------------------------------
      The remaining   12.000 electrons are to be considered as diffuse
--
 
--
 
 
  Input file to MOLDEN was generated!
 
      Average orbitals are written to the RASORB file
      Natural orbitals for root   1 are written to the RASORB.1 file
      Spin density orbitals for root   1 are written to the SPDORB.1 file
 
--- Stop Module: rasscf at Tue Nov 19 03:38:04 2024 /rc=_RC_ALL_IS_WELL_ ---
*** files: H12_2.22.LprOrb H12_2.22.rasscf.molden H12_2.22.LoProp.molden H12_2.22.RasOrb H12_2.22.RasOrb.1 H12_2.22.rasscf.h5 H12_2.22.SpdOrb.1 xmldump
    saved to directory /home/grierjones/DDCASPT2/hydrogen_comps/H12_chain/H12_2.22
--- Module rasscf spent 2 minutes 46 seconds ---

>>> COPY /tmp/H12_2.22/H12_2.22.rasscf.h5 /home/grierjones/DDCASPT2/hydrogen_comps/H12_chain/H12_2.22/

>>> COPY /tmp/H12_2.22/GMJ_Fock_MO.csv /home/grierjones/DDCASPT2/hydrogen_comps/H12_chain/H12_2.22/H12_2.22.GMJ_Fock_MO.csv

>>> COPY /tmp/H12_2.22/GMJ_PT2_Fock_MO.csv /home/grierjones/DDCASPT2/hydrogen_comps/H12_chain/H12_2.22/H12_2.22.GMJ_PT2_Fock_MO.csv

*** symbolic link created: INPORB -> H12_2.22.RasOrb
--- Start Module: motra at Tue Nov 19 03:38:04 2024 ---
 
()()()()()()()()()()()()()()()()()()()()()()()()()()()()()()()()()()()()()()()()()()()()()()()()()()

                                               &MOTRA

                                   only a single process is used
                       available to each process: 2.0 GB of memory, 1 thread?
()()()()()()()()()()()()()()()()()()()()()()()()()()()()()()()()()()()()()()()()()()()()()()()()()()
 
 
      *** WARNING: Default frozen orbitals is overwritten by user input.
      *** Default values:   0
 
      Header of the integral files:
      
       Integrals generated by seward 4.2.0  , Tue Nov 19 03:35:16 2024
 
 
      Header of MO coefficients source file:
      * RASSCF average (pseudo-natural) orbitals                                      
 
 
      Cartesian coordinates in Angstrom:
      -----------------------------------------------------
      No.  Label        X            Y            Z        
      -----------------------------------------------------
       1   H1         0.00000000   0.00000000   0.00000000
       2   H2         0.00000000   0.00000000   2.22424200
       3   H3         0.00000000   0.00000000   4.44848500
       4   H4         0.00000000   0.00000000   6.67272700
       5   H5         0.00000000   0.00000000   8.89697000
       6   H6         0.00000000   0.00000000  11.12121200
       7   H7         0.00000000   0.00000000  13.34545500
       8   H8         0.00000000   0.00000000  15.56969700
       9   H9         0.00000000   0.00000000  17.79393900
      10   H10        0.00000000   0.00000000  20.01818200
      11   H11        0.00000000   0.00000000  22.24242400
      12   H12        0.00000000   0.00000000  24.46666700
      -----------------------------------------------------
      Nuclear repulsion energy =    6.00458549
 
      Orbital specifications:
      -----------------------
 
      Symmetry species:              1
      Number of basis functions:    60
      Frozen orbitals:               0
      Deleted orbitals:              0
      Number of orbitals used:      60

       SYMMETRY  BASIS FUNCTIONS       ORBITALS      INTEGRALS   CPU(SEC)  I/O(SEC)
 
        1 1 1 1   60  60  60  60    60  60  60  60     1675365       0.00      0.00

       TOTAL CPU TIME(SEC)    0.78TOTAL I/O TIME(SEC)    2.16
 
--- Stop Module: motra at Tue Nov 19 03:38:07 2024 /rc=_RC_ALL_IS_WELL_ ---
*** files: xmldump
    saved to directory /home/grierjones/DDCASPT2/hydrogen_comps/H12_chain/H12_2.22
--- Module motra spent 2 seconds ---

>>> COPY /tmp/H12_2.22/GMJ_one_int_indx.csv /home/grierjones/DDCASPT2/hydrogen_comps/H12_chain/H12_2.22/H12_2.22.GMJ_one_int_indx.csv

>>> COPY /tmp/H12_2.22/GMJ_one_int.csv /home/grierjones/DDCASPT2/hydrogen_comps/H12_chain/H12_2.22/H12_2.22.GMJ_one_int.csv

>>> COPY /tmp/H12_2.22/GMJ_two_int_indx.csv /home/grierjones/DDCASPT2/hydrogen_comps/H12_chain/H12_2.22/H12_2.22.GMJ_two_int_indx.csv

>>> COPY /tmp/H12_2.22/GMJ_two_int.csv /home/grierjones/DDCASPT2/hydrogen_comps/H12_chain/H12_2.22/H12_2.22.GMJ_two_int.csv

*** symbolic link created: INPORB -> H12_2.22.RasOrb
--- Start Module: caspt2 at Tue Nov 19 03:38:07 2024 ---
 
()()()()()()()()()()()()()()()()()()()()()()()()()()()()()()()()()()()()()()()()()()()()()()()()()()

                                              &CASPT2

                                   only a single process is used
                       available to each process: 2.0 GB of memory, 1 thread?
()()()()()()()()()()()()()()()()()()()()()()()()()()()()()()()()()()()()()()()()()()()()()()()()()()
 
 Cholesky algorithm in CASPT2 =    1
 
 ###############################################################################
 ###############################################################################
 ###                                                                         ###
 ###                                                                         ###
 ###    User changed nr of frozen orbitals.                                  ###
 ###                                                                         ###
 ###                                                                         ###
 ###############################################################################
 ###############################################################################
 
++    Wave function specifications:
      -----------------------------
 
      Number of closed shell electrons           0
      Number of electrons in active shells      12
      Max number of holes in RAS1 space          0
      Max number of electrons in RAS3 space      0
      Number of inactive orbitals                0
      Number of active orbitals                 12
      Number of secondary orbitals              48
      Spin quantum number                      0.0
      State symmetry                             1
      Number of CSFs                        226512
      Number of root(s) available                1
      Root passed to geometry opt.               1
      A file JOBMIX will be created.
      This is a CASSCF or RASSCF reference function
--
 
++    Orbital specifications:
      -----------------------
 
      Symmetry species                           1
                                                 a
      Frozen orbitals                            0
      Inactive orbitals                          0
      Active orbitals                           12
      Secondary orbitals                        48
      Deleted orbitals                           0
      Number of basis functions                 60
--
 
      Type of Fock operator: STANDARD
      Type of 0-order Hamiltonian: STANDARD WITH DEFAULT IPEA
        "IP-EA" denominator shift =      0.25
      The input orbitals and the CI vector will be transformed.
 
--------------------------------------------------------------------------------
 Estimated memory requirements:
  POLY3 :                 54392696
  RHS:                     1916944
  SIGMA :                   616912
  PRPCTL:                        0
 Available workspace:    230179958
 
++ CASPT2 computation for group   1
 
********************************************************************************
 Multi-State initialization phase begins for group   1
--------------------------------------------------------------------------------
********************************************************************************
 Compute H0 matrices for state    1
--------------------------------------------------------------------------------
--------------------------------------------------------------------------------
 H0 matrices have been computed.
 
********************************************************************************
  CASPT2 EQUATION SOLUTION
--------------------------------------------------------------------------------
 
  Total nr of CASPT2 parameters:
   Before reduction:      249120
   After  reduction:      248544
 
 The contributions to the second order correlation energy in atomic units.
-----------------------------------------------------------------------------------------------------------------------------
  IT.      VJTU        VJTI        ATVX        AIVX        VJAI        BVAT        BJAT        BJAI        TOTAL       RNORM  
-----------------------------------------------------------------------------------------------------------------------------
   1     0.000000    0.000000   -0.003672    0.000000    0.000000   -0.007977    0.000000    0.000000   -0.011649    0.001577
   2     0.000000    0.000000   -0.003704    0.000000    0.000000   -0.007987    0.000000    0.000000   -0.011691    0.000320
   3     0.000000    0.000000   -0.003712    0.000000    0.000000   -0.007990    0.000000    0.000000   -0.011701    0.000095
   4     0.000000    0.000000   -0.003708    0.000000    0.000000   -0.007990    0.000000    0.000000   -0.011698    0.000020
   5     0.000000    0.000000   -0.003708    0.000000    0.000000   -0.007990    0.000000    0.000000   -0.011698    0.000005
-------------------------------------------------------------------------------------------------------------------
 
  FINAL CASPT2 RESULT:
 
  Correlation energy /Case, /Symm, and sums:
 VJTU      0.00000000  0.00000000
 VJTIP     0.00000000  0.00000000
 VJTIM     0.00000000  0.00000000
 ATVX     -0.00370831 -0.00370831
 AIVX      0.00000000  0.00000000
 VJAIP     0.00000000  0.00000000
 VJAIM     0.00000000  0.00000000
 BVATP    -0.00741484 -0.00741484
 BVATM    -0.00057488 -0.00057488
 BJATP     0.00000000  0.00000000
 BJATM     0.00000000  0.00000000
 BJAIP     0.00000000  0.00000000
 BJAIM     0.00000000  0.00000000
 Summed:  -0.01169803 -0.01169803
 
      Reference energy:          -6.0376963094
      E2 (Non-variational):      -0.0116980283
      E2 (Variational):          -0.0116980281
      Total energy:              -6.0493943375
      Residual norm:              0.0000008012
      Reference weight:           0.99245
 
      Contributions to the CASPT2 correlation energy
      Active & Virtual Only:         -0.0116980283
      One Inactive Excited:           0.0000000000
      Two Inactive Excited:           0.0000000000
 
 
++ Denominators, etc.
----------------------------------------------------------------------------------------------------
 Report on small energy denominators, large coefficients, and large energy contributions.
CASE  SYMM ACTIVE-MIX  NON-ACTIVE INDICES          DENOMINATOR     RHS VALUE       COEFFICIENT     CONTRIBUTION
ATVX     1  Mu1.0001  Se1.013                       0.23496176      0.00000000     -0.00000000     -0.00000000
ATVX     1  Mu1.0002  Se1.013                       0.25412838     -0.00004662      0.00033135     -0.00000002
ATVX     1  Mu1.0003  Se1.013                       0.27870883      0.00000000     -0.00000000     -0.00000000
ATVX     1  Mu1.0001  Se1.014                       0.24418564     -0.00003209      0.00026559     -0.00000001
ATVX     1  Mu1.0002  Se1.014                       0.26335225      0.00000000     -0.00000000     -0.00000000
ATVX     1  Mu1.0003  Se1.014                       0.28793271     -0.00006126      0.00069080     -0.00000004
ATVX     1  Mu1.0001  Se1.015                       0.26101051     -0.00000000      0.00000000     -0.00000000
ATVX     1  Mu1.0002  Se1.015                       0.28017712      0.00001531     -0.00046295     -0.00000001
ATVX     1  Mu1.0001  Se1.016                       0.28716090      0.00005822      0.00003278      0.00000000
--
 
   (Skipping property calculation,
    use PROP keyword to activate)
--
 
  Total CASPT2 energies:
::    CASPT2 Root  1     Total energy:     -6.04939434
 
  A NEW JOBIPH FILE NAMED 'JOBMIX' IS PREPARED.
********************************************************************************
--- Stop Module: caspt2 at Tue Nov 19 03:39:07 2024 /rc=_RC_ALL_IS_WELL_ ---
*** files: xmldump
    saved to directory /home/grierjones/DDCASPT2/hydrogen_comps/H12_chain/H12_2.22
--- Module caspt2 spent 59 seconds ---

>>> EXPORT i = B

>>> EXPORT j = P

>>> IF (-FILE GMJ_e2_${i}_${j}.csv)
(Skipped)

>>> END FOREACH

>>> EXPORT j = M

>>> IF (-FILE GMJ_e2_${i}_${j}.csv)
(Skipped)

>>> END FOREACH

>>> END FOREACH

>>> EXPORT i = E

>>> EXPORT j = P

>>> IF (-FILE GMJ_e2_${i}_${j}.csv)
(Skipped)

>>> END FOREACH

>>> EXPORT j = M

>>> IF (-FILE GMJ_e2_${i}_${j}.csv)
(Skipped)

>>> END FOREACH

>>> END FOREACH

>>> EXPORT i = F

>>> EXPORT j = P

>>> IF (-FILE GMJ_e2_${i}_${j}.csv)

>>> COPY /tmp/H12_2.22/GMJ_RHS_F_P.csv /home/grierjones/DDCASPT2/hydrogen_comps/H12_chain/H12_2.22/GMJ_RHS_F_P.csv

>>> COPY /tmp/H12_2.22/GMJ_IVECW_F_P.csv /home/grierjones/DDCASPT2/hydrogen_comps/H12_chain/H12_2.22/GMJ_IVECW_F_P.csv

>>> COPY /tmp/H12_2.22/GMJ_IVECX_F_P.csv /home/grierjones/DDCASPT2/hydrogen_comps/H12_chain/H12_2.22/GMJ_IVECX_F_P.csv

>>> COPY /tmp/H12_2.22/GMJ_IVECC2_F_P.csv /home/grierjones/DDCASPT2/hydrogen_comps/H12_chain/H12_2.22/GMJ_IVECC2_F_P.csv

>>> COPY /tmp/H12_2.22/GMJ_e2_F_P.csv /home/grierjones/DDCASPT2/hydrogen_comps/H12_chain/H12_2.22/GMJ_e2_F_P.csv

>>> END FOREACH

>>> EXPORT j = M

>>> IF (-FILE GMJ_e2_${i}_${j}.csv)

>>> COPY /tmp/H12_2.22/GMJ_RHS_F_M.csv /home/grierjones/DDCASPT2/hydrogen_comps/H12_chain/H12_2.22/GMJ_RHS_F_M.csv

>>> COPY /tmp/H12_2.22/GMJ_IVECW_F_M.csv /home/grierjones/DDCASPT2/hydrogen_comps/H12_chain/H12_2.22/GMJ_IVECW_F_M.csv

>>> COPY /tmp/H12_2.22/GMJ_IVECX_F_M.csv /home/grierjones/DDCASPT2/hydrogen_comps/H12_chain/H12_2.22/GMJ_IVECX_F_M.csv

>>> COPY /tmp/H12_2.22/GMJ_IVECC2_F_M.csv /home/grierjones/DDCASPT2/hydrogen_comps/H12_chain/H12_2.22/GMJ_IVECC2_F_M.csv

>>> COPY /tmp/H12_2.22/GMJ_e2_F_M.csv /home/grierjones/DDCASPT2/hydrogen_comps/H12_chain/H12_2.22/GMJ_e2_F_M.csv

>>> END FOREACH

>>> END FOREACH

>>> EXPORT i = G

>>> EXPORT j = P

>>> IF (-FILE GMJ_e2_${i}_${j}.csv)
(Skipped)

>>> END FOREACH

>>> EXPORT j = M

>>> IF (-FILE GMJ_e2_${i}_${j}.csv)
(Skipped)

>>> END FOREACH

>>> END FOREACH

>>> EXPORT i = H

>>> EXPORT j = P

>>> IF (-FILE GMJ_e2_${i}_${j}.csv)
(Skipped)

>>> END FOREACH

>>> EXPORT j = M

>>> IF (-FILE GMJ_e2_${i}_${j}.csv)
(Skipped)

>>> END FOREACH

>>> END FOREACH

>>> EXPORT i = A

>>> IF (-FILE GMJ_e2_$i.csv)
(Skipped)

>>> END FOREACH

>>> EXPORT i = C

>>> IF (-FILE GMJ_e2_$i.csv)

>>> COPY /tmp/H12_2.22/GMJ_RHS_C.csv /home/grierjones/DDCASPT2/hydrogen_comps/H12_chain/H12_2.22/GMJ_RHS_C.csv

>>> COPY /tmp/H12_2.22/GMJ_IVECW_C.csv /home/grierjones/DDCASPT2/hydrogen_comps/H12_chain/H12_2.22/GMJ_IVECW_C.csv

>>> COPY /tmp/H12_2.22/GMJ_IVECX_C.csv /home/grierjones/DDCASPT2/hydrogen_comps/H12_chain/H12_2.22/GMJ_IVECX_C.csv

>>> COPY /tmp/H12_2.22/GMJ_IVECC2_C.csv /home/grierjones/DDCASPT2/hydrogen_comps/H12_chain/H12_2.22/GMJ_IVECC2_C.csv

>>> COPY /tmp/H12_2.22/GMJ_e2_C.csv /home/grierjones/DDCASPT2/hydrogen_comps/H12_chain/H12_2.22/GMJ_e2_C.csv

>>> END FOREACH

>>> EXPORT i = D

>>> IF (-FILE GMJ_e2_$i.csv)
(Skipped)

>>> END FOREACH

.########################.
.# Non-zero return code #.
.########################.

    Timing: Wall=230.37 User=227.00 System=3.32
****************************************
*** WorkDir at /tmp/H12_2.22 cleaned ***
****************************************
