   This run of MOLCAS is using the pymolcas driver

                             OPE
                             OPE          NMOL  CASOP  ENMOLC A   SO
                 OPE        NMOLC        AS  OP EN  MO LC     AS  OP
                OPENM       OL CA        SO  PE NM  OL CA     SOP EN
                OP EN      MO   LC       AS  OP ENMOL  CASO   PENMOL
                OP  EN     MO   LC       AS  OP EN     MO     LC ASO
               OP   E  NMOL  C  AS       OP  EN MO     LC     AS  OP
               OP  E   NMO   LC AS        OPEN  MO     LCASOP EN   M
               O  PEN   MO  LCA  SO
            OPE   NMO   L   CAS    OP
        OPENMOL  CASOP     ENMOL   CASOPE
     OPENMOLCA   SOPENMOLCASOPEN   MOLCASOPE
    OPENMOLCAS   OP           EN   MOL    CAS
    OPENMOLCAS       OP  ENM        O     LCA
    OPENMOLCAS    OPEN  MOLCASO     P  E  NMO
    OPENMOLCAS     OP               E  N  MOL
    OPENMOLCA   SO           PENM   O  L  CAS    OPEN    MO    LCAS
    OPENMOLCA   SOP           ENM   O  L  CAS   OP  EN  MOLC  AS   O
    OPENMOLCA   SOPE           NM      O  LCA   S      OP  EN MO
    OPENMOLC                AS         O  PEN   M      OL  CA  SOPE
    OPENMO        LCASOPE  NMOL        C  ASO   P      ENMOLC     AS
    OPE     NMO      LCA  SO     P     E   NM   OL  CA SO  PE N   MO
          OPENMOLCA            SOPE   NMO        LCAS  O    P  ENMO
     OPENMOLCASOPENMOLCASOPENMOLCASOPENMOLCA
        OPENMOLCASOPENMOLCASOPENMOLCASOPE
            OPENMOLCASOPENMOLCASOPENM
               OPENMOLCASOPENMOLCA        version: ea724fe96-dirty
                   OPENMOLCASO
                       OPE                tag:

 OpenMolcas is free software; you can redistribute it and/or modify it
 under the terms of the GNU Lesser General Public License version 2.1.
 OpenMolcas is distributed in the hope that it will be useful, but it
 is provided "as is" and without any express or implied warranties.
 For more details see the full text of the license in the file
 LICENSE or in <http://www.gnu.org/licenses/>.

                 Copyright (C) The OpenMolcas Authors
           For the author list and the recommended citation,
                   consult the file CONTRIBUTORS.md

           *************************************************
           * pymolcas version py2.28                       *
           *   build c4a6d18ded8cb6cad61d2372a9abd97c      *
           *   (after the EMIL interpreter by V. Veryazov) *
           *************************************************

configuration info
------------------
C Compiler ID: Intel
C flags: -std=gnu99
Fortran Compiler ID: Intel
Fortran flags: -fpp -i8 -r8 -heap-arrays
Definitions: _MOLCAS_;_I8_;_LINUX_
Parallel: OFF (GA=OFF)


   -------------------------------------------------------------------------------
  |
  |              Project: 2.10
  |       Submitted from: /home/grierjones/DDCASPT2/iron_oxo_DDCASPT2/cluster/2.10
  |         Scratch area: /tmp/2.10
  |      Save outputs to: /home/grierjones/DDCASPT2/iron_oxo_DDCASPT2/cluster/2.10
  |               Molcas: /home/grierjones/Test/build
  |
  | Scratch area is empty
  |
  |       MOLCAS_DRIVER = /usr/local/pymolcas
  | MOLCAS_KEEP_WORKDIR = NO
  |  MOLCAS_NEW_WORKDIR = YES
  |       MOLCAS_NPROCS = 1
  |        MOLCAS_PRINT = NORMAL
  |       MOLCAS_SOURCE = /home/grierjones/Test/build
  |    MOLCAS_STRUCTURE = 0
  |
   -------------------------------------------------------------------------------

++ ---------   Input file   ---------

&GATEWAY
coord=2.10.xyz
Basis = ANO-RCC-VDZP
Group = nosymm
Expert
End of Input

&SEWARD
End of Input

&SCF
UHF
charge
2
spin
5

>>> COPY $WorkDir/2.10.scf.h5 $CurrDir/

&RASSCF
Title= RASSCF
FileOrb
/home/grierjones/DDCASPT2/iron_oxo_DDCASPT2/cluster/2.09/2.09.RasOrb
NACTEL
10 0 0
RAS2
14
Symmetry
1
Spin
5
charge
2
orblisting
all
ITERation
300 200

>>> COPY $WorkDir/2.10.rasscf.h5 $CurrDir/

>>> COPY $WorkDir/GMJ_Fock_MO.csv $CurrDir/2.10.GMJ_Fock_MO.csv

>>> COPY $WorkDir/GMJ_PT2_Fock_MO.csv $CurrDir/2.10.GMJ_PT2_Fock_MO.csv

&MOTRA
Frozen=0
LUMORB

>>> COPY $WorkDir/GMJ_one_int_indx.csv $CurrDir/2.10.GMJ_one_int_indx.csv

>>> COPY $WorkDir/GMJ_one_int.csv $CurrDir/2.10.GMJ_one_int.csv

>>> COPY $WorkDir/GMJ_two_int_indx.csv $CurrDir/2.10.GMJ_two_int_indx.csv

>>> COPY $WorkDir/GMJ_two_int.csv $CurrDir/2.10.GMJ_two_int.csv

&CASPT2
Frozen
0
MAXITER
50

>>> FOREACH i IN (B,E,F,G,H)

  >>> FOREACH j IN (P,M)

    >>> IF (-FILE GMJ_e2_${i}_${j}.csv)

      >>> COPY $WorkDir/GMJ_RHS_${i}_${j}.csv $CurrDir/GMJ_RHS_${i}_${j}.csv

      >>> COPY $WorkDir/GMJ_IVECW_${i}_${j}.csv $CurrDir/GMJ_IVECW_${i}_${j}.csv

      >>> COPY $WorkDir/GMJ_IVECX_${i}_${j}.csv $CurrDir/GMJ_IVECX_${i}_${j}.csv

      >>> COPY $WorkDir/GMJ_IVECC2_${i}_${j}.csv $CurrDir/GMJ_IVECC2_${i}_${j}.csv

      >>> COPY $WorkDir/GMJ_e2_${i}_${j}.csv $CurrDir/GMJ_e2_${i}_${j}.csv

    >>> END IF

  >>> END FOREACH

>>> END FOREACH

>>> FOREACH i IN (A,C,D)

  >>> IF (-FILE GMJ_e2_$i.csv)

    >>> COPY $WorkDir/GMJ_RHS_$i.csv $CurrDir/GMJ_RHS_$i.csv

    >>> COPY $WorkDir/GMJ_IVECW_$i.csv $CurrDir/GMJ_IVECW_$i.csv

    >>> COPY $WorkDir/GMJ_IVECX_$i.csv $CurrDir/GMJ_IVECX_$i.csv

    >>> COPY $WorkDir/GMJ_IVECC2_$i.csv $CurrDir/GMJ_IVECC2_$i.csv

    >>> COPY $WorkDir/GMJ_e2_$i.csv $CurrDir/GMJ_e2_$i.csv

  >>> END IF

>>> END FOREACH

-- ----------------------------------

--- Start Module: gateway at Sun Dec 22 21:57:10 2024 ---
 
()()()()()()()()()()()()()()()()()()()()()()()()()()()()()()()()()()()()()()()()()()()()()()()()()()

                                              &GATEWAY

                                   only a single process is used
                       available to each process: 2.0 GB of memory, 1 thread?
()()()()()()()()()()()()()()()()()()()()()()()()()()()()()()()()()()()()()()()()()()()()()()()()()()
 
 ###############################################################################
 ###############################################################################
 ###                                                                         ###
 ###                                                                         ###
 ###                                                                         ###
 ###    WARNING: EXPERT option is ON!                                        ###
 ###                                                                         ###
 ###                                                                         ###
 ###############################################################################
 ###############################################################################
 
++    Symmetry information:
      ---------------------
 
                    Character Table for C1 
 
                             E  
                    a        1  x, y, xy, Rz, z, xz, Ry, yz, Rx, I
--
 
 
++    Basis set information:
      ----------------------
 
 
      Basis set label: O.ANO-RCC...3S2P1D.
 
      Electronic valence basis set:
      ------------------
      Associated Effective Charge   8.000000 au
      Associated Actual Charge      8.000000 au
      Nuclear Model: Point charge
 
      Shell  nPrim  nBasis  Cartesian Spherical Contaminant
         s      14       3        X                  
         p       9       2        X                  
         d       4       1                 X         
 
 
      Basis set label: FE.ANO-RCC...5S4P2D1F.
 
      Electronic valence basis set:
      ------------------
      Associated Effective Charge  26.000000 au
      Associated Actual Charge     26.000000 au
      Nuclear Model: Point charge
 
      Shell  nPrim  nBasis  Cartesian Spherical Contaminant
         s      21       5        X                  
         p      15       4        X                  
         d      10       2                 X         
         f       6       1                 X         
--
 
 
++    Molecular structure info:
      -------------------------
 
                    ************************************************ 
                    **** Cartesian Coordinates / Bohr, Angstrom **** 
                    ************************************************ 
 
     Center  Label                x              y              z                     x              y              z
        1      O1               0.000000       0.000000       3.496938              0.000000       0.000000       1.850500
        2      FE2              0.000000       0.000000      -0.473376              0.000000       0.000000      -0.250500
--
 
 
            Nuclear Potential Energy             52.38879573 au
 
 ###############################################################################
 ###############################################################################
 ###                                                                         ###
 ###                                                                         ###
 ###    There were warnings during the execution                             ###
 ###    Please, check the output with care!                                  ###
 ###                                                                         ###
 ###                                                                         ###
 ###############################################################################
 ###############################################################################
--- Stop Module: gateway at Sun Dec 22 21:57:10 2024 /rc=_RC_ALL_IS_WELL_ ---
*** files: xmldump
    saved to directory /home/grierjones/DDCASPT2/iron_oxo_DDCASPT2/cluster/2.10

--- Start Module: seward at Sun Dec 22 21:57:10 2024 ---
 
()()()()()()()()()()()()()()()()()()()()()()()()()()()()()()()()()()()()()()()()()()()()()()()()()()

                                              &SEWARD

                                   only a single process is used
                       available to each process: 2.0 GB of memory, 1 thread?
()()()()()()()()()()()()()()()()()()()()()()()()()()()()()()()()()()()()()()()()()()()()()()()()()()
 
 ###############################################################################
 ###############################################################################
 ###                                                                         ###
 ###                                                                         ###
 ###                                                                         ###
 ###    WARNING: EXPERT option is ON!                                        ###
 ###                                                                         ###
 ###                                                                         ###
 ###############################################################################
 ###############################################################################
               SEWARD will generate:
                  Multipole Moment integrals up to order  2
                  Kinetic Energy integrals
                  Nuclear Attraction integrals (point charge)
                  One-Electron Hamiltonian integrals
                  Velocity integrals
                  Relativistic Douglas-Kroll-Hess integrals:
                    - Parametrization         : EXP
                    - DKH order of Hamiltonian: 2
                    - DKH order of Properties : 0
                         - multipole moment operators
                         - electric potential operators
                         - contact operators
                  Atomic mean-field integrals
                  Two-Electron Repulsion integrals
 
                   Integrals are discarded if absolute value <: 0.10E-13
                   Integral cutoff threshold is set to       <: 0.10E-15
 
            Nuclear Potential Energy             52.38879573 au
 
 
      Basis set specifications :
      Symmetry species         a  
      Basis functions           48
 
 
  Input file to MOLDEN was generated!
 
 ###############################################################################
 ###############################################################################
 ###                                                                         ###
 ###                                                                         ###
 ###    There were warnings during the execution                             ###
 ###    Please, check the output with care!                                  ###
 ###                                                                         ###
 ###                                                                         ###
 ###############################################################################
 ###############################################################################
--- Stop Module: seward at Sun Dec 22 21:57:11 2024 /rc=_RC_ALL_IS_WELL_ ---
*** files: 2.10.GssOrb 2.10.guessorb.h5 2.10.guessorb.molden xmldump
    saved to directory /home/grierjones/DDCASPT2/iron_oxo_DDCASPT2/cluster/2.10
--- Module seward spent 1 second ---

*** symbolic link created: INPORB -> 2.10.GssOrb
--- Start Module: scf at Sun Dec 22 21:57:11 2024 ---
 
()()()()()()()()()()()()()()()()()()()()()()()()()()()()()()()()()()()()()()()()()()()()()()()()()()

                                                &SCF

                                   only a single process is used
                       available to each process: 2.0 GB of memory, 1 thread?
()()()()()()()()()()()()()()()()()()()()()()()()()()()()()()()()()()()()()()()()()()()()()()()()()()
 
 *** Possible bug in opening file
 *** isFreeUnit resets the unit number
++    Input section:
      --------------
 
      Header of the integral files:
      
       Integrals generated by seward 4.2.0  , Sun Dec 22 21:57:10 2024
 
 
      Cartesian coordinates in Angstrom:
      -----------------------------------------------------
      No.  Label        X            Y            Z        
      -----------------------------------------------------
       1   O1         0.00000000   0.00000000   1.85050000
       2   FE2        0.00000000   0.00000000  -0.25050000
      -----------------------------------------------------
      Nuclear repulsion energy =   52.38879573
--
 
++    Orbital specifications:
      -----------------------
 
      Symmetry species               1
                                     a
      Frozen orbitals                0
      Start temperature = 0.500
      End temperature   = 0.010
      Temperature Factor= 0.460
      Deleted orbitals               0
      Total number of orbitals      48
      Number of basis functions     48
--
 
      Molecular charge                           2.000
 
++    Optimization specifications:
      ----------------------------
 
      SCF Algorithm: Conventional USCF
      D(i)-D(i-1) density differences are used
      Number of density matrices in core                5
      Maximum number of NDDO SCF iterations           400
      Maximum number of HF SCF iterations             400
      Threshold for SCF energy change            0.10E-08
      Threshold for density matrix               0.10E-03
      Threshold for Fock matrix                  0.15E-03
      Threshold for linear dependence            0.10E-08
      Threshold at which DIIS is turned on       0.15E+00
      Threshold at which QNR/C2DIIS is turned on 0.75E-01
      Threshold for Norm(delta) (QNR/C2DIIS)     0.20E-04
      DIIS extrapolation of the SCF procedure
      All orbitals punched on: UHFORB
--
 
      Input vectors read from INPORB
      Orbital file label: *Guess orbitals
 
 
++ Convergence information
                               UHF SCF        iterations: Energy and convergence statistics
 
Iter     Tot. SCF        One-elec.       Two-elec.     Energy      Max Dij or  Max Fij      DNorm      TNorm      AccCon     Time
         Energy          Energy          Energy        Change      Delta Norm                                                in Sec.
 
 The total and one-electron energies are shifted by a value of      1000. a.u.
 
   1  -343.108230341  -933.868043241   538.371017175   0.00E+00    0.15E+00*   0.90E+00*    0.76E+01   0.19E+03   None         0.
   2  -343.458017112  -930.429707133   534.582894295  -0.35E+00*   0.21E+00*   0.27E+00*    0.12E+01   0.19E+03   EDIIS        0.
   3  -341.883180839  -975.594471481   581.322494916   0.16E+01*   0.94E-01*   0.21E+00*    0.20E+01   0.19E+03   EDIIS        0.
   4  -343.770894414  -923.869545413   527.709855273  -0.19E+01*   0.25E+00*   0.15E+00*    0.16E+01   0.18E+03   EDIIS        0.
   5  -344.577459401  -948.555443976   551.589188849  -0.81E+00*   0.49E+00*   0.15E+00*    0.16E+01   0.19E+03   EDIIS        0.
   6  -344.871429559  -932.653876769   535.393651484  -0.29E+00*   0.41E+00*   0.33E+00*    0.13E+01   0.19E+03   EDIIS        0.
   7  -344.882545443  -946.308015873   549.036674704  -0.11E-01*   0.18E+00*   0.13E+00*    0.11E+01   0.19E+03   EDIIS        0.
   8  -345.047903211  -937.952411928   540.515712991  -0.17E+00*   0.98E-01*   0.48E-01*    0.37E+00   0.19E+03   EDIIS        0.
   9  -345.056131704  -939.286607675   541.841680245  -0.82E-02*   0.26E+00*   0.55E-01*    0.33E+00   0.19E+03   EDIIS        0.
  10  -345.059819278  -936.606672443   539.158057439  -0.37E-02*   0.10E+00*   0.45E-01*    0.48E+00   0.19E+03   EDIIS        0.
  11  -345.202549641  -938.084616980   540.493271614  -0.14E+00*   0.25E+00*   0.58E-01*    0.10E+01   0.19E+03   EDIIS        0.
  12  -345.218962842  -937.229215758   539.621457191  -0.16E-01*   0.23E+00*   0.68E-01*    0.48E+00   0.19E+03   EDIIS        0.
  13  -345.224828460  -939.156808746   541.543184561  -0.59E-02*   0.13E+00*   0.54E-01*    0.56E+00   0.19E+03   EDIIS        0.
 
       Fermi aufbau procedure completed!
      nOcc(alpha)=   18
      nOcc(beta) =   14
 
  14  -345.240237367  -937.600321280   539.971288187  -0.15E-01*   0.14E+00*   0.27E-01*    0.28E+00   0.19E+03   EDIIS        0.
  15  -345.244173040  -938.860185843   541.227217078  -0.39E-02*   0.12E+00*   0.30E-01*    0.32E+00   0.19E+03   EDIIS        0.
  16  -345.246904137  -937.751933625   540.116233763  -0.27E-02*   0.83E-01*   0.19E-01*    0.26E+00   0.19E+03   EDIIS        0.
  17  -345.251204142  -938.818829622   541.178829754  -0.43E-02*   0.85E-01*   0.20E-01*    0.20E+00   0.19E+03   EDIIS        0.
  18  -345.253314058  -938.298803994   540.656694211  -0.21E-02*   0.62E-01*   0.68E-02*    0.16E+00   0.19E+03   c2DIIS       0.
  19  -345.254865402  -938.591724259   540.948063132  -0.16E-02*   0.11E+00*   0.17E-01*    0.12E+00   0.19E+03   QNRc2DIIS    0.
  20  -345.257211128  -939.079212918   541.433206065  -0.23E-02*   0.11E+01*   0.14E-01*    0.13E+00   0.19E+03   QNRc2DIIS    0.
  21  -345.268062883  -943.805508814   546.148650205  -0.11E-01*   0.21E+00*   0.84E-01*    0.13E+01   0.19E+03   QNRc2DIIS    0.
  22  -345.293790836  -943.528288107   545.845701545  -0.26E-01*   0.24E+01*   0.70E-01*    0.28E+00   0.19E+03   QNRc2DIIS    0.
  23  -345.236059675  -938.088272777   540.463417376   0.58E-01*   0.47E+00*   0.62E-01*    0.23E+01   0.19E+03   QNRc2DIIS    0.
  24  -345.246940822  -937.683041661   540.047305114  -0.11E-01*   0.75E+00*   0.35E-01*    0.62E+00   0.19E+03   QNRc2DIIS    0.
  25  -345.256855831  -939.011556848   541.365905291  -0.99E-02*   0.25E-01*   0.16E-01*    0.90E+00   0.19E+03   QNRc2DIIS    0.
  26  -345.256687056  -939.021963738   541.376480956   0.17E-03*   0.16E+00*   0.17E-01*    0.34E-01   0.19E+03   QNRc2DIIS    0.
  27  -345.256460056  -938.856630689   541.211374907   0.23E-03*   0.13E+00*   0.12E-01*    0.21E+00   0.19E+03   QNRc2DIIS    0.
  28  -345.254456163  -938.307751266   540.664499378   0.20E-02*   0.54E+00*   0.15E-01*    0.17E+00   0.19E+03   QNRc2DIIS    0.
  29  -345.256640187  -939.521260980   541.875825068  -0.22E-02*   0.34E+00*   0.22E-01*    0.70E+00   0.19E+03   QNRc2DIIS    0.
  30  -345.259832788  -940.689735029   543.041106516  -0.32E-02*   0.99E+00*   0.38E-01*    0.47E+00   0.19E+03   QNRc2DIIS    0.
  31  -345.256881137  -939.042322222   541.396645360   0.30E-02*   0.37E-01*   0.82E-02*    0.13E+01   0.19E+03   QNRc2DIIS    0.
  32  -345.256690204  -939.033745615   541.388259686   0.19E-03*   0.21E+00*   0.12E-01*    0.50E-01   0.19E+03   QNRc2DIIS    0.
  33  -345.257529264  -938.378633271   540.732308282  -0.84E-03*   0.29E+00*   0.97E-02*    0.27E+00   0.19E+03   QNRc2DIIS    0.
  34  -345.257507903  -938.952269601   541.305965973   0.21E-04*   0.14E+00*   0.90E-02*    0.38E+00   0.19E+03   QNRc2DIIS    0.
  35  -345.257395417  -938.700648434   541.054457291   0.11E-03*   0.23E-01*   0.15E-02*    0.17E+00   0.19E+03   QNRc2DIIS    0.
  36  -345.257411605  -938.733307275   541.087099944  -0.16E-04*   0.16E-01*   0.12E-02*    0.30E-01   0.19E+03   QNRc2DIIS    0.
  37  -345.257408898  -938.697598911   541.051394287   0.27E-05*   0.12E-01*   0.14E-02*    0.20E-01   0.19E+03   QNRc2DIIS    0.
  38  -345.257399286  -938.702215588   541.056020576   0.96E-05*   0.22E-01*   0.13E-02*    0.15E-01   0.19E+03   QNRc2DIIS    0.
  39  -345.257421543  -938.725826149   541.079608881  -0.22E-04*   0.45E-02*   0.52E-03*    0.27E-01   0.19E+03   QNRc2DIIS    0.
  40  -345.257422505  -938.706410972   541.060192742  -0.96E-06*   0.40E-02*   0.45E-03*    0.61E-02   0.19E+03   QNRc2DIIS    0.
  41  -345.257423557  -938.720886422   541.074667139  -0.11E-05*   0.42E-02*   0.46E-03*    0.58E-02   0.19E+03   QNRc2DIIS    0.
  42  -345.257423915  -938.730537484   541.084317843  -0.36E-06*   0.83E-03*   0.10E-03     0.51E-02   0.19E+03   QNRc2DIIS    0.
  43  -345.257423947  -938.728567182   541.082347509  -0.32E-07*   0.76E-03*   0.40E-04     0.11E-02   0.19E+03   QNRc2DIIS    0.
  44  -345.257423968  -938.727457615   541.081237921  -0.21E-07*   0.19E-03*   0.20E-04     0.10E-02   0.19E+03   QNRc2DIIS    0.
  45  -345.257423972  -938.727843193   541.081623495  -0.36E-08*   0.73E-03*   0.14E-04     0.26E-03   0.19E+03   QNRc2DIIS    0.
  46  -345.257423970  -938.727922150   541.081702454   0.16E-08*   0.41E-03*   0.38E-04     0.98E-03   0.19E+03   QNRc2DIIS    0.
  47  -345.257423976  -938.727886252   541.081666551  -0.52E-08*   0.34E-04*   0.31E-05     0.54E-03   0.19E+03   QNRc2DIIS    0.
  48  -345.257423976  -938.727823734   541.081604032  -0.47E-10    0.16E-04    0.10E-05     0.45E-04   0.19E+03   QNRc2DIIS    0.
 
       Convergence after 48 Macro Iterations
--
 
 *****************************************************************************************************************************
 *                                                                                                                           *
 *                                             SCF/KS-DFT Program, Final results                                             *
 *                                                                                                                           *
 *                                                                                                                           *
 *                                                                                                                           *
 *                                                       Final Results                                                       *
 *                                                                                                                           *
 *****************************************************************************************************************************
 
::    Total SCF energy                              -1345.2574239756
      One-electron energy                           -1938.7278237336
      Two-electron energy                             541.0816040325
      Nuclear repulsion energy                         52.3887957255
      Kinetic energy (interpolated)                  1399.6253382083
      Virial theorem                                    0.9611553801
      Total spin, S(S+1)                                7.0701841834
      Total spin, S                                     2.2055838895
      Max non-diagonal density matrix element           0.0000079694
      Max non-diagonal Fock matrix element              0.0000016326
 
 
      All orbitals with orbital energies smaller than  E(LUMO)+0.5 are printed
 
++    Molecular orbitals:
      -------------------
 
      Title: UHF orbitals (alpha)

      Molecular orbitals for symmetry species 1: a  
 
          Orbital            1         2         3         4         5         6         7         8         9        10    
          Energy         -264.5251  -33.3862  -28.4557  -28.4556  -28.4480  -21.1381   -5.3321   -3.8841   -3.8836   -3.8652
          Occ. No.          1.0000    1.0000    1.0000    1.0000    1.0000    1.0000    1.0000    1.0000    1.0000    1.0000
 
        1 O1     1s        -0.0000    0.0000    0.0000   -0.0000   -0.0000    1.0000    0.0003    0.0000    0.0000    0.0004
        2 O1     2s        -0.0000    0.0001   -0.0000   -0.0000   -0.0000   -0.0010    0.0032    0.0000    0.0000    0.0072
        3 O1     3s        -0.0000    0.0001   -0.0000   -0.0000    0.0000    0.0003    0.0023    0.0000    0.0000    0.0035
        4 O1     2px       -0.0000    0.0000    0.0000   -0.0001    0.0000   -0.0000   -0.0000   -0.0000    0.0011    0.0000
        5 O1     3px        0.0000    0.0000    0.0000   -0.0002    0.0000   -0.0000    0.0000   -0.0000    0.0012   -0.0000
        6 O1     2py       -0.0000    0.0000   -0.0001   -0.0000   -0.0000   -0.0000   -0.0000    0.0010    0.0000    0.0000
        7 O1     3py       -0.0000    0.0000   -0.0002   -0.0000   -0.0000    0.0000   -0.0000    0.0012    0.0000    0.0000
        8 O1     2pz        0.0000   -0.0001   -0.0000   -0.0000   -0.0002   -0.0006   -0.0026    0.0000   -0.0000   -0.0056
        9 O1     3pz        0.0000   -0.0001   -0.0000   -0.0000   -0.0002    0.0001   -0.0024    0.0000   -0.0000   -0.0020
       10 O1     3d2-       0.0000   -0.0000   -0.0000    0.0000   -0.0000    0.0000    0.0000    0.0000    0.0000    0.0000
       11 O1     3d1-       0.0000    0.0000   -0.0000   -0.0000   -0.0000    0.0000   -0.0000   -0.0005   -0.0000    0.0000
       12 O1     3d0       -0.0000    0.0000   -0.0000    0.0000    0.0001    0.0002    0.0006   -0.0000    0.0000    0.0007
       13 O1     3d1+      -0.0000   -0.0000    0.0000   -0.0000    0.0000    0.0000   -0.0000    0.0000   -0.0005    0.0000
       14 O1     3d2+       0.0000   -0.0000    0.0000   -0.0000   -0.0000    0.0009    0.0000   -0.0000    0.0000    0.0001
       15 FE2    1s         1.0000   -0.0000   -0.0000    0.0000    0.0000   -0.0000   -0.0000    0.0000   -0.0000   -0.0000
       16 FE2    2s         0.0000    1.0000   -0.0000    0.0000    0.0004   -0.0000   -0.0035    0.0000   -0.0000   -0.0002
       17 FE2    3s        -0.0000    0.0033   -0.0000   -0.0000   -0.0000   -0.0001    0.9991   -0.0000    0.0000    0.0034
       18 FE2    4s         0.0000   -0.0005    0.0000   -0.0000   -0.0002   -0.0003   -0.0082   -0.0000   -0.0000   -0.0063
       19 FE2    5s        -0.0000    0.0004   -0.0000    0.0000    0.0001   -0.0000    0.0066    0.0000    0.0000    0.0027
       20 FE2    2px       -0.0000   -0.0000   -0.0194    0.9998   -0.0000    0.0000    0.0000    0.0001   -0.0033    0.0000
       21 FE2    3px        0.0000   -0.0000   -0.0001    0.0033   -0.0000    0.0000   -0.0000   -0.0194    0.9995   -0.0000
       22 FE2    4px       -0.0000   -0.0000    0.0000   -0.0005    0.0000    0.0000   -0.0000    0.0003   -0.0173    0.0000
       23 FE2    5px        0.0000   -0.0000   -0.0000    0.0014   -0.0000    0.0000    0.0000   -0.0003    0.0138   -0.0000
       24 FE2    2py       -0.0000    0.0000    0.9998    0.0194    0.0000   -0.0000    0.0000   -0.0033   -0.0001    0.0000
       25 FE2    3py        0.0000   -0.0000    0.0033    0.0001    0.0000   -0.0000   -0.0000    0.9995    0.0194   -0.0000
       26 FE2    4py        0.0000   -0.0000   -0.0005   -0.0000    0.0000    0.0000    0.0000   -0.0171   -0.0003    0.0000
       27 FE2    5py        0.0000   -0.0000    0.0014    0.0000    0.0000   -0.0000    0.0000    0.0136    0.0003   -0.0000
       28 FE2    2pz       -0.0000   -0.0004   -0.0000    0.0000    1.0000   -0.0000   -0.0000   -0.0000   -0.0000   -0.0033
       29 FE2    3pz        0.0000   -0.0000   -0.0000    0.0000    0.0032   -0.0001   -0.0052    0.0000    0.0000    0.9988
       30 FE2    4pz        0.0000   -0.0001    0.0000   -0.0000   -0.0006   -0.0004   -0.0037   -0.0000   -0.0000   -0.0221
       31 FE2    5pz        0.0000    0.0000   -0.0000    0.0000    0.0014   -0.0001    0.0019    0.0000    0.0000    0.0156
       32 FE2    3d2-      -0.0000   -0.0000   -0.0000   -0.0000    0.0000   -0.0000   -0.0000   -0.0000   -0.0000   -0.0000
       33 FE2    4d2-       0.0000    0.0000    0.0000    0.0000   -0.0000   -0.0000    0.0000    0.0000    0.0000   -0.0000
       34 FE2    3d1-       0.0000    0.0000   -0.0000   -0.0000   -0.0000    0.0000    0.0000   -0.0043   -0.0001    0.0000
       35 FE2    4d1-       0.0000   -0.0000    0.0001    0.0000    0.0000    0.0000   -0.0000   -0.0006   -0.0000    0.0000
       36 FE2    3d0        0.0000   -0.0001    0.0000   -0.0000   -0.0001   -0.0001   -0.0038   -0.0000   -0.0000   -0.0042
       37 FE2    4d0        0.0000    0.0000    0.0000    0.0000   -0.0000   -0.0002   -0.0012   -0.0000   -0.0000   -0.0031
       38 FE2    3d1+       0.0000    0.0000    0.0000   -0.0000   -0.0000    0.0000    0.0000    0.0001   -0.0041    0.0000
       39 FE2    4d1+      -0.0000   -0.0000   -0.0000    0.0001    0.0000    0.0000   -0.0000    0.0000   -0.0009    0.0000
       40 FE2    3d2+      -0.0000   -0.0000    0.0000   -0.0000    0.0000   -0.0000   -0.0001    0.0000   -0.0000   -0.0000
       41 FE2    4d2+       0.0000    0.0000   -0.0000    0.0000   -0.0000   -0.0000    0.0000   -0.0000    0.0000   -0.0001
       42 FE2    4f3-       0.0000    0.0000   -0.0000   -0.0000    0.0000   -0.0000    0.0000   -0.0001   -0.0000    0.0000
       43 FE2    4f2-      -0.0000    0.0000    0.0000    0.0000    0.0000   -0.0000   -0.0000    0.0000    0.0000   -0.0000
       44 FE2    4f1-       0.0000   -0.0000   -0.0000   -0.0000    0.0000    0.0000   -0.0000   -0.0014   -0.0000    0.0000
       45 FE2    4f0        0.0000    0.0000    0.0000   -0.0000   -0.0001   -0.0000   -0.0000   -0.0000   -0.0000   -0.0035
       46 FE2    4f1+       0.0000   -0.0000    0.0000   -0.0000    0.0000    0.0000   -0.0000    0.0000   -0.0013    0.0000
       47 FE2    4f2+      -0.0000    0.0000   -0.0000    0.0000    0.0000   -0.0000   -0.0000   -0.0000    0.0000   -0.0001
       48 FE2    4f3+      -0.0000    0.0000    0.0000   -0.0000    0.0000   -0.0000    0.0000    0.0000   -0.0001    0.0000
 
          Orbital           11        12        13        14        15        16        17        18        19        20    
          Energy           -1.6547   -1.5728   -1.5728   -1.5636   -1.5628   -1.5352   -1.0027   -0.9384   -0.5832   -0.4606
          Occ. No.          1.0000    1.0000    1.0000    1.0000    1.0000    1.0000    1.0000    1.0000    0.0000    0.0000
 
        1 O1     1s        -0.0026   -0.0000   -0.0000   -0.0000    0.0000   -0.0050    0.0000   -0.0192   -0.0002   -0.0000
        2 O1     2s         0.9097    0.0000    0.0074   -0.0000    0.0000   -0.3540    0.0000   -0.2800   -0.0221   -0.0000
        3 O1     3s        -0.0049   -0.0000   -0.0001   -0.0000    0.0000   -0.0170    0.0000   -0.0255   -0.0150   -0.0000
        4 O1     2px       -0.0000    0.0000   -0.0000    0.0162    0.0000   -0.0000    0.9841    0.0000   -0.0000   -0.0061
        5 O1     3px        0.0000    0.0000    0.0000   -0.0102   -0.0002    0.0000   -0.0052    0.0000   -0.0000   -0.0008
        6 O1     2py        0.0000    0.0000   -0.0000    0.0003   -0.0003   -0.0000    0.0191    0.0000   -0.0000    0.3163
        7 O1     3py        0.0000   -0.0000    0.0000   -0.0002    0.0089   -0.0000   -0.0001    0.0000   -0.0000    0.0416
        8 O1     2pz       -0.0633   -0.0000   -0.0002    0.0000   -0.0000   -0.0101    0.0000   -0.6442    0.5744   -0.0000
        9 O1     3pz       -0.0146   -0.0000   -0.0001    0.0000   -0.0000    0.0212   -0.0000   -0.0100    0.0813   -0.0000
       10 O1     3d2-       0.0009   -0.0004    0.0000   -0.0000   -0.0000   -0.0003    0.0000   -0.0001   -0.0000    0.0000
       11 O1     3d1-       0.0000    0.0000    0.0000    0.0000   -0.0008   -0.0000   -0.0005   -0.0000    0.0000   -0.0142
       12 O1     3d0        0.0205    0.0000    0.0002   -0.0000    0.0000   -0.0049   -0.0000    0.0252   -0.0135    0.0000
       13 O1     3d1+       0.0000   -0.0000    0.0000    0.0003    0.0000   -0.0000   -0.0242   -0.0000    0.0000    0.0003
       14 O1     3d2+       0.0226    0.0000    0.0006   -0.0000    0.0000   -0.0080    0.0000   -0.0038   -0.0002   -0.0000
       15 FE2    1s        -0.0005   -0.0000   -0.0000    0.0000   -0.0000    0.0003    0.0000   -0.0008    0.0013   -0.0000
       16 FE2    2s        -0.0033   -0.0000   -0.0000    0.0000   -0.0000    0.0019    0.0000   -0.0055    0.0095   -0.0000
       17 FE2    3s        -0.0203   -0.0000   -0.0003    0.0000   -0.0000    0.0134    0.0000   -0.0260    0.0525   -0.0000
       18 FE2    4s         0.0354    0.0000    0.0011   -0.0000    0.0000   -0.0135   -0.0000    0.5706    0.7945   -0.0000
       19 FE2    5s        -0.0202   -0.0000   -0.0007    0.0000   -0.0000    0.0157    0.0000   -0.2215   -0.2187   -0.0000
       20 FE2    2px        0.0000   -0.0000   -0.0000    0.0001    0.0000   -0.0000   -0.0005   -0.0000    0.0000   -0.0000
       21 FE2    3px        0.0000   -0.0000   -0.0000    0.0040    0.0001   -0.0000   -0.0113   -0.0000    0.0000   -0.0002
       22 FE2    4px        0.0000    0.0000    0.0000   -0.0022   -0.0000   -0.0000    0.0580    0.0000   -0.0000   -0.0171
       23 FE2    5px       -0.0000   -0.0000   -0.0000    0.0054    0.0001   -0.0000   -0.0049   -0.0000   -0.0000   -0.0008
       24 FE2    2py       -0.0000    0.0000   -0.0000    0.0000   -0.0001   -0.0000   -0.0000   -0.0000    0.0000    0.0001
       25 FE2    3py       -0.0000    0.0000   -0.0000    0.0001   -0.0043    0.0000   -0.0002   -0.0000    0.0000    0.0080
       26 FE2    4py       -0.0000    0.0000    0.0000   -0.0000    0.0007    0.0000    0.0011    0.0000   -0.0000    0.8797
       27 FE2    5py       -0.0000    0.0000   -0.0000    0.0001   -0.0050   -0.0000   -0.0001   -0.0000   -0.0000    0.0395
       28 FE2    2pz       -0.0009   -0.0000   -0.0000    0.0000   -0.0000    0.0004    0.0000   -0.0011    0.0016    0.0000
       29 FE2    3pz       -0.0247   -0.0000   -0.0002    0.0000   -0.0000    0.0131    0.0000   -0.0214    0.0322   -0.0000
       30 FE2    4pz        0.0312    0.0000    0.0007    0.0000    0.0000   -0.0012   -0.0000    0.1635   -0.3878    0.0000
       31 FE2    5pz       -0.0047   -0.0000   -0.0002    0.0000   -0.0000    0.0098    0.0000   -0.0071   -0.0035    0.0000
       32 FE2    3d2-       0.0002    0.9921   -0.0385   -0.0000    0.0000   -0.0002   -0.0000    0.0000    0.0000   -0.0000
       33 FE2    4d2-       0.0000   -0.1192    0.0046    0.0000   -0.0000    0.0000    0.0000   -0.0000   -0.0000    0.0000
       34 FE2    3d1-       0.0000    0.0000   -0.0000    0.0192   -0.9934   -0.0000   -0.0010   -0.0000    0.0000   -0.0101
       35 FE2    4d1-      -0.0000   -0.0000    0.0000   -0.0023    0.1174    0.0000    0.0006    0.0000   -0.0000    0.0111
       36 FE2    3d0        0.2969   -0.0000   -0.0035    0.0000   -0.0000    0.9491    0.0000   -0.0405    0.0664   -0.0000
       37 FE2    4d0       -0.0206    0.0000    0.0005   -0.0000    0.0000   -0.1097   -0.0000    0.0330   -0.0352   -0.0000
       38 FE2    3d1+       0.0000   -0.0000   -0.0000    0.9926    0.0193   -0.0000   -0.0499   -0.0000    0.0000    0.0002
       39 FE2    4d1+      -0.0000    0.0000    0.0000   -0.1183   -0.0023    0.0000    0.0313    0.0000   -0.0000   -0.0002
       40 FE2    3d2+       0.0061   -0.0385   -0.9921   -0.0000   -0.0000   -0.0056   -0.0000    0.0006    0.0002    0.0000
       41 FE2    4d2+       0.0001    0.0046    0.1192    0.0000    0.0000    0.0005    0.0000   -0.0009   -0.0010   -0.0000
       42 FE2    4f3-      -0.0000   -0.0000    0.0000   -0.0000    0.0000    0.0000   -0.0000    0.0000    0.0000   -0.0001
       43 FE2    4f2-       0.0000   -0.0031    0.0001    0.0000   -0.0000   -0.0000    0.0000   -0.0000   -0.0000    0.0000
       44 FE2    4f1-       0.0000   -0.0000    0.0000   -0.0001    0.0033    0.0000    0.0001    0.0000   -0.0000    0.0013
       45 FE2    4f0        0.0022    0.0000    0.0000   -0.0000    0.0000   -0.0040   -0.0000    0.0043   -0.0034    0.0000
       46 FE2    4f1+      -0.0000    0.0000    0.0000   -0.0034   -0.0001    0.0000    0.0047    0.0000   -0.0000   -0.0000
       47 FE2    4f2+       0.0001    0.0001    0.0031    0.0000    0.0000   -0.0000    0.0000   -0.0002   -0.0001   -0.0000
       48 FE2    4f3+      -0.0000    0.0000    0.0000   -0.0000   -0.0000    0.0000   -0.0000   -0.0000    0.0000    0.0000
 
          Orbital           21        22        23        24    
          Energy           -0.4323   -0.3343   -0.3053   -0.2336
          Occ. No.          0.0000    0.0000    0.0000    0.0000
 
        1 O1     1s         0.0000   -0.0000   -0.0516   -0.0126
        2 O1     2s         0.0000    0.0000   -0.5004   -0.1026
        3 O1     3s         0.0000    0.0000   -0.1431   -0.0343
        4 O1     2px       -0.2161    0.0178   -0.0000    0.0000
        5 O1     3px       -0.0507    0.0050   -0.0000    0.0000
        6 O1     2py       -0.0042   -0.9205    0.0000    0.0000
        7 O1     3py       -0.0010   -0.2604   -0.0000    0.0000
        8 O1     2pz        0.0000    0.0000    0.5891   -0.1890
        9 O1     3pz        0.0000    0.0000    0.1619   -0.0719
       10 O1     3d2-       0.0000    0.0000   -0.0001    0.0000
       11 O1     3d1-      -0.0001    0.0180   -0.0000   -0.0000
       12 O1     3d0       -0.0000   -0.0000   -0.0117   -0.0040
       13 O1     3d1+      -0.0048   -0.0003   -0.0000   -0.0000
       14 O1     3d2+       0.0000    0.0000   -0.0030    0.0008
       15 FE2    1s         0.0000    0.0000    0.0021   -0.0006
       16 FE2    2s         0.0000    0.0000    0.0156   -0.0043
       17 FE2    3s         0.0000    0.0000    0.0837   -0.0234
       18 FE2    4s         0.0000    0.0000    0.4961    0.2730
       19 FE2    5s         0.0000    0.0000   -0.0759    0.9849
       20 FE2    2px        0.0007   -0.0000    0.0000   -0.0000
       21 FE2    3px        0.0210   -0.0006    0.0000   -0.0000
       22 FE2    4px        1.0273   -0.0109    0.0000   -0.0000
       23 FE2    5px        0.0512   -0.0007    0.0000   -0.0000
       24 FE2    2py        0.0000    0.0013    0.0000   -0.0000
       25 FE2    3py        0.0004    0.0313   -0.0000   -0.0000
       26 FE2    4py        0.0199    0.5607   -0.0000   -0.0000
       27 FE2    5py        0.0010    0.0358   -0.0000   -0.0000
       28 FE2    2pz        0.0000    0.0000    0.0034   -0.0006
       29 FE2    3pz        0.0000    0.0000    0.0807   -0.0120
       30 FE2    4pz       -0.0000    0.0000    1.0934   -0.0099
       31 FE2    5pz       -0.0000    0.0000    0.0863   -0.0112
       32 FE2    3d2-      -0.0000    0.0000    0.0000   -0.0000
       33 FE2    4d2-       0.0000   -0.0000   -0.0001    0.0000
       34 FE2    3d1-       0.0003    0.0410   -0.0000   -0.0000
       35 FE2    4d1-      -0.0005   -0.0933    0.0000    0.0000
       36 FE2    3d0        0.0000    0.0000    0.0803   -0.0134
       37 FE2    4d0       -0.0000   -0.0000   -0.1337    0.0007
       38 FE2    3d1+       0.0144   -0.0008    0.0000   -0.0000
       39 FE2    4d1+      -0.0255    0.0018   -0.0000    0.0000
       40 FE2    3d2+      -0.0000    0.0000    0.0001   -0.0002
       41 FE2    4d2+       0.0000    0.0000   -0.0023    0.0001
       42 FE2    4f3-      -0.0000   -0.0001   -0.0000    0.0000
       43 FE2    4f2-       0.0000    0.0000   -0.0000    0.0000
       44 FE2    4f1-      -0.0000   -0.0069    0.0000    0.0000
       45 FE2    4f0       -0.0000   -0.0000   -0.0084    0.0003
       46 FE2    4f1+      -0.0021    0.0001   -0.0000    0.0000
       47 FE2    4f2+       0.0000   -0.0000   -0.0003    0.0001
       48 FE2    4f3+      -0.0001    0.0000   -0.0000    0.0000
--
 
 
  Input file to MOLDEN was generated!
 
 
++    Static properties:
      ------------------
 
 
      LoProp Charges per center
 

                   O1       FE2   
      Nuclear      8.0000  26.0000
      Electronic  -8.1456 -23.8544
 
      Total       -0.1456   2.1456
--
 
 
      All orbitals with orbital energies smaller than  E(LUMO)+0.5 are printed
 
++    Molecular orbitals:
      -------------------
 
      Title: UHF orbitals (beta)

      Molecular orbitals for symmetry species 1: a  
 
          Orbital            1         2         3         4         5         6         7         8         9        10    
          Energy         -264.5198  -33.2243  -28.2936  -28.2925  -28.2922  -21.1810   -4.8962   -3.3571   -3.3540   -3.3534
          Occ. No.          1.0000    1.0000    1.0000    1.0000    1.0000    1.0000    1.0000    1.0000    1.0000    1.0000
 
        1 O1     1s        -0.0000   -0.0000    0.0000    0.0000    0.0000    1.0000   -0.0001   -0.0003   -0.0000    0.0000
        2 O1     2s        -0.0000   -0.0001   -0.0001   -0.0000    0.0000    0.0004    0.0009    0.0084    0.0000   -0.0000
        3 O1     3s        -0.0000   -0.0001   -0.0000   -0.0000    0.0000   -0.0014    0.0002    0.0011    0.0000   -0.0000
        4 O1     2px        0.0000   -0.0000   -0.0000   -0.0000    0.0001    0.0000   -0.0000   -0.0000   -0.0000   -0.0022
        5 O1     3px        0.0000   -0.0000   -0.0000   -0.0000    0.0001    0.0000    0.0000   -0.0000   -0.0000   -0.0013
        6 O1     2py       -0.0000    0.0000   -0.0000    0.0001    0.0000   -0.0000   -0.0000   -0.0000    0.0020   -0.0000
        7 O1     3py       -0.0000    0.0000   -0.0000    0.0001    0.0000    0.0000   -0.0000    0.0000    0.0013   -0.0000
        8 O1     2pz        0.0000    0.0001    0.0001    0.0000    0.0000   -0.0003   -0.0016   -0.0096   -0.0000    0.0000
        9 O1     3pz        0.0000    0.0001    0.0002    0.0000    0.0000    0.0007   -0.0006    0.0001    0.0000    0.0000
       10 O1     3d2-      -0.0000   -0.0000    0.0000    0.0000    0.0000   -0.0000   -0.0000   -0.0000    0.0000    0.0000
       11 O1     3d1-       0.0000    0.0000   -0.0000    0.0000    0.0000   -0.0000   -0.0000    0.0000   -0.0004    0.0000
       12 O1     3d0       -0.0000   -0.0000   -0.0001   -0.0000   -0.0000   -0.0006    0.0006    0.0017    0.0000   -0.0000
       13 O1     3d1+      -0.0000    0.0000   -0.0000   -0.0000    0.0000   -0.0000    0.0000    0.0000    0.0000    0.0004
       14 O1     3d2+      -0.0000   -0.0000    0.0000    0.0000    0.0000   -0.0003   -0.0000   -0.0001   -0.0000    0.0000
       15 FE2    1s         1.0000    0.0000    0.0000    0.0000    0.0000    0.0000   -0.0000   -0.0000   -0.0000    0.0000
       16 FE2    2s        -0.0000    1.0000    0.0007    0.0000    0.0000    0.0000    0.0010    0.0000    0.0000   -0.0000
       17 FE2    3s        -0.0000   -0.0010   -0.0001   -0.0000   -0.0000    0.0002    0.9996    0.0127    0.0000   -0.0000
       18 FE2    4s         0.0000    0.0003    0.0002    0.0000    0.0000    0.0006   -0.0013   -0.0013   -0.0000    0.0000
       19 FE2    5s        -0.0000   -0.0003   -0.0001   -0.0000   -0.0000   -0.0001    0.0018    0.0007    0.0000   -0.0000
       20 FE2    2px       -0.0000   -0.0000   -0.0000   -0.0194    0.9998    0.0000   -0.0000   -0.0000   -0.0001   -0.0030
       21 FE2    3px        0.0000   -0.0000    0.0000    0.0001   -0.0030   -0.0000   -0.0000   -0.0000   -0.0194   -0.9996
       22 FE2    4px       -0.0000    0.0000   -0.0000   -0.0000    0.0004   -0.0000   -0.0000    0.0000    0.0002    0.0098
       23 FE2    5px        0.0000   -0.0000    0.0000    0.0000   -0.0010   -0.0000    0.0000   -0.0000   -0.0001   -0.0028
       24 FE2    2py       -0.0000    0.0000   -0.0000    0.9998    0.0194   -0.0000    0.0000   -0.0000    0.0030   -0.0001
       25 FE2    3py        0.0000   -0.0000    0.0000   -0.0030   -0.0001   -0.0000   -0.0000   -0.0000    0.9996   -0.0194
       26 FE2    4py        0.0000   -0.0000   -0.0000    0.0004    0.0000   -0.0000    0.0000    0.0000   -0.0098    0.0002
       27 FE2    5py        0.0000   -0.0000    0.0000   -0.0010   -0.0000   -0.0000    0.0000   -0.0000    0.0028   -0.0001
       28 FE2    2pz       -0.0000   -0.0007    1.0000    0.0000    0.0000   -0.0000    0.0001    0.0029    0.0000   -0.0000
       29 FE2    3pz        0.0000   -0.0001   -0.0029   -0.0000   -0.0000    0.0001   -0.0138    0.9989    0.0000   -0.0000
       30 FE2    4pz        0.0000    0.0001    0.0006    0.0000    0.0000    0.0004   -0.0003   -0.0040   -0.0000    0.0000
       31 FE2    5pz        0.0000   -0.0001   -0.0012   -0.0000   -0.0000   -0.0000    0.0008   -0.0004   -0.0000   -0.0000
       32 FE2    3d2-      -0.0000   -0.0000   -0.0000   -0.0000   -0.0000    0.0000   -0.0000   -0.0000   -0.0000    0.0000
       33 FE2    4d2-       0.0000    0.0000    0.0000    0.0000    0.0000    0.0000    0.0000    0.0000    0.0000   -0.0000
       34 FE2    3d1-       0.0000   -0.0000    0.0000   -0.0001   -0.0000   -0.0000    0.0000    0.0000   -0.0064    0.0001
       35 FE2    4d1-       0.0000   -0.0000    0.0000   -0.0000   -0.0000   -0.0000   -0.0000   -0.0000   -0.0007    0.0000
       36 FE2    3d0        0.0000    0.0001   -0.0000   -0.0000   -0.0000    0.0002   -0.0042   -0.0139   -0.0000    0.0000
       37 FE2    4d0        0.0000    0.0001    0.0001    0.0000    0.0000    0.0002    0.0025    0.0040    0.0000   -0.0000
       38 FE2    3d1+      -0.0000   -0.0000    0.0000    0.0000   -0.0001   -0.0000    0.0000    0.0000    0.0001    0.0067
       39 FE2    4d1+      -0.0000    0.0000    0.0000    0.0000   -0.0000   -0.0000   -0.0000   -0.0000    0.0000    0.0007
       40 FE2    3d2+      -0.0000   -0.0000   -0.0000    0.0000   -0.0000    0.0000   -0.0001   -0.0001    0.0000    0.0000
       41 FE2    4d2+       0.0000    0.0000    0.0000   -0.0000    0.0000    0.0000    0.0000    0.0000   -0.0000   -0.0000
       42 FE2    4f3-       0.0000    0.0000    0.0000   -0.0000   -0.0000   -0.0000   -0.0000    0.0000   -0.0001    0.0000
       43 FE2    4f2-       0.0000   -0.0000    0.0000    0.0000    0.0000    0.0000   -0.0000   -0.0000    0.0000   -0.0000
       44 FE2    4f1-       0.0000    0.0000    0.0000   -0.0002   -0.0000   -0.0000    0.0000   -0.0000   -0.0037    0.0001
       45 FE2    4f0        0.0000   -0.0000    0.0003    0.0000   -0.0000    0.0000   -0.0004    0.0042   -0.0000    0.0000
       46 FE2    4f1+      -0.0000    0.0000   -0.0000    0.0000   -0.0002   -0.0000    0.0000   -0.0000    0.0001    0.0036
       47 FE2    4f2+       0.0000   -0.0000    0.0000   -0.0000    0.0000    0.0000   -0.0000   -0.0001   -0.0000   -0.0000
       48 FE2    4f3+      -0.0000    0.0000    0.0000    0.0000   -0.0000   -0.0000   -0.0000    0.0000    0.0000    0.0001
 
          Orbital           11        12        13        14        15        16        17        18        19        20    
          Energy           -1.8168   -1.1515   -1.0471   -1.0086   -0.6013   -0.5423   -0.5217   -0.5217   -0.5077   -0.5070
          Occ. No.          1.0000    1.0000    1.0000    1.0000    0.0000    0.0000    0.0000    0.0000    0.0000    0.0000
 
        1 O1     1s        -0.0024   -0.0000   -0.0000   -0.0176   -0.0007   -0.0062   -0.0000   -0.0000   -0.0000    0.0000
        2 O1     2s         0.9804   -0.0000   -0.0000   -0.2610   -0.0028   -0.0816   -0.0000   -0.0006   -0.0000    0.0000
        3 O1     3s        -0.0206   -0.0000   -0.0000   -0.0180   -0.0151   -0.0182    0.0000   -0.0001   -0.0000    0.0000
        4 O1     2px        0.0000   -0.0191    0.9790   -0.0000    0.0000    0.0000    0.0000   -0.0000    0.0025    0.1598
        5 O1     3px       -0.0000    0.0012   -0.0291    0.0000    0.0000    0.0000   -0.0000   -0.0000    0.0001    0.0140
        6 O1     2py        0.0000    0.9862    0.0190   -0.0000    0.0000    0.0000   -0.0000   -0.0000   -0.1276    0.0031
        7 O1     3py        0.0000   -0.0619   -0.0006    0.0000    0.0000    0.0000   -0.0000   -0.0000   -0.0077    0.0003
        8 O1     2pz       -0.0673   -0.0000   -0.0000   -0.6736    0.4687    0.3896   -0.0000    0.0043    0.0000   -0.0000
        9 O1     3pz       -0.0174    0.0000    0.0000   -0.0004    0.0384    0.0520    0.0000    0.0009    0.0000   -0.0000
       10 O1     3d2-      -0.0008    0.0000    0.0000    0.0002   -0.0000    0.0000    0.0024    0.0001   -0.0000   -0.0000
       11 O1     3d1-      -0.0000   -0.0250   -0.0005    0.0000   -0.0000   -0.0000   -0.0000   -0.0000   -0.0080    0.0001
       12 O1     3d0       -0.0018    0.0000    0.0000    0.0377   -0.0062   -0.0068    0.0000    0.0000   -0.0000   -0.0000
       13 O1     3d1+      -0.0000    0.0005   -0.0257    0.0000   -0.0000   -0.0000    0.0000   -0.0000    0.0002    0.0065
       14 O1     3d2+      -0.0194    0.0000    0.0000    0.0044   -0.0001    0.0007   -0.0001    0.0024    0.0000    0.0000
       15 FE2    1s        -0.0005   -0.0000   -0.0000   -0.0008    0.0009    0.0009    0.0000    0.0000    0.0000   -0.0000
       16 FE2    2s        -0.0034   -0.0000   -0.0000   -0.0060    0.0064    0.0062    0.0000    0.0001    0.0000   -0.0000
       17 FE2    3s        -0.0225   -0.0000   -0.0000   -0.0305    0.0372    0.0355    0.0000    0.0006    0.0000   -0.0000
       18 FE2    4s         0.0119    0.0000    0.0000    0.2351   -0.2566    0.9102   -0.0000    0.0257    0.0000   -0.0000
       19 FE2    5s        -0.0116   -0.0000   -0.0000   -0.0926    0.0629   -0.1953    0.0000   -0.0054   -0.0000    0.0000
       20 FE2    2px       -0.0000    0.0000   -0.0005    0.0000   -0.0000   -0.0000   -0.0000    0.0000   -0.0000   -0.0002
       21 FE2    3px       -0.0000    0.0002   -0.0115    0.0000   -0.0000   -0.0000   -0.0000    0.0000   -0.0001   -0.0079
       22 FE2    4px       -0.0000   -0.0004    0.0344   -0.0000    0.0000    0.0000    0.0000   -0.0000    0.0018    0.1067
       23 FE2    5px        0.0000    0.0000   -0.0024    0.0000    0.0000   -0.0000    0.0000   -0.0000    0.0001    0.0042
       24 FE2    2py       -0.0000   -0.0004   -0.0000    0.0000   -0.0000   -0.0000    0.0000    0.0000    0.0002   -0.0000
       25 FE2    3py       -0.0000   -0.0103   -0.0002    0.0000   -0.0000   -0.0000    0.0000    0.0000    0.0070   -0.0002
       26 FE2    4py       -0.0000    0.0228    0.0007   -0.0000    0.0000    0.0000   -0.0000   -0.0000   -0.0942    0.0021
       27 FE2    5py       -0.0000   -0.0022   -0.0000    0.0000    0.0000    0.0000   -0.0000   -0.0000   -0.0033    0.0001
       28 FE2    2pz       -0.0010    0.0000   -0.0000   -0.0015    0.0016    0.0015   -0.0000    0.0000    0.0000   -0.0000
       29 FE2    3pz       -0.0342   -0.0000   -0.0000   -0.0275    0.0427    0.0309    0.0000    0.0004    0.0000   -0.0000
       30 FE2    4pz        0.0157    0.0000    0.0000    0.1260   -0.1132   -0.3465   -0.0000   -0.0116   -0.0000    0.0000
       31 FE2    5pz       -0.0054    0.0000   -0.0000   -0.0059   -0.0028   -0.0162   -0.0000   -0.0007   -0.0000    0.0000
       32 FE2    3d2-       0.0000   -0.0000   -0.0000   -0.0001    0.0003   -0.0010    0.9872    0.0383   -0.0000    0.0000
       33 FE2    4d2-       0.0000   -0.0000   -0.0000   -0.0000    0.0001   -0.0002    0.1541    0.0060   -0.0000    0.0000
       34 FE2    3d1-      -0.0000    0.0561    0.0017   -0.0000   -0.0000   -0.0000    0.0000    0.0000    0.9838   -0.0190
       35 FE2    4d1-      -0.0000    0.0177    0.0005   -0.0000   -0.0000   -0.0000    0.0000    0.0000    0.1621   -0.0031
       36 FE2    3d0        0.0538    0.0000    0.0000    0.5509    0.8263    0.1157    0.0000   -0.0029    0.0000   -0.0000
       37 FE2    4d0        0.0095    0.0000    0.0000    0.0696    0.0818   -0.0003    0.0000   -0.0003    0.0000   -0.0000
       38 FE2    3d1+      -0.0000   -0.0011    0.0886   -0.0000   -0.0000   -0.0000   -0.0000    0.0000   -0.0191   -0.9811
       39 FE2    4d1+      -0.0000   -0.0003    0.0259   -0.0000   -0.0000   -0.0000   -0.0000    0.0000   -0.0031   -0.1593
       40 FE2    3d2+       0.0001    0.0000   -0.0000   -0.0016    0.0074   -0.0267   -0.0383    0.9868    0.0000    0.0000
       41 FE2    4d2+       0.0002    0.0000   -0.0000   -0.0009    0.0021   -0.0050   -0.0060    0.1540    0.0000    0.0000
       42 FE2    4f3-      -0.0000   -0.0000   -0.0000    0.0000   -0.0000    0.0000   -0.0000   -0.0000   -0.0001    0.0000
       43 FE2    4f2-       0.0000   -0.0000   -0.0000   -0.0000    0.0000    0.0000   -0.0038   -0.0001   -0.0000   -0.0000
       44 FE2    4f1-      -0.0000    0.0037    0.0001   -0.0000    0.0000    0.0000   -0.0000   -0.0000   -0.0051    0.0001
       45 FE2    4f0        0.0037    0.0000    0.0000    0.0060   -0.0087   -0.0042   -0.0000    0.0000   -0.0000    0.0000
       46 FE2    4f1+      -0.0000   -0.0001    0.0044   -0.0000    0.0000    0.0000    0.0000   -0.0000    0.0001    0.0054
       47 FE2    4f2+       0.0000    0.0000   -0.0000   -0.0001    0.0000    0.0001    0.0001   -0.0038   -0.0000   -0.0000
       48 FE2    4f3+       0.0000    0.0000   -0.0000    0.0000    0.0000    0.0000    0.0000   -0.0000    0.0000    0.0001
 
          Orbital           21        22        23        24    
          Energy           -0.3843   -0.3793   -0.2787   -0.2176
          Occ. No.          0.0000    0.0000    0.0000    0.0000
 
        1 O1     1s        -0.0000   -0.0000   -0.0577   -0.0075
        2 O1     2s        -0.0000   -0.0000   -0.5359   -0.0550
        3 O1     3s        -0.0000    0.0000   -0.1347   -0.0227
        4 O1     2px        0.0034   -0.2068    0.0000   -0.0000
        5 O1     3px        0.0005   -0.0382    0.0000   -0.0000
        6 O1     2py       -0.1771   -0.0040    0.0000   -0.0000
        7 O1     3py       -0.0255   -0.0007    0.0000   -0.0000
        8 O1     2pz       -0.0000   -0.0000    0.5359   -0.2194
        9 O1     3pz       -0.0000   -0.0000    0.1513   -0.0732
       10 O1     3d2-      -0.0000    0.0000    0.0002   -0.0000
       11 O1     3d1-      -0.0073   -0.0001   -0.0000    0.0000
       12 O1     3d0       -0.0000    0.0000   -0.0065   -0.0041
       13 O1     3d1+       0.0001   -0.0057    0.0000    0.0000
       14 O1     3d2+      -0.0000    0.0000    0.0039   -0.0006
       15 FE2    1s        -0.0000   -0.0000    0.0020   -0.0006
       16 FE2    2s        -0.0000   -0.0000    0.0144   -0.0045
       17 FE2    3s        -0.0000   -0.0000    0.0778   -0.0243
       18 FE2    4s        -0.0000    0.0000    0.5437    0.1560
       19 FE2    5s        -0.0000   -0.0000   -0.0003    1.0081
       20 FE2    2px        0.0000   -0.0001   -0.0000    0.0000
       21 FE2    3px       -0.0002    0.0139   -0.0000    0.0000
       22 FE2    4px       -0.0197    1.0167   -0.0000    0.0000
       23 FE2    5px       -0.0016    0.0816   -0.0000   -0.0000
       24 FE2    2py       -0.0001   -0.0000   -0.0000    0.0000
       25 FE2    3py        0.0128    0.0003   -0.0000    0.0000
       26 FE2    4py        1.0138    0.0197   -0.0000    0.0000
       27 FE2    5py        0.0813    0.0016   -0.0000    0.0000
       28 FE2    2pz       -0.0000   -0.0000    0.0027   -0.0008
       29 FE2    3pz       -0.0000   -0.0000    0.0704   -0.0159
       30 FE2    4pz        0.0000    0.0000    1.1113   -0.0874
       31 FE2    5pz        0.0000    0.0000    0.1045   -0.0183
       32 FE2    3d2-       0.0000    0.0000    0.0001   -0.0000
       33 FE2    4d2-      -0.0000   -0.0000   -0.0001   -0.0000
       34 FE2    3d1-       0.1150    0.0025    0.0000   -0.0000
       35 FE2    4d1-      -0.0018   -0.0001    0.0000   -0.0000
       36 FE2    3d0        0.0000    0.0000    0.1918    0.0020
       37 FE2    4d0        0.0000    0.0000   -0.0672    0.0130
       38 FE2    3d1+      -0.0022    0.1296    0.0000   -0.0000
       39 FE2    4d1+       0.0000   -0.0035    0.0000   -0.0000
       40 FE2    3d2+      -0.0000    0.0000    0.0031   -0.0005
       41 FE2    4d2+       0.0000   -0.0000   -0.0014   -0.0003
       42 FE2    4f3-      -0.0001   -0.0000   -0.0000    0.0000
       43 FE2    4f2-      -0.0000   -0.0000   -0.0000    0.0000
       44 FE2    4f1-       0.0001   -0.0000   -0.0000    0.0000
       45 FE2    4f0       -0.0000    0.0000   -0.0052    0.0002
       46 FE2    4f1+      -0.0000   -0.0003   -0.0000    0.0000
       47 FE2    4f2+       0.0000   -0.0000   -0.0002    0.0000
       48 FE2    4f3+       0.0000   -0.0001   -0.0000    0.0000
--
 
 
++    Molecular charges:
      ------------------
 
      Mulliken charges per centre and basis function type
      ---------------------------------------------------
 
                            O1                      FE2   
                     alpha        beta       alpha        beta
      1s           1.0000      1.0000      1.0000      1.0000
      2s           0.9951      0.9999      1.0000      1.0000
      2px          0.9810      0.9742      1.0000      1.0000
      2pz          0.5262      0.5465      1.0000      1.0000
      2py          0.0004      0.9832      1.0000      1.0000
      3s          -0.0058     -0.0025      0.9989      0.9997
      3px         -0.0006      0.0001      0.9994      0.9997
      3pz          0.0043      0.0005      0.9983      0.9990
      3py         -0.0004      0.0027      0.9995      0.9998
      4s           0.0000      0.0000      0.3582      0.0693
      3d2+         0.0006      0.0004      0.9858      0.0000
      3d1+         0.0008      0.0010      0.9851      0.0131
      3d0          0.0028      0.0042      0.9841      0.3292
      3d1-        -0.0000      0.0009      0.9864      0.0063
      3d2-        -0.0000      0.0000      0.9858      0.0000
      4px          0.0000      0.0000      0.0126      0.0063
      4pz          0.0000      0.0000      0.0410      0.0253
      4py          0.0000      0.0000      0.0003      0.0036
      5s           0.0000      0.0000      0.0766      0.0201
      4d2+         0.0000      0.0000      0.0142      0.0000
      4d1+         0.0000      0.0000      0.0211      0.0055
      4d0          0.0000      0.0000      0.0192      0.0081
      4d1-         0.0000      0.0000      0.0141      0.0035
      4d2-         0.0000      0.0000      0.0142      0.0000
      5px          0.0000      0.0000     -0.0001     -0.0001
      5pz          0.0000      0.0000     -0.0000     -0.0001
      5py          0.0000      0.0000      0.0002     -0.0001
      4f3+         0.0000      0.0000      0.0000      0.0000
      4f2+         0.0000      0.0000      0.0000     -0.0000
      4f1+         0.0000      0.0000      0.0003      0.0002
      4f0          0.0000      0.0000      0.0003      0.0004
      4f1-         0.0000      0.0000      0.0000      0.0002
      4f2-         0.0000      0.0000      0.0000     -0.0000
      4f3-         0.0000      0.0000      0.0000      0.0000
      Total        3.5043      4.5111     14.4957      9.4889
      Total              8.0154                 23.9846
 
      Charge           -0.0154                  2.0154
 
      Total electronic charge=   32.000000
 
      Total            charge=    2.000000
--
 
 
  Input file to MOLDEN was generated!
 
 
++    Static properties:
      ------------------
 
 
      LoProp Charges per center
 

                   O1       FE2   
      Nuclear      8.0000  26.0000
      Electronic  -8.1456 -23.8544
 
      Total       -0.1456   2.1456
--
 
 
++    Natural Bond Order analysis
      ---------------------------
      Based on LoProp computed density
      -------------------------------------------------------------------------------------
      Atom A       Atom B       Bond Order
        O1           FE2            0.982
      -------------------------------------------------------------------------------------
      NBO located     17.999 core electrons.
      NBO located      5.949 lone pair electrons.
      NBO located      1.963 electrons involved in    1 bonds.
      NBO located      0.987 non-bonded electrons on atom O1        
      NBO located      1.011 non-bonded electrons on atom FE2       
      NBO located      1.005 non-bonded electrons on atom FE2       
      NBO located      1.000 non-bonded electrons on atom FE2       
      NBO located      1.000 non-bonded electrons on atom FE2       
      The remaining    1.086 electrons are to be considered as diffuse
--
 
 
++    Molecular orbitals:
      -------------------
 
      Title: Natural orbitals

      Molecular orbitals for symmetry species 1: a  
 
          Orbital            1         2         3         4         5         6         7         8         9        10    
          Energy         -264.5225  -33.1406  -27.5896  -27.4966  -21.5899  -27.5430   -5.3377   -4.4087   -4.4033   -3.9008
          Occ. No.          2.0000    2.0000    2.0000    2.0000    2.0000    2.0000    2.0000    1.9999    1.9999    1.9998
 
        1 O1     1s         0.0000   -0.0087    0.0000    0.0000   -0.9579   -0.2784   -0.0606   -0.0000   -0.0000    0.0177
        2 O1     2s        -0.0000   -0.0006   -0.0000   -0.0000    0.0314    0.0025   -0.0122   -0.0000   -0.0000    0.1312
        3 O1     3s        -0.0000   -0.0001   -0.0000   -0.0000    0.0004   -0.0002   -0.0007    0.0000    0.0000    0.0019
        4 O1     2px       -0.0000   -0.0000    0.0000   -0.0099    0.0000   -0.0000   -0.0000    0.1673   -0.0000    0.0000
        5 O1     3px        0.0000    0.0000    0.0000   -0.0001   -0.0000    0.0000    0.0000   -0.0018   -0.0000   -0.0000
        6 O1     2py       -0.0000   -0.0000   -0.0002   -0.0002    0.0000   -0.0000   -0.0000    0.0032    0.0009    0.0000
        7 O1     3py       -0.0000    0.0000   -0.0003   -0.0000   -0.0000   -0.0000    0.0000   -0.0000    0.0013   -0.0000
        8 O1     2pz        0.0000   -0.0006    0.0000   -0.0000   -0.0003   -0.0001    0.0083    0.0000    0.0000    0.0036
        9 O1     3pz        0.0000    0.0001    0.0000    0.0000   -0.0011   -0.0001    0.0017    0.0000    0.0000   -0.0033
       10 O1     3d2-       0.0000   -0.0000   -0.0000    0.0000   -0.0000   -0.0000   -0.0000   -0.0000    0.0000    0.0000
       11 O1     3d1-       0.0000    0.0000    0.0001    0.0000    0.0000    0.0000    0.0000   -0.0001   -0.0005   -0.0000
       12 O1     3d0       -0.0000   -0.0000   -0.0000   -0.0000    0.0005    0.0000   -0.0009   -0.0000   -0.0000    0.0014
       13 O1     3d1+       0.0000    0.0000   -0.0000    0.0003   -0.0000    0.0000    0.0000   -0.0047    0.0000   -0.0000
       14 O1     3d2+       0.0000   -0.0000    0.0000    0.0000   -0.0002   -0.0001   -0.0001   -0.0000   -0.0000    0.0003
       15 FE2    1s         1.0000    0.0000   -0.0000   -0.0000    0.0000   -0.0001    0.0001    0.0000    0.0000   -0.0001
       16 FE2    2s         0.0000    0.9971    0.0000   -0.0000   -0.0059    0.0054   -0.0752   -0.0000    0.0000    0.0019
       17 FE2    3s         0.0001   -0.0749   -0.0000   -0.0000    0.0639   -0.0024   -0.9922   -0.0000    0.0000    0.0521
       18 FE2    4s         0.0000    0.0007    0.0000    0.0000   -0.0008    0.0008    0.0005   -0.0000   -0.0000   -0.0105
       19 FE2    5s        -0.0000   -0.0004   -0.0000   -0.0000    0.0002   -0.0003   -0.0024    0.0000    0.0000    0.0034
       20 FE2    2px        0.0000    0.0000   -0.0191    0.9820    0.0000   -0.0000   -0.0000    0.1866   -0.0034   -0.0000
       21 FE2    3px       -0.0000   -0.0000    0.0034   -0.1876   -0.0000    0.0000   -0.0000    0.9654   -0.0191   -0.0000
       22 FE2    4px        0.0000   -0.0000   -0.0000    0.0021    0.0000   -0.0000   -0.0000   -0.0053    0.0003    0.0000
       23 FE2    5px        0.0000   -0.0000    0.0000   -0.0014   -0.0000    0.0000   -0.0000    0.0075   -0.0002   -0.0000
       24 FE2    2py        0.0000    0.0000    0.9839    0.0190    0.0000    0.0000   -0.0000    0.0036    0.1778   -0.0000
       25 FE2    3py       -0.0000   -0.0000   -0.1778   -0.0036   -0.0000   -0.0000   -0.0000    0.0187    0.9837   -0.0000
       26 FE2    4py        0.0000   -0.0000    0.0023    0.0000    0.0000    0.0000   -0.0000   -0.0001   -0.0132    0.0000
       27 FE2    5py        0.0000   -0.0000   -0.0013   -0.0000   -0.0000   -0.0000   -0.0000    0.0001    0.0081   -0.0000
       28 FE2    2pz        0.0001   -0.0080    0.0000    0.0000   -0.2748    0.9548   -0.0131    0.0000    0.0000    0.1118
       29 FE2    3pz       -0.0000    0.0029   -0.0000   -0.0000    0.0397   -0.1040    0.0607    0.0000    0.0000    0.9803
       30 FE2    4pz        0.0000    0.0003    0.0000    0.0000   -0.0004    0.0016   -0.0003   -0.0000   -0.0000   -0.0141
       31 FE2    5pz        0.0000   -0.0001   -0.0000   -0.0000    0.0002   -0.0007   -0.0008    0.0000    0.0000    0.0069
       32 FE2    3d2-      -0.0000    0.0000    0.0000    0.0000   -0.0000    0.0000    0.0000   -0.0000   -0.0000   -0.0000
       33 FE2    4d2-       0.0000    0.0000   -0.0000   -0.0000    0.0000    0.0000   -0.0000    0.0000    0.0000    0.0000
       34 FE2    3d1-       0.0000   -0.0000    0.0011    0.0000    0.0000    0.0000   -0.0000    0.0002   -0.0064    0.0000
       35 FE2    4d1-       0.0000   -0.0000    0.0001   -0.0000    0.0000    0.0000   -0.0000    0.0001   -0.0005    0.0000
       36 FE2    3d0        0.0000    0.0010    0.0000    0.0000   -0.0009    0.0026   -0.0007   -0.0000   -0.0000   -0.0285
       37 FE2    4d0        0.0000    0.0000   -0.0000   -0.0000    0.0003    0.0000   -0.0010   -0.0000   -0.0000    0.0017
       38 FE2    3d1+      -0.0000   -0.0000   -0.0000    0.0004    0.0000   -0.0000   -0.0000    0.0082    0.0001    0.0000
       39 FE2    4d1+      -0.0000   -0.0000   -0.0000   -0.0000    0.0000   -0.0000   -0.0000    0.0029    0.0000    0.0000
       40 FE2    3d2+      -0.0000    0.0000    0.0000    0.0000   -0.0000    0.0000    0.0002   -0.0000    0.0000   -0.0001
       41 FE2    4d2+       0.0000    0.0000   -0.0000   -0.0000    0.0000    0.0000   -0.0000    0.0000   -0.0000    0.0001
       42 FE2    4f3-       0.0000    0.0000    0.0000    0.0000    0.0000    0.0000    0.0000   -0.0000   -0.0001    0.0000
       43 FE2    4f2-      -0.0000    0.0000   -0.0000   -0.0000    0.0000    0.0000    0.0000    0.0000    0.0000   -0.0000
       44 FE2    4f1-       0.0000   -0.0000    0.0004    0.0000    0.0000    0.0000   -0.0000   -0.0000   -0.0025    0.0000
       45 FE2    4f0        0.0000    0.0000   -0.0000    0.0000    0.0001    0.0001    0.0002   -0.0000   -0.0000    0.0006
       46 FE2    4f1+      -0.0000    0.0000   -0.0000    0.0003    0.0000   -0.0000   -0.0000   -0.0017    0.0000    0.0000
       47 FE2    4f2+      -0.0000    0.0000    0.0000   -0.0000    0.0000    0.0000    0.0000    0.0000   -0.0000   -0.0000
       48 FE2    4f3+      -0.0000    0.0000   -0.0000    0.0000    0.0000   -0.0000    0.0000   -0.0001    0.0000    0.0000
 
          Orbital           11        12        13        14        15        16        17        18        19        20    
          Energy           -1.1167   -1.7684   -1.0844   -0.9054   -1.0115   -1.0115   -0.9923   -0.9382   -0.8173   -0.3993
          Occ. No.          1.9993    1.9983    1.9631    1.0888    1.0000    1.0000    1.0000    1.0000    0.9112    0.0369
 
        1 O1     1s        -0.0000   -0.0277   -0.0181   -0.0000   -0.0000   -0.0001    0.0000   -0.0074    0.0000   -0.0022
        2 O1     2s        -0.0000   -0.9878   -0.1883   -0.0000   -0.0000   -0.0007    0.0000   -0.0657    0.0000   -0.0647
        3 O1     3s         0.0000    0.0086   -0.0254   -0.0000   -0.0000   -0.0002    0.0000   -0.0018    0.0000   -0.0414
        4 O1     2px        0.9637   -0.0000    0.0000   -0.0130    0.0000   -0.0000    0.1187    0.0000    0.0142   -0.0000
        5 O1     3px       -0.0178    0.0000   -0.0000    0.0009    0.0000   -0.0000    0.0094    0.0000   -0.0008    0.0000
        6 O1     2py        0.0187   -0.0000    0.0000    0.6685    0.0000   -0.0000    0.0023    0.0000   -0.7303   -0.0000
        7 O1     3py       -0.0003    0.0000   -0.0000   -0.0480    0.0000   -0.0000    0.0002    0.0000    0.0393    0.0000
        8 O1     2pz        0.0000    0.0063   -0.6069   -0.0000   -0.0000   -0.0027    0.0000   -0.3777    0.0000    0.5559
        9 O1     3pz        0.0000    0.0180   -0.0006    0.0000   -0.0000   -0.0001    0.0000   -0.0197   -0.0000    0.0092
       10 O1     3d2-      -0.0000   -0.0001    0.0000    0.0000   -0.0004    0.0000    0.0000   -0.0000   -0.0000   -0.0007
       11 O1     3d1-      -0.0005    0.0000   -0.0000   -0.0164   -0.0000    0.0000   -0.0001   -0.0000    0.0192   -0.0000
       12 O1     3d0       -0.0000   -0.0068    0.0300    0.0000    0.0000    0.0002   -0.0000    0.0156   -0.0000   -0.0567
       13 O1     3d1+      -0.0244    0.0000   -0.0000    0.0003   -0.0000    0.0000   -0.0036   -0.0000   -0.0004   -0.0000
       14 O1     3d2+      -0.0000   -0.0022    0.0005    0.0000    0.0000    0.0004    0.0000   -0.0003   -0.0000   -0.0173
       15 FE2    1s         0.0000    0.0004   -0.0007    0.0000   -0.0000   -0.0000    0.0000   -0.0006    0.0000    0.0009
       16 FE2    2s         0.0000    0.0039   -0.0071   -0.0000   -0.0000   -0.0000    0.0000   -0.0045    0.0000    0.0069
       17 FE2    3s        -0.0000    0.0415   -0.0336    0.0000   -0.0000   -0.0003    0.0000   -0.0271    0.0000    0.0422
       18 FE2    4s        -0.0000    0.0087    0.3445   -0.0000    0.0000    0.0036   -0.0000    0.3556   -0.0000    0.7819
       19 FE2    5s         0.0000    0.0047   -0.1325    0.0000   -0.0000   -0.0016    0.0000   -0.1449    0.0000   -0.2805
       20 FE2    2px       -0.0229    0.0000   -0.0000    0.0000   -0.0000    0.0000   -0.0002   -0.0000   -0.0000   -0.0000
       21 FE2    3px       -0.1790    0.0000   -0.0000    0.0000   -0.0000    0.0000   -0.0083   -0.0000   -0.0002   -0.0000
       22 FE2    4px        0.0474   -0.0000    0.0000   -0.0003    0.0000   -0.0000    0.0101    0.0000    0.0003    0.0000
       23 FE2    5px       -0.0046    0.0000   -0.0000   -0.0000   -0.0000    0.0000   -0.0061   -0.0000   -0.0001   -0.0000
       24 FE2    2py       -0.0004    0.0000   -0.0000   -0.0002   -0.0000    0.0000   -0.0000   -0.0000    0.0004   -0.0000
       25 FE2    3py       -0.0035    0.0000   -0.0000   -0.0017   -0.0000    0.0000   -0.0002   -0.0000    0.0116   -0.0000
       26 FE2    4py        0.0009   -0.0000    0.0000    0.0149    0.0000   -0.0000    0.0002    0.0000   -0.0174    0.0000
       27 FE2    5py       -0.0001    0.0000   -0.0000    0.0019   -0.0000    0.0000   -0.0001   -0.0000    0.0053   -0.0000
       28 FE2    2pz       -0.0000    0.0095   -0.0005    0.0000   -0.0000   -0.0000    0.0000   -0.0012   -0.0000    0.0016
       29 FE2    3pz       -0.0000    0.1474    0.0025    0.0000   -0.0000   -0.0004    0.0000   -0.0346    0.0000    0.0402
       30 FE2    4pz       -0.0000   -0.0123    0.1318   -0.0000    0.0000    0.0012   -0.0000    0.0963   -0.0000    0.0288
       31 FE2    5pz        0.0000    0.0067   -0.0036    0.0000   -0.0000   -0.0002    0.0000   -0.0113    0.0000    0.0205
       32 FE2    3d2-       0.0000    0.0000   -0.0001   -0.0000    0.9921   -0.0385   -0.0000    0.0004    0.0000    0.0000
       33 FE2    4d2-      -0.0000   -0.0000   -0.0000    0.0000   -0.1192    0.0046    0.0000   -0.0001    0.0000    0.0001
       34 FE2    3d1-       0.0017   -0.0000   -0.0000    0.7112   -0.0000    0.0000   -0.0192   -0.0000    0.6944    0.0000
       35 FE2    4d1-       0.0004   -0.0000    0.0000   -0.0675    0.0000   -0.0000    0.0024    0.0000   -0.1001    0.0000
       36 FE2    3d0       -0.0000   -0.0106    0.5734    0.0000   -0.0000   -0.0088    0.0000   -0.8059    0.0000    0.1111
       37 FE2    4d0       -0.0000   -0.0066    0.0143   -0.0000    0.0000    0.0011   -0.0000    0.1082   -0.0000   -0.4129
       38 FE2    3d1+       0.0874   -0.0000   -0.0000   -0.0138   -0.0000    0.0000   -0.9901   -0.0000   -0.0135    0.0000
       39 FE2    4d1+       0.0202   -0.0000    0.0000    0.0013    0.0000   -0.0000    0.1215    0.0000    0.0019    0.0000
       40 FE2    3d2+       0.0000    0.0000   -0.0013    0.0000   -0.0385   -0.9921   -0.0000    0.0100    0.0000    0.0007
       41 FE2    4d2+      -0.0000   -0.0006   -0.0007   -0.0000    0.0046    0.1192    0.0000   -0.0017   -0.0000    0.0015
       42 FE2    4f3-      -0.0000    0.0000   -0.0000   -0.0000    0.0000   -0.0000    0.0000    0.0000   -0.0000    0.0000
       43 FE2    4f2-      -0.0000   -0.0000   -0.0000   -0.0000   -0.0031    0.0001    0.0000   -0.0000   -0.0000   -0.0000
       44 FE2    4f1-       0.0001   -0.0000    0.0000    0.0002    0.0000   -0.0000    0.0001    0.0000   -0.0052    0.0000
       45 FE2    4f0       -0.0000   -0.0030    0.0040   -0.0000    0.0000    0.0000   -0.0000    0.0053   -0.0000   -0.0180
       46 FE2    4f1+       0.0046   -0.0000    0.0000   -0.0000    0.0000   -0.0000    0.0041    0.0000    0.0001    0.0000
       47 FE2    4f2+      -0.0000   -0.0001   -0.0001    0.0000    0.0001    0.0031    0.0000   -0.0001    0.0000   -0.0001
       48 FE2    4f3+      -0.0000    0.0000   -0.0000    0.0000    0.0000   -0.0000    0.0000    0.0000    0.0000    0.0000
 
          Orbital           21        22        23        24        25        26        27        28        29        30    
          Energy            1.2603   -0.1373    1.4320    1.0107    1.2460    0.4120    1.5881    0.6468    1.2945    1.0224
          Occ. No.          0.0017    0.0007    0.0002    0.0001    0.0001    0.0000    0.0000    0.0000    0.0000    0.0000
 
        1 O1     1s        -0.0097   -0.0000   -0.0214    0.0000   -0.0000   -0.0550   -0.0811    0.0000    0.0742    0.0000
        2 O1     2s        -0.0891   -0.0000   -0.2520    0.0000   -0.0000   -0.4874   -0.6849    0.0000    0.6881    0.0000
        3 O1     3s         0.3615   -0.0000   -0.2468   -0.0000   -0.0000   -0.4885   -0.6135    0.0000    1.3805    0.0000
        4 O1     2px       -0.0000   -0.0539    0.0000   -0.0005    0.0228    0.0000    0.0000    0.0036    0.0000   -0.2319
        5 O1     3px        0.0000    0.5928   -0.0000    0.0004    0.3004   -0.0000   -0.0000    0.0072    0.0000   -0.8264
        6 O1     2py       -0.0000   -0.0010    0.0000    0.0242    0.0004    0.0000    0.0000   -0.1845    0.0000   -0.0045
        7 O1     3py        0.0000    0.0115   -0.0000   -0.0200    0.0058   -0.0000   -0.0000   -0.3722    0.0000   -0.0160
        8 O1     2pz        0.1786    0.0000    0.3373   -0.0000    0.0000    0.5651    0.3239   -0.0000   -0.3276   -0.0000
        9 O1     3pz       -0.0277   -0.0000    0.1394   -0.0000   -0.0000    0.4085   -0.0366   -0.0000   -0.7068   -0.0000
       10 O1     3d2-       0.0289   -0.0000   -0.0102   -0.0000   -0.0000   -0.0051   -0.0080   -0.0000   -0.0132   -0.0000
       11 O1     3d1-       0.0000    0.0009   -0.0000   -0.0112    0.0003   -0.0000   -0.0000    0.0309   -0.0000    0.0001
       12 O1     3d0        0.4052   -0.0000   -0.1258   -0.0000   -0.0000   -0.0799    0.1167    0.0000    0.2042    0.0000
       13 O1     3d1+       0.0000    0.0476   -0.0000    0.0002    0.0147   -0.0000   -0.0000   -0.0006   -0.0000    0.0035
       14 O1     3d2+       0.7455   -0.0000   -0.2641   -0.0000   -0.0000   -0.1316   -0.2050   -0.0000   -0.3396   -0.0000
       15 FE2    1s        -0.0010   -0.0000    0.0019   -0.0000   -0.0000    0.0042    0.0014   -0.0000   -0.0074   -0.0000
       16 FE2    2s        -0.0071   -0.0000    0.0137   -0.0000   -0.0000    0.0304    0.0104   -0.0000   -0.0535   -0.0000
       17 FE2    3s        -0.0386    0.0000    0.0736   -0.0000    0.0000    0.1565    0.0597   -0.0000   -0.2711   -0.0000
       18 FE2    4s        -0.0612    0.0000    0.1957   -0.0000    0.0000    0.5462    0.3566   -0.0000   -0.9545   -0.0000
       19 FE2    5s        -0.0162   -0.0000   -0.0578   -0.0000   -0.0000   -0.6706    0.0272   -0.0000   -0.0678   -0.0000
       20 FE2    2px       -0.0000   -0.0013    0.0000    0.0000   -0.0008    0.0000    0.0000   -0.0000   -0.0000    0.0020
       21 FE2    3px       -0.0000   -0.0149    0.0000    0.0003   -0.0236    0.0000    0.0000   -0.0005   -0.0000    0.0426
       22 FE2    4px        0.0000    0.6302   -0.0000    0.0105   -0.2791   -0.0000   -0.0000   -0.0165   -0.0000    0.7523
       23 FE2    5px       -0.0000   -0.0977    0.0000   -0.0159    0.8789   -0.0000   -0.0000   -0.0118   -0.0000    0.5134
       24 FE2    2py       -0.0000   -0.0000    0.0000   -0.0001   -0.0000    0.0000   -0.0000    0.0009   -0.0000    0.0000
       25 FE2    3py       -0.0000   -0.0003    0.0000   -0.0131   -0.0005    0.0000   -0.0000    0.0236   -0.0000    0.0008
       26 FE2    4py        0.0000    0.0122   -0.0000   -0.5415   -0.0054   -0.0000   -0.0000    0.8509   -0.0000    0.0146
       27 FE2    5py       -0.0000   -0.0019    0.0000    0.8210    0.0170   -0.0000   -0.0000    0.6072   -0.0000    0.0100
       28 FE2    2pz       -0.0019    0.0000    0.0029   -0.0000    0.0000    0.0057    0.0027   -0.0000   -0.0103   -0.0000
       29 FE2    3pz       -0.0324    0.0000    0.0699   -0.0000    0.0000    0.1137    0.0637   -0.0000   -0.1988   -0.0000
       30 FE2    4pz        0.2171    0.0000    0.7086   -0.0000    0.0000    0.3340    0.9001   -0.0000   -0.9954   -0.0000
       31 FE2    5pz       -0.0652   -0.0000   -0.7384    0.0000    0.0000   -0.0459    0.7460   -0.0000   -0.0459   -0.0000
       32 FE2    3d2-      -0.0003    0.0000    0.0001   -0.0000    0.0000    0.0001    0.0002   -0.0000   -0.0004   -0.0000
       33 FE2    4d2-       0.0005   -0.0000    0.0001   -0.0000   -0.0000    0.0001    0.0009   -0.0000   -0.0042   -0.0000
       34 FE2    3d1-      -0.0000   -0.0011    0.0000   -0.0014   -0.0007    0.0000   -0.0000    0.0396   -0.0000    0.0019
       35 FE2    4d1-      -0.0000   -0.0056    0.0000    0.0289   -0.0027    0.0000   -0.0000    0.0885   -0.0000    0.0068
       36 FE2    3d0       -0.0071    0.0000    0.0807   -0.0000    0.0000    0.2191    0.1277   -0.0000   -0.1842   -0.0000
       37 FE2    4d0        0.1108    0.0000    0.0904    0.0000    0.0000    0.8855    0.3745   -0.0000   -0.2634   -0.0000
       38 FE2    3d1+      -0.0000   -0.0545    0.0000    0.0000   -0.0371    0.0000    0.0000   -0.0008   -0.0000    0.0962
       39 FE2    4d1+      -0.0000   -0.2895    0.0000   -0.0006   -0.1396    0.0000    0.0000   -0.0017   -0.0000    0.3518
       40 FE2    3d2+      -0.0069    0.0000    0.0034    0.0000    0.0000    0.0019    0.0051    0.0000   -0.0092   -0.0000
       41 FE2    4d2+       0.0121   -0.0000    0.0014    0.0000   -0.0000    0.0015    0.0224    0.0000   -0.1077   -0.0000
       42 FE2    4f3-       0.0000    0.0000   -0.0000    0.0001    0.0000    0.0000   -0.0000    0.0009   -0.0000    0.0000
       43 FE2    4f2-       0.0001    0.0000    0.0000   -0.0000   -0.0000   -0.0003    0.0003    0.0000   -0.0015   -0.0000
       44 FE2    4f1-      -0.0000   -0.0003   -0.0000    0.1728    0.0035   -0.0000   -0.0000   -0.3602    0.0000   -0.0085
[...]
    saved to directory /home/grierjones/DDCASPT2/iron_oxo_DDCASPT2/cluster/2.10
--- Module rasscf spent 1 minute 41 seconds ---

>>> COPY /tmp/2.10/2.10.rasscf.h5 /home/grierjones/DDCASPT2/iron_oxo_DDCASPT2/cluster/2.10/

>>> COPY /tmp/2.10/GMJ_Fock_MO.csv /home/grierjones/DDCASPT2/iron_oxo_DDCASPT2/cluster/2.10/2.10.GMJ_Fock_MO.csv

>>> COPY /tmp/2.10/GMJ_PT2_Fock_MO.csv /home/grierjones/DDCASPT2/iron_oxo_DDCASPT2/cluster/2.10/2.10.GMJ_PT2_Fock_MO.csv

*** symbolic link created: INPORB -> 2.10.RasOrb
--- Start Module: motra at Sun Dec 22 21:58:54 2024 ---
 
()()()()()()()()()()()()()()()()()()()()()()()()()()()()()()()()()()()()()()()()()()()()()()()()()()

                                               &MOTRA

                                   only a single process is used
                       available to each process: 2.0 GB of memory, 1 thread?
()()()()()()()()()()()()()()()()()()()()()()()()()()()()()()()()()()()()()()()()()()()()()()()()()()
 
 
      *** WARNING: Default frozen orbitals is overwritten by user input.
      *** Default values:   7
 
      Header of the integral files:
      
       Integrals generated by seward 4.2.0  , Sun Dec 22 21:57:10 2024
 
 
      Header of MO coefficients source file:
      * RASSCF average (pseudo-natural) orbitals                                      
 
 
      Cartesian coordinates in Angstrom:
      -----------------------------------------------------
      No.  Label        X            Y            Z        
      -----------------------------------------------------
       1   O1         0.00000000   0.00000000   1.85050000
       2   FE2        0.00000000   0.00000000  -0.25050000
      -----------------------------------------------------
      Nuclear repulsion energy =   52.38879573
 
      Orbital specifications:
      -----------------------
 
      Symmetry species:              1
      Number of basis functions:    48
      Frozen orbitals:               0
      Deleted orbitals:              0
      Number of orbitals used:      48

       SYMMETRY  BASIS FUNCTIONS       ORBITALS      INTEGRALS   CPU(SEC)  I/O(SEC)
 
        1 1 1 1   48  48  48  48    48  48  48  48      692076       0.00      0.00

       TOTAL CPU TIME(SEC)    0.31TOTAL I/O TIME(SEC)    0.86
 
--- Stop Module: motra at Sun Dec 22 21:58:55 2024 /rc=_RC_ALL_IS_WELL_ ---
*** files: xmldump
    saved to directory /home/grierjones/DDCASPT2/iron_oxo_DDCASPT2/cluster/2.10

>>> COPY /tmp/2.10/GMJ_one_int_indx.csv /home/grierjones/DDCASPT2/iron_oxo_DDCASPT2/cluster/2.10/2.10.GMJ_one_int_indx.csv

>>> COPY /tmp/2.10/GMJ_one_int.csv /home/grierjones/DDCASPT2/iron_oxo_DDCASPT2/cluster/2.10/2.10.GMJ_one_int.csv

>>> COPY /tmp/2.10/GMJ_two_int_indx.csv /home/grierjones/DDCASPT2/iron_oxo_DDCASPT2/cluster/2.10/2.10.GMJ_two_int_indx.csv

>>> COPY /tmp/2.10/GMJ_two_int.csv /home/grierjones/DDCASPT2/iron_oxo_DDCASPT2/cluster/2.10/2.10.GMJ_two_int.csv

*** symbolic link created: INPORB -> 2.10.RasOrb
--- Start Module: caspt2 at Sun Dec 22 21:58:55 2024 ---
 
()()()()()()()()()()()()()()()()()()()()()()()()()()()()()()()()()()()()()()()()()()()()()()()()()()

                                              &CASPT2

                                   only a single process is used
                       available to each process: 2.0 GB of memory, 1 thread?
()()()()()()()()()()()()()()()()()()()()()()()()()()()()()()()()()()()()()()()()()()()()()()()()()()
 
 Cholesky algorithm in CASPT2 =    1
 
 ###############################################################################
 ###############################################################################
 ###                                                                         ###
 ###                                                                         ###
 ###    User changed nr of frozen orbitals.                                  ###
 ###                                                                         ###
 ###                                                                         ###
 ###############################################################################
 ###############################################################################
 
++    Wave function specifications:
      -----------------------------
 
      Number of closed shell electrons          22
      Number of electrons in active shells      10
      Max number of holes in RAS1 space          0
      Max number of electrons in RAS3 space      0
      Number of inactive orbitals               11
      Number of active orbitals                 14
      Number of secondary orbitals              23
      Spin quantum number                      2.0
      State symmetry                             1
      Number of CSFs                        975975
      Number of root(s) available                1
      Root passed to geometry opt.               1
      A file JOBMIX will be created.
      This is a CASSCF or RASSCF reference function
--
 
++    Orbital specifications:
      -----------------------
 
      Symmetry species                           1
                                                 a
      Frozen orbitals                            0
      Inactive orbitals                         11
      Active orbitals                           14
      Secondary orbitals                        23
      Deleted orbitals                           0
      Number of basis functions                 48
--
 
      Type of Fock operator: STANDARD
      Type of 0-order Hamiltonian: STANDARD WITH DEFAULT IPEA
        "IP-EA" denominator shift =      0.25
      The input orbitals and the CI vector will be transformed.
 
--------------------------------------------------------------------------------
 Estimated memory requirements:
  POLY3 :                227658189
  RHS:                     4146972
  SIGMA :                   646704
  PRPCTL:                        0
 Available workspace:    229020647
 
++ CASPT2 computation for group   1
 
********************************************************************************
 Multi-State initialization phase begins for group   1
--------------------------------------------------------------------------------
********************************************************************************
 Compute H0 matrices for state    1
--------------------------------------------------------------------------------
--------------------------------------------------------------------------------
 H0 matrices have been computed.
 
********************************************************************************
  CASPT2 EQUATION SOLUTION
--------------------------------------------------------------------------------
 
  Total nr of CASPT2 parameters:
   Before reduction:      408969
   After  reduction:      408969
 
 The contributions to the second order correlation energy in atomic units.
-----------------------------------------------------------------------------------------------------------------------------
  IT.      VJTU        VJTI        ATVX        AIVX        VJAI        BVAT        BJAT        BJAI        TOTAL       RNORM  
-----------------------------------------------------------------------------------------------------------------------------
   1    -0.005240   -0.030280   -0.017325   -0.177442   -0.018959   -0.076870   -0.019307   -0.043984   -0.389407    0.013979
   2    -0.005276   -0.030329   -0.017641   -0.177944   -0.019015   -0.077095   -0.019506   -0.044073   -0.390880    0.002910
   3    -0.005280   -0.030337   -0.017686   -0.178024   -0.019019   -0.077096   -0.019521   -0.044079   -0.391042    0.000634
   4    -0.005278   -0.030335   -0.017684   -0.178001   -0.019018   -0.077084   -0.019516   -0.044075   -0.390991    0.000156
   5    -0.005278   -0.030335   -0.017684   -0.177997   -0.019017   -0.077083   -0.019515   -0.044075   -0.390984    0.000036
   6    -0.005278   -0.030335   -0.017684   -0.177999   -0.019017   -0.077084   -0.019515   -0.044075   -0.390986    0.000008
   7    -0.005278   -0.030335   -0.017684   -0.177999   -0.019017   -0.077084   -0.019515   -0.044075   -0.390987    0.000002
-------------------------------------------------------------------------------------------------------------------
 
  FINAL CASPT2 RESULT:
 
  Correlation energy /Case, /Symm, and sums:
 VJTU     -0.00527800 -0.00527800
 VJTIP    -0.01078119 -0.01078119
 VJTIM    -0.01955386 -0.01955386
 ATVX     -0.01768401 -0.01768401
 AIVX     -0.17799879 -0.17799879
 VJAIP    -0.01501889 -0.01501889
 VJAIM    -0.00399833 -0.00399833
 BVATP    -0.02176282 -0.02176282
 BVATM    -0.05532075 -0.05532075
 BJATP    -0.01168500 -0.01168500
 BJATM    -0.00782993 -0.00782993
 BJAIP    -0.02995312 -0.02995312
 BJAIM    -0.01412188 -0.01412188
 Summed:  -0.39098656 -0.39098656
 
      Reference energy:       -1345.4963299160
      E2 (Non-variational):      -0.3909865593
      E2 (Variational):          -0.3909865502
      Total energy:           -1345.8873164662
      Residual norm:              0.0000004280
      Reference weight:           0.93826
 
      Contributions to the CASPT2 correlation energy
      Active & Virtual Only:         -0.0947675770
      One Inactive Excited:          -0.2027917183
      Two Inactive Excited:          -0.0934272640
 
 
++ Denominators, etc.
----------------------------------------------------------------------------------------------------
 Report on small energy denominators, large coefficients, and large energy contributions.
CASE  SYMM ACTIVE-MIX  NON-ACTIVE INDICES          DENOMINATOR     RHS VALUE       COEFFICIENT     CONTRIBUTION
ATVX     1  Mu1.0001  Se1.026                       0.26471268     -0.00000004      0.00000016     -0.00000000
ATVX     1  Mu1.0002  Se1.026                       0.28528199      0.00000008     -0.00000030     -0.00000000
ATVX     1  Mu1.0003  Se1.026                       0.28528200     -0.00000040      0.00000149     -0.00000000
ATVX     1  Mu1.0004  Se1.026                       0.29853808      0.00077856     -0.00293179     -0.00000228
ATVX     1  Mu1.0238  Se1.031                       2.23799022     -0.06309456      0.02774811     -0.00175075
ATVX     1  Mu1.0237  Se1.032                       2.23799019     -0.06310083      0.02775087     -0.00175110
AIVX     1  Mu1.0039  In1.011 Se1.035               3.66354324     -0.15161444      0.04046494     -0.00613507
AIVX     1  Mu1.0032  In1.011 Se1.036               3.54318311     -0.15410453      0.04250343     -0.00654997
BVATM    1  Mu1.0009  Se1.032 Se1.031               2.42325699     -0.06109155      0.02650761     -0.00161939
BVATM    1  Mu1.0009  Se1.036 Se1.035               4.99578783      0.12741492     -0.02553474     -0.00325351
BVATM    1  Mu1.0016  Se1.044 Se1.043               8.71202493     -0.22938642      0.02632993     -0.00603973
--
 
   (Skipping property calculation,
    use PROP keyword to activate)
--
 
  Total CASPT2 energies:
::    CASPT2 Root  1     Total energy:  -1345.88731647
 
  A NEW JOBIPH FILE NAMED 'JOBMIX' IS PREPARED.
********************************************************************************
--- Stop Module: caspt2 at Sun Dec 22 22:04:31 2024 /rc=_RC_ALL_IS_WELL_ ---
*** files: xmldump
    saved to directory /home/grierjones/DDCASPT2/iron_oxo_DDCASPT2/cluster/2.10
--- Module caspt2 spent 5 minutes 36 seconds ---

>>> EXPORT i = B

>>> EXPORT j = P

>>> IF (-FILE GMJ_e2_${i}_${j}.csv)

>>> COPY /tmp/2.10/GMJ_RHS_B_P.csv /home/grierjones/DDCASPT2/iron_oxo_DDCASPT2/cluster/2.10/GMJ_RHS_B_P.csv

>>> COPY /tmp/2.10/GMJ_IVECW_B_P.csv /home/grierjones/DDCASPT2/iron_oxo_DDCASPT2/cluster/2.10/GMJ_IVECW_B_P.csv

>>> COPY /tmp/2.10/GMJ_IVECX_B_P.csv /home/grierjones/DDCASPT2/iron_oxo_DDCASPT2/cluster/2.10/GMJ_IVECX_B_P.csv

>>> COPY /tmp/2.10/GMJ_IVECC2_B_P.csv /home/grierjones/DDCASPT2/iron_oxo_DDCASPT2/cluster/2.10/GMJ_IVECC2_B_P.csv

>>> COPY /tmp/2.10/GMJ_e2_B_P.csv /home/grierjones/DDCASPT2/iron_oxo_DDCASPT2/cluster/2.10/GMJ_e2_B_P.csv

>>> END FOREACH

>>> EXPORT j = M

>>> IF (-FILE GMJ_e2_${i}_${j}.csv)

>>> COPY /tmp/2.10/GMJ_RHS_B_M.csv /home/grierjones/DDCASPT2/iron_oxo_DDCASPT2/cluster/2.10/GMJ_RHS_B_M.csv

>>> COPY /tmp/2.10/GMJ_IVECW_B_M.csv /home/grierjones/DDCASPT2/iron_oxo_DDCASPT2/cluster/2.10/GMJ_IVECW_B_M.csv

>>> COPY /tmp/2.10/GMJ_IVECX_B_M.csv /home/grierjones/DDCASPT2/iron_oxo_DDCASPT2/cluster/2.10/GMJ_IVECX_B_M.csv

>>> COPY /tmp/2.10/GMJ_IVECC2_B_M.csv /home/grierjones/DDCASPT2/iron_oxo_DDCASPT2/cluster/2.10/GMJ_IVECC2_B_M.csv

>>> COPY /tmp/2.10/GMJ_e2_B_M.csv /home/grierjones/DDCASPT2/iron_oxo_DDCASPT2/cluster/2.10/GMJ_e2_B_M.csv

>>> END FOREACH

>>> END FOREACH

>>> EXPORT i = E

>>> EXPORT j = P

>>> IF (-FILE GMJ_e2_${i}_${j}.csv)

>>> COPY /tmp/2.10/GMJ_RHS_E_P.csv /home/grierjones/DDCASPT2/iron_oxo_DDCASPT2/cluster/2.10/GMJ_RHS_E_P.csv

>>> COPY /tmp/2.10/GMJ_IVECW_E_P.csv /home/grierjones/DDCASPT2/iron_oxo_DDCASPT2/cluster/2.10/GMJ_IVECW_E_P.csv

>>> COPY /tmp/2.10/GMJ_IVECX_E_P.csv /home/grierjones/DDCASPT2/iron_oxo_DDCASPT2/cluster/2.10/GMJ_IVECX_E_P.csv

>>> COPY /tmp/2.10/GMJ_IVECC2_E_P.csv /home/grierjones/DDCASPT2/iron_oxo_DDCASPT2/cluster/2.10/GMJ_IVECC2_E_P.csv

>>> COPY /tmp/2.10/GMJ_e2_E_P.csv /home/grierjones/DDCASPT2/iron_oxo_DDCASPT2/cluster/2.10/GMJ_e2_E_P.csv

>>> END FOREACH

>>> EXPORT j = M

>>> IF (-FILE GMJ_e2_${i}_${j}.csv)

>>> COPY /tmp/2.10/GMJ_RHS_E_M.csv /home/grierjones/DDCASPT2/iron_oxo_DDCASPT2/cluster/2.10/GMJ_RHS_E_M.csv

>>> COPY /tmp/2.10/GMJ_IVECW_E_M.csv /home/grierjones/DDCASPT2/iron_oxo_DDCASPT2/cluster/2.10/GMJ_IVECW_E_M.csv

>>> COPY /tmp/2.10/GMJ_IVECX_E_M.csv /home/grierjones/DDCASPT2/iron_oxo_DDCASPT2/cluster/2.10/GMJ_IVECX_E_M.csv

>>> COPY /tmp/2.10/GMJ_IVECC2_E_M.csv /home/grierjones/DDCASPT2/iron_oxo_DDCASPT2/cluster/2.10/GMJ_IVECC2_E_M.csv

>>> COPY /tmp/2.10/GMJ_e2_E_M.csv /home/grierjones/DDCASPT2/iron_oxo_DDCASPT2/cluster/2.10/GMJ_e2_E_M.csv

>>> END FOREACH

>>> END FOREACH

>>> EXPORT i = F

>>> EXPORT j = P

>>> IF (-FILE GMJ_e2_${i}_${j}.csv)

>>> COPY /tmp/2.10/GMJ_RHS_F_P.csv /home/grierjones/DDCASPT2/iron_oxo_DDCASPT2/cluster/2.10/GMJ_RHS_F_P.csv

>>> COPY /tmp/2.10/GMJ_IVECW_F_P.csv /home/grierjones/DDCASPT2/iron_oxo_DDCASPT2/cluster/2.10/GMJ_IVECW_F_P.csv

>>> COPY /tmp/2.10/GMJ_IVECX_F_P.csv /home/grierjones/DDCASPT2/iron_oxo_DDCASPT2/cluster/2.10/GMJ_IVECX_F_P.csv

>>> COPY /tmp/2.10/GMJ_IVECC2_F_P.csv /home/grierjones/DDCASPT2/iron_oxo_DDCASPT2/cluster/2.10/GMJ_IVECC2_F_P.csv

>>> COPY /tmp/2.10/GMJ_e2_F_P.csv /home/grierjones/DDCASPT2/iron_oxo_DDCASPT2/cluster/2.10/GMJ_e2_F_P.csv

>>> END FOREACH

>>> EXPORT j = M

>>> IF (-FILE GMJ_e2_${i}_${j}.csv)

>>> COPY /tmp/2.10/GMJ_RHS_F_M.csv /home/grierjones/DDCASPT2/iron_oxo_DDCASPT2/cluster/2.10/GMJ_RHS_F_M.csv

>>> COPY /tmp/2.10/GMJ_IVECW_F_M.csv /home/grierjones/DDCASPT2/iron_oxo_DDCASPT2/cluster/2.10/GMJ_IVECW_F_M.csv

>>> COPY /tmp/2.10/GMJ_IVECX_F_M.csv /home/grierjones/DDCASPT2/iron_oxo_DDCASPT2/cluster/2.10/GMJ_IVECX_F_M.csv

>>> COPY /tmp/2.10/GMJ_IVECC2_F_M.csv /home/grierjones/DDCASPT2/iron_oxo_DDCASPT2/cluster/2.10/GMJ_IVECC2_F_M.csv

>>> COPY /tmp/2.10/GMJ_e2_F_M.csv /home/grierjones/DDCASPT2/iron_oxo_DDCASPT2/cluster/2.10/GMJ_e2_F_M.csv

>>> END FOREACH

>>> END FOREACH

>>> EXPORT i = G

>>> EXPORT j = P

>>> IF (-FILE GMJ_e2_${i}_${j}.csv)

>>> COPY /tmp/2.10/GMJ_RHS_G_P.csv /home/grierjones/DDCASPT2/iron_oxo_DDCASPT2/cluster/2.10/GMJ_RHS_G_P.csv

>>> COPY /tmp/2.10/GMJ_IVECW_G_P.csv /home/grierjones/DDCASPT2/iron_oxo_DDCASPT2/cluster/2.10/GMJ_IVECW_G_P.csv

>>> COPY /tmp/2.10/GMJ_IVECX_G_P.csv /home/grierjones/DDCASPT2/iron_oxo_DDCASPT2/cluster/2.10/GMJ_IVECX_G_P.csv

>>> COPY /tmp/2.10/GMJ_IVECC2_G_P.csv /home/grierjones/DDCASPT2/iron_oxo_DDCASPT2/cluster/2.10/GMJ_IVECC2_G_P.csv

>>> COPY /tmp/2.10/GMJ_e2_G_P.csv /home/grierjones/DDCASPT2/iron_oxo_DDCASPT2/cluster/2.10/GMJ_e2_G_P.csv

>>> END FOREACH

>>> EXPORT j = M

>>> IF (-FILE GMJ_e2_${i}_${j}.csv)

>>> COPY /tmp/2.10/GMJ_RHS_G_M.csv /home/grierjones/DDCASPT2/iron_oxo_DDCASPT2/cluster/2.10/GMJ_RHS_G_M.csv

>>> COPY /tmp/2.10/GMJ_IVECW_G_M.csv /home/grierjones/DDCASPT2/iron_oxo_DDCASPT2/cluster/2.10/GMJ_IVECW_G_M.csv

>>> COPY /tmp/2.10/GMJ_IVECX_G_M.csv /home/grierjones/DDCASPT2/iron_oxo_DDCASPT2/cluster/2.10/GMJ_IVECX_G_M.csv

>>> COPY /tmp/2.10/GMJ_IVECC2_G_M.csv /home/grierjones/DDCASPT2/iron_oxo_DDCASPT2/cluster/2.10/GMJ_IVECC2_G_M.csv

>>> COPY /tmp/2.10/GMJ_e2_G_M.csv /home/grierjones/DDCASPT2/iron_oxo_DDCASPT2/cluster/2.10/GMJ_e2_G_M.csv

>>> END FOREACH

>>> END FOREACH

>>> EXPORT i = H

>>> EXPORT j = P

>>> IF (-FILE GMJ_e2_${i}_${j}.csv)

>>> COPY /tmp/2.10/GMJ_RHS_H_P.csv /home/grierjones/DDCASPT2/iron_oxo_DDCASPT2/cluster/2.10/GMJ_RHS_H_P.csv

>>> COPY /tmp/2.10/GMJ_IVECW_H_P.csv /home/grierjones/DDCASPT2/iron_oxo_DDCASPT2/cluster/2.10/GMJ_IVECW_H_P.csv

>>> COPY /tmp/2.10/GMJ_IVECX_H_P.csv /home/grierjones/DDCASPT2/iron_oxo_DDCASPT2/cluster/2.10/GMJ_IVECX_H_P.csv

>>> COPY /tmp/2.10/GMJ_IVECC2_H_P.csv /home/grierjones/DDCASPT2/iron_oxo_DDCASPT2/cluster/2.10/GMJ_IVECC2_H_P.csv

>>> COPY /tmp/2.10/GMJ_e2_H_P.csv /home/grierjones/DDCASPT2/iron_oxo_DDCASPT2/cluster/2.10/GMJ_e2_H_P.csv

>>> END FOREACH

>>> EXPORT j = M

>>> IF (-FILE GMJ_e2_${i}_${j}.csv)

>>> COPY /tmp/2.10/GMJ_RHS_H_M.csv /home/grierjones/DDCASPT2/iron_oxo_DDCASPT2/cluster/2.10/GMJ_RHS_H_M.csv

>>> COPY /tmp/2.10/GMJ_IVECW_H_M.csv /home/grierjones/DDCASPT2/iron_oxo_DDCASPT2/cluster/2.10/GMJ_IVECW_H_M.csv

>>> COPY /tmp/2.10/GMJ_IVECX_H_M.csv /home/grierjones/DDCASPT2/iron_oxo_DDCASPT2/cluster/2.10/GMJ_IVECX_H_M.csv

>>> COPY /tmp/2.10/GMJ_IVECC2_H_M.csv /home/grierjones/DDCASPT2/iron_oxo_DDCASPT2/cluster/2.10/GMJ_IVECC2_H_M.csv

>>> COPY /tmp/2.10/GMJ_e2_H_M.csv /home/grierjones/DDCASPT2/iron_oxo_DDCASPT2/cluster/2.10/GMJ_e2_H_M.csv

>>> END FOREACH

>>> END FOREACH

>>> EXPORT i = A

>>> IF (-FILE GMJ_e2_$i.csv)

>>> COPY /tmp/2.10/GMJ_RHS_A.csv /home/grierjones/DDCASPT2/iron_oxo_DDCASPT2/cluster/2.10/GMJ_RHS_A.csv

>>> COPY /tmp/2.10/GMJ_IVECW_A.csv /home/grierjones/DDCASPT2/iron_oxo_DDCASPT2/cluster/2.10/GMJ_IVECW_A.csv

>>> COPY /tmp/2.10/GMJ_IVECX_A.csv /home/grierjones/DDCASPT2/iron_oxo_DDCASPT2/cluster/2.10/GMJ_IVECX_A.csv

>>> COPY /tmp/2.10/GMJ_IVECC2_A.csv /home/grierjones/DDCASPT2/iron_oxo_DDCASPT2/cluster/2.10/GMJ_IVECC2_A.csv

>>> COPY /tmp/2.10/GMJ_e2_A.csv /home/grierjones/DDCASPT2/iron_oxo_DDCASPT2/cluster/2.10/GMJ_e2_A.csv

>>> END FOREACH

>>> EXPORT i = C

>>> IF (-FILE GMJ_e2_$i.csv)

>>> COPY /tmp/2.10/GMJ_RHS_C.csv /home/grierjones/DDCASPT2/iron_oxo_DDCASPT2/cluster/2.10/GMJ_RHS_C.csv

>>> COPY /tmp/2.10/GMJ_IVECW_C.csv /home/grierjones/DDCASPT2/iron_oxo_DDCASPT2/cluster/2.10/GMJ_IVECW_C.csv

>>> COPY /tmp/2.10/GMJ_IVECX_C.csv /home/grierjones/DDCASPT2/iron_oxo_DDCASPT2/cluster/2.10/GMJ_IVECX_C.csv

>>> COPY /tmp/2.10/GMJ_IVECC2_C.csv /home/grierjones/DDCASPT2/iron_oxo_DDCASPT2/cluster/2.10/GMJ_IVECC2_C.csv

>>> COPY /tmp/2.10/GMJ_e2_C.csv /home/grierjones/DDCASPT2/iron_oxo_DDCASPT2/cluster/2.10/GMJ_e2_C.csv

>>> END FOREACH

>>> EXPORT i = D

>>> IF (-FILE GMJ_e2_$i.csv)

>>> COPY /tmp/2.10/GMJ_RHS_D.csv /home/grierjones/DDCASPT2/iron_oxo_DDCASPT2/cluster/2.10/GMJ_RHS_D.csv

>>> COPY /tmp/2.10/GMJ_IVECW_D.csv /home/grierjones/DDCASPT2/iron_oxo_DDCASPT2/cluster/2.10/GMJ_IVECW_D.csv

>>> COPY /tmp/2.10/GMJ_IVECX_D.csv /home/grierjones/DDCASPT2/iron_oxo_DDCASPT2/cluster/2.10/GMJ_IVECX_D.csv

>>> COPY /tmp/2.10/GMJ_IVECC2_D.csv /home/grierjones/DDCASPT2/iron_oxo_DDCASPT2/cluster/2.10/GMJ_IVECC2_D.csv

>>> COPY /tmp/2.10/GMJ_e2_D.csv /home/grierjones/DDCASPT2/iron_oxo_DDCASPT2/cluster/2.10/GMJ_e2_D.csv

>>> END FOREACH

.########################.
.# Non-zero return code #.
.########################.

    Timing: Wall=440.73 User=436.96 System=3.64
************************************
*** WorkDir at /tmp/2.10 cleaned ***
************************************
