[Molden Format]
[N_Atoms]
                     2
[Atoms] (AU)
F1          1      9           0.00000000      0.00000000      0.00000000
F2          2      9           0.00000000      0.00000000      2.45664396
[Charge] (Mulliken)
   1.00000000000010     
  0.999999999999893     
[GTO] (AU)
   1
   s  14
  1.031094600E+05  1.713099991E-04
  1.528100700E+04  7.123999962E-04
  3.441539200E+03  2.990479984E-03
  9.670948300E+02  1.164036994E-02
  3.140353400E+02  3.968642979E-02
  1.134423000E+02  1.128546094E-01
  4.464472700E+01  2.473650687E-01
  1.894287400E+01  3.672702681E-01
  8.532743000E+00  2.896286985E-01
  3.919401000E+00  7.786681959E-02
  1.568157000E+00  4.562139976E-03
  6.232900000E-01  2.468879987E-03
  2.408610000E-01  1.106309994E-03
  8.430100000E-02  1.739699991E-04
   s  14
  1.031094600E+05 -4.044999995E-05
  1.528100700E+04 -1.682299998E-04
  3.441539200E+03 -7.084299991E-04
  9.670948300E+02 -2.767999996E-03
  3.140353400E+02 -9.611379987E-03
  1.134423000E+02 -2.833957996E-02
  4.464472700E+01 -6.839343991E-02
  1.894287400E+01 -1.237379298E-01
  8.532743000E+00 -1.512859698E-01
  3.919401000E+00 -9.099909988E-03
  1.568157000E+00  3.716257695E-01
  6.232900000E-01  5.500214393E-01
  2.408610000E-01  2.092318697E-01
  8.430100000E-02  8.074639989E-03
   p   9
  2.453302900E+02  1.024860004E-03
  5.691900500E+01  8.344290032E-03
  1.760456800E+01  4.078927016E-02
  6.274995000E+00  1.351370605E-01
  2.447030000E+00  2.798830811E-01
  9.950600000E-01  3.597966414E-01
  4.039730000E-01  3.055347412E-01
  1.548100000E-01  1.354703905E-01
  5.418400000E-02  2.804449011E-02
 
   2
   s  14
  1.031094600E+05  1.713099991E-04
  1.528100700E+04  7.123999962E-04
  3.441539200E+03  2.990479984E-03
  9.670948300E+02  1.164036994E-02
  3.140353400E+02  3.968642979E-02
  1.134423000E+02  1.128546094E-01
  4.464472700E+01  2.473650687E-01
  1.894287400E+01  3.672702681E-01
  8.532743000E+00  2.896286985E-01
  3.919401000E+00  7.786681959E-02
  1.568157000E+00  4.562139976E-03
  6.232900000E-01  2.468879987E-03
  2.408610000E-01  1.106309994E-03
  8.430100000E-02  1.739699991E-04
   s  14
  1.031094600E+05 -4.044999995E-05
  1.528100700E+04 -1.682299998E-04
  3.441539200E+03 -7.084299991E-04
  9.670948300E+02 -2.767999996E-03
  3.140353400E+02 -9.611379987E-03
  1.134423000E+02 -2.833957996E-02
  4.464472700E+01 -6.839343991E-02
  1.894287400E+01 -1.237379298E-01
  8.532743000E+00 -1.512859698E-01
  3.919401000E+00 -9.099909988E-03
  1.568157000E+00  3.716257695E-01
  6.232900000E-01  5.500214393E-01
  2.408610000E-01  2.092318697E-01
  8.430100000E-02  8.074639989E-03
   p   9
  2.453302900E+02  1.024860004E-03
  5.691900500E+01  8.344290032E-03
  1.760456800E+01  4.078927016E-02
  6.274995000E+00  1.351370605E-01
  2.447030000E+00  2.798830811E-01
  9.950600000E-01  3.597966414E-01
  4.039730000E-01  3.055347412E-01
  1.548100000E-01  1.354703905E-01
  5.418400000E-02  2.804449011E-02
 
[MO]
Sym=     1a  
Ene=   -28.1760
Spin= Alpha
Occup=    2.00000
   1         0.70707180
   2        -0.00363134
   3        -0.00000000
   4        -0.00000000
   5         0.00071932
   6         0.70707180
   7        -0.00363134
   8         0.00000000
   9         0.00000000
  10        -0.00071932
Sym=     2a  
Ene=   -28.1760
Spin= Alpha
Occup=    2.00000
   1        -0.70711989
   2         0.00346584
   3        -0.00000000
   4        -0.00000000
   5        -0.00054588
   6         0.70711989
   7        -0.00346584
   8         0.00000000
   9         0.00000000
  10        -0.00054588
Sym=     3a  
Ene=    -3.1001
Spin= Alpha
Occup=    2.00000
   1        -0.00904002
   2         0.59624753
   3         0.00000000
   4        -0.00000000
   5         0.15313980
   6        -0.00904002
   7         0.59624753
   8        -0.00000000
   9         0.00000000
  10        -0.15313980
Sym=     4a  
Ene=    -2.6963
Spin= Alpha
Occup=    2.00000
   1        -0.01241545
   2        -0.77516954
   3         0.00000000
   4        -0.00000000
   5         0.02070204
   6         0.01241545
   7         0.77516954
   8         0.00000000
   9        -0.00000000
  10         0.02070204
Sym=     5a  
Ene=    -1.9943
Spin= Alpha
Occup=    2.00000
   1         0.01874688
   2         0.30190652
   3        -0.00000000
   4         0.00000000
   5        -0.64082136
   6         0.01874688
   7         0.30190652
   8        -0.00000000
   9         0.00000000
  10         0.64082136
Sym=     6a  
Ene=    -1.9467
Spin= Alpha
Occup=    2.00000
   1         0.00000000
   2         0.00000000
   3         0.63510130
   4         0.17243377
   5        -0.00000000
   6         0.00000000
   7        -0.00000000
   8         0.63510130
   9         0.17243377
  10         0.00000000
Sym=     7a  
Ene=    -1.9467
Spin= Alpha
Occup=    2.00000
   1         0.00000000
   2         0.00000000
   3         0.17243377
   4        -0.63510130
   5        -0.00000000
   6         0.00000000
   7         0.00000000
   8         0.17243377
   9        -0.63510130
  10         0.00000000
Sym=     8a  
Ene=    -1.6297
Spin= Alpha
Occup=    1.00000
   1         0.00000000
   2         0.00000000
   3        -0.04669068
   4         0.76758558
   5        -0.00000000
   6         0.00000000
   7         0.00000000
   8         0.04669068
   9        -0.76758558
  10         0.00000000
Sym=     9a  
Ene=     0.0000
Spin= Alpha
Occup=    1.00000
   1        -0.00000000
   2        -0.00000000
   3         0.76758558
   4         0.04669068
   5         0.00000000
   6         0.00000000
   7         0.00000000
   8        -0.76758558
   9        -0.04669068
  10        -0.00000000
Sym=    10a  
Ene=    -1.1224
Spin= Alpha
Occup=    0.00000
   1         0.03145411
   2         0.31101953
   3        -0.00000000
   4        -0.00000000
   5         0.85407203
   6        -0.03145411
   7        -0.31101953
   8        -0.00000000
   9         0.00000000
  10         0.85407203
