[Molden Format]
[N_Atoms]
                     2
[Atoms] (AU)
F1          1      9           0.00000000      0.00000000      0.00000000
F2          2      9           0.00000000      0.00000000      2.45664396
[Charge] (Mulliken)
  9.592326932761353E-014
 -1.101341240428155E-013
[GTO] (AU)
   1
   s  14
  1.031094600E+05  1.713099991E-04
  1.528100700E+04  7.123999962E-04
  3.441539200E+03  2.990479984E-03
  9.670948300E+02  1.164036994E-02
  3.140353400E+02  3.968642979E-02
  1.134423000E+02  1.128546094E-01
  4.464472700E+01  2.473650687E-01
  1.894287400E+01  3.672702681E-01
  8.532743000E+00  2.896286985E-01
  3.919401000E+00  7.786681959E-02
  1.568157000E+00  4.562139976E-03
  6.232900000E-01  2.468879987E-03
  2.408610000E-01  1.106309994E-03
  8.430100000E-02  1.739699991E-04
   s  14
  1.031094600E+05 -4.044999995E-05
  1.528100700E+04 -1.682299998E-04
  3.441539200E+03 -7.084299991E-04
  9.670948300E+02 -2.767999996E-03
  3.140353400E+02 -9.611379987E-03
  1.134423000E+02 -2.833957996E-02
  4.464472700E+01 -6.839343991E-02
  1.894287400E+01 -1.237379298E-01
  8.532743000E+00 -1.512859698E-01
  3.919401000E+00 -9.099909988E-03
  1.568157000E+00  3.716257695E-01
  6.232900000E-01  5.500214393E-01
  2.408610000E-01  2.092318697E-01
  8.430100000E-02  8.074639989E-03
   p   9
  2.453302900E+02  1.024860004E-03
  5.691900500E+01  8.344290032E-03
  1.760456800E+01  4.078927016E-02
  6.274995000E+00  1.351370605E-01
  2.447030000E+00  2.798830811E-01
  9.950600000E-01  3.597966414E-01
  4.039730000E-01  3.055347412E-01
  1.548100000E-01  1.354703905E-01
  5.418400000E-02  2.804449011E-02
 
   2
   s  14
  1.031094600E+05  1.713099991E-04
  1.528100700E+04  7.123999962E-04
  3.441539200E+03  2.990479984E-03
  9.670948300E+02  1.164036994E-02
  3.140353400E+02  3.968642979E-02
  1.134423000E+02  1.128546094E-01
  4.464472700E+01  2.473650687E-01
  1.894287400E+01  3.672702681E-01
  8.532743000E+00  2.896286985E-01
  3.919401000E+00  7.786681959E-02
  1.568157000E+00  4.562139976E-03
  6.232900000E-01  2.468879987E-03
  2.408610000E-01  1.106309994E-03
  8.430100000E-02  1.739699991E-04
   s  14
  1.031094600E+05 -4.044999995E-05
  1.528100700E+04 -1.682299998E-04
  3.441539200E+03 -7.084299991E-04
  9.670948300E+02 -2.767999996E-03
  3.140353400E+02 -9.611379987E-03
  1.134423000E+02 -2.833957996E-02
  4.464472700E+01 -6.839343991E-02
  1.894287400E+01 -1.237379298E-01
  8.532743000E+00 -1.512859698E-01
  3.919401000E+00 -9.099909988E-03
  1.568157000E+00  3.716257695E-01
  6.232900000E-01  5.500214393E-01
  2.408610000E-01  2.092318697E-01
  8.430100000E-02  8.074639989E-03
   p   9
  2.453302900E+02  1.024860004E-03
  5.691900500E+01  8.344290032E-03
  1.760456800E+01  4.078927016E-02
  6.274995000E+00  1.351370605E-01
  2.447030000E+00  2.798830811E-01
  9.950600000E-01  3.597966414E-01
  4.039730000E-01  3.055347412E-01
  1.548100000E-01  1.354703905E-01
  5.418400000E-02  2.804449011E-02
 
[MO]
Sym=     1a  
Ene=   -26.5090
Spin= Alpha
Occup=    1.00000
   1         0.70706678
   2        -0.00252480
   3        -0.00000000
   4        -0.00000000
   5         0.00061125
   6         0.70706678
   7        -0.00252480
   8         0.00000000
   9        -0.00000000
  10        -0.00061125
Sym=     1a  
Ene=   -26.5090
Spin= Beta
Occup=    1.00000
   1         0.70706678
   2        -0.00252480
   3        -0.00000000
   4        -0.00000000
   5         0.00061125
   6         0.70706678
   7        -0.00252480
   8         0.00000000
   9        -0.00000000
  10        -0.00061125
Sym=     2a  
Ene=   -26.5090
Spin= Alpha
Occup=    1.00000
   1        -0.70715492
   2         0.00192307
   3        -0.00000000
   4        -0.00000000
   5        -0.00088100
   6         0.70715492
   7        -0.00192307
   8         0.00000000
   9        -0.00000000
  10        -0.00088100
Sym=     2a  
Ene=   -26.5090
Spin= Beta
Occup=    1.00000
   1        -0.70715492
   2         0.00192307
   3        -0.00000000
   4        -0.00000000
   5        -0.00088100
   6         0.70715492
   7        -0.00192307
   8         0.00000000
   9        -0.00000000
  10        -0.00088100
Sym=     3a  
Ene=    -1.8893
Spin= Alpha
Occup=    1.00000
   1        -0.00930105
   2         0.60951383
   3         0.00000000
   4        -0.00000000
   5         0.12348745
   6        -0.00930105
   7         0.60951383
   8        -0.00000000
   9        -0.00000000
  10        -0.12348745
Sym=     3a  
Ene=    -1.8893
Spin= Beta
Occup=    1.00000
   1        -0.00930105
   2         0.60951383
   3         0.00000000
   4        -0.00000000
   5         0.12348745
   6        -0.00930105
   7         0.60951383
   8        -0.00000000
   9        -0.00000000
  10        -0.12348745
Sym=     4a  
Ene=    -1.5132
Spin= Alpha
Occup=    1.00000
   1        -0.00874401
   2        -0.74942643
   3         0.00000000
   4        -0.00000000
   5         0.08524986
   6         0.00874401
   7         0.74942643
   8        -0.00000000
   9         0.00000000
  10         0.08524986
Sym=     4a  
Ene=    -1.5132
Spin= Beta
Occup=    1.00000
   1        -0.00874401
   2        -0.74942643
   3         0.00000000
   4        -0.00000000
   5         0.08524986
   6         0.00874401
   7         0.74942643
   8        -0.00000000
   9         0.00000000
  10         0.08524986
Sym=     5a  
Ene=    -0.8746
Spin= Alpha
Occup=    1.00000
   1         0.00000000
   2         0.00000000
   3         0.47080396
   4         0.45981594
   5        -0.00000000
   6         0.00000000
   7         0.00000000
   8         0.47080396
   9         0.45981594
  10         0.00000000
Sym=     5a  
Ene=    -0.8746
Spin= Beta
Occup=    1.00000
   1         0.00000000
   2         0.00000000
   3         0.47080396
   4         0.45981594
   5        -0.00000000
   6         0.00000000
   7         0.00000000
   8         0.47080396
   9         0.45981594
  10         0.00000000
Sym=     6a  
Ene=    -0.8746
Spin= Alpha
Occup=    1.00000
   1         0.00000000
   2         0.00000000
   3        -0.45981594
   4         0.47080396
   5        -0.00000000
   6         0.00000000
   7         0.00000000
   8        -0.45981594
   9         0.47080396
  10         0.00000000
Sym=     6a  
Ene=    -0.8746
Spin= Beta
Occup=    1.00000
   1         0.00000000
   2         0.00000000
   3        -0.45981594
   4         0.47080396
   5        -0.00000000
   6         0.00000000
   7         0.00000000
   8        -0.45981594
   9         0.47080396
  10         0.00000000
Sym=     7a  
Ene=    -0.8166
Spin= Alpha
Occup=    1.00000
   1         0.01880871
   2         0.27415028
   3        -0.00000000
   4        -0.00000000
   5        -0.64718993
   6         0.01880871
   7         0.27415028
   8         0.00000000
   9        -0.00000000
  10         0.64718993
Sym=     7a  
Ene=    -0.8166
Spin= Beta
Occup=    1.00000
   1         0.01880871
   2         0.27415028
   3        -0.00000000
   4        -0.00000000
   5        -0.64718993
   6         0.01880871
   7         0.27415028
   8         0.00000000
   9        -0.00000000
  10         0.64718993
Sym=     8a  
Ene=    -0.6905
Spin= Alpha
Occup=    1.00000
   1        -0.00000000
   2        -0.00000000
   3        -0.62029434
   4        -0.45453556
   5         0.00000000
   6        -0.00000000
   7        -0.00000000
   8         0.62029434
   9         0.45453556
  10        -0.00000000
Sym=     8a  
Ene=    -0.6905
Spin= Beta
Occup=    1.00000
   1        -0.00000000
   2        -0.00000000
   3        -0.62029434
   4        -0.45453556
   5         0.00000000
   6        -0.00000000
   7        -0.00000000
   8         0.62029434
   9         0.45453556
  10        -0.00000000
Sym=     9a  
Ene=    -0.6905
Spin= Alpha
Occup=    1.00000
   1         0.00000000
   2         0.00000000
   3         0.45453556
   4        -0.62029434
   5        -0.00000000
   6         0.00000000
   7         0.00000000
   8        -0.45453556
   9         0.62029434
  10         0.00000000
Sym=     9a  
Ene=    -0.6905
Spin= Beta
Occup=    1.00000
   1         0.00000000
   2         0.00000000
   3         0.45453556
   4        -0.62029434
   5        -0.00000000
   6         0.00000000
   7         0.00000000
   8        -0.45453556
   9         0.62029434
  10         0.00000000
Sym=    10a  
Ene=     0.1508
Spin= Alpha
Occup=    0.00000
   1         0.03189836
   2         0.36876727
   3         0.00000000
   4         0.00000000
   5         0.85005858
   6        -0.03189836
   7        -0.36876727
   8         0.00000000
   9         0.00000000
  10         0.85005858
Sym=    10a  
Ene=     0.1508
Spin= Beta
Occup=    0.00000
   1         0.03189836
   2         0.36876727
   3         0.00000000
   4         0.00000000
   5         0.85005858
   6        -0.03189836
   7        -0.36876727
   8         0.00000000
   9         0.00000000
  10         0.85005858
