[Molden Format]
[N_Atoms]
                     2
[Atoms] (AU)
N1          1      7           0.00000000      0.00000000      0.00000000
O2          2      8           0.00000000      0.00000000      1.88972612
[Charge] (Mulliken)
  0.213589169566432     
 -0.213589169566456     
[GTO] (AU)
   1
   s  14
  7.476171500E+04  1.182599996E-04
  1.112365400E+04  5.172899983E-04
  2.512685700E+03  2.266659992E-03
  7.037772900E+02  9.145289970E-03
  2.254787900E+02  3.239342989E-02
  7.961581000E+01  9.770792967E-02
  3.023728300E+01  2.317036792E-01
  1.226362200E+01  3.768898887E-01
  5.265086000E+00  3.177420689E-01
  2.333471000E+00  8.211308973E-02
  9.018560000E-01  3.312089989E-03
  3.583360000E-01  3.720819988E-03
  1.410930000E-01  3.165419989E-03
  4.938300000E-02  4.595799985E-04
   s  14
  7.476171500E+04 -2.707000010E-05
  1.112365400E+04 -1.183700004E-04
  2.512685700E+03 -5.203800020E-04
  7.037772900E+02 -2.102930008E-03
  2.254787900E+02 -7.568200028E-03
  7.961581000E+01 -2.346767009E-02
  3.023728300E+01 -6.042901023E-02
  1.226362200E+01 -1.170549104E-01
  5.265086000E+00 -1.555321506E-01
  2.333471000E+00 -2.468935009E-02
  9.018560000E-01  3.625054514E-01
  3.583360000E-01  5.550845021E-01
  1.410930000E-01  2.148376908E-01
  4.938300000E-02  8.983850034E-03
   p   9
  1.266665700E+02  1.233630000E-03
  2.983738900E+01  9.493409996E-03
  9.394038000E+00  4.293961998E-02
  3.405104000E+00  1.362925399E-01
  1.350000000E+00  2.921362499E-01
  5.576960000E-01  3.887887598E-01
  2.324490000E-01  2.946801399E-01
  9.426400000E-02  8.012875997E-02
  3.299200000E-02  5.405199998E-04
 
   2
   s  14
  1.053749500E+05  1.238600013E-04
  1.567924000E+04  5.120100053E-04
  3.534544700E+03  2.152910022E-03
  9.873651600E+02  8.528440089E-03
  3.159787500E+02  3.018049031E-02
  1.116542800E+02  9.099702095E-02
  4.269945100E+01  2.177936423E-01
  1.739559600E+01  3.686245738E-01
  7.438309000E+00  3.366707335E-01
  3.222862000E+00  9.657630101E-02
  1.253877000E+00  2.144520022E-03
  4.951550000E-01  1.194350012E-03
  1.916650000E-01  5.390200056E-04
  6.708300000E-02  2.103400022E-04
   s  14
  1.053749500E+05 -2.815000008E-05
  1.567924000E+04 -1.163000003E-04
  3.534544700E+03 -4.909200013E-04
  9.873651600E+02 -1.946160005E-03
  3.159787500E+02 -7.005300019E-03
  1.116542800E+02 -2.167814006E-02
  4.269945100E+01 -5.641213015E-02
  1.739559600E+01 -1.127053003E-01
  7.438309000E+00 -1.589119704E-01
  3.222862000E+00 -3.355083009E-02
  1.253877000E+00  3.531902810E-01
  4.951550000E-01  5.534199315E-01
  1.916650000E-01  2.301839106E-01
  6.708300000E-02  1.127267003E-02
   p   9
  2.000000000E+02  9.173000030E-04
  4.653336700E+01  7.377140024E-03
  1.462180900E+01  3.483515011E-02
  5.313064000E+00  1.144397004E-01
  2.102525000E+00  2.554966408E-01
  8.502230000E-01  3.722557412E-01
  3.375970000E-01  3.323314911E-01
  1.288920000E-01  1.400847905E-01
  4.511200000E-02  2.395784008E-02
 
[MO]
Sym=     1a  
Ene=   -20.9100
Spin= Alpha
Occup=    1.00000
   1        -0.00049053
   2        -0.00276844
   3        -0.00000000
   4        -0.00000000
   5        -0.00123263
   6         1.00028029
   7         0.00269746
   8         0.00000000
   9         0.00000000
  10        -0.00389749
Sym=     1a  
Ene=   -20.8930
Spin= Beta
Occup=    1.00000
   1        -0.00031076
   2        -0.00215620
   3        -0.00000000
   4        -0.00000000
   5        -0.00083955
   6         1.00020599
   7         0.00151083
   8         0.00000000
   9         0.00000000
  10        -0.00365071
Sym=     2a  
Ene=   -15.8930
Spin= Alpha
Occup=    1.00000
   1         1.00030894
   2        -0.00227306
   3        -0.00000000
   4         0.00000000
   5         0.00545696
   6        -0.00137978
   7        -0.00376066
   8         0.00000000
   9        -0.00000000
  10         0.00075584
Sym=     2a  
Ene=   -15.8640
Spin= Beta
Occup=    1.00000
   1         1.00014986
   2        -0.00484869
   3        -0.00000000
   4         0.00000000
   5         0.00487164
   6        -0.00124778
   7        -0.00252006
   8         0.00000000
   9        -0.00000000
  10         0.00012263
Sym=     3a  
Ene=    -1.8683
Spin= Alpha
Occup=    1.00000
   1        -0.06910075
   2         0.30419307
   3         0.00000000
   4        -0.00000000
   5         0.24104076
   6        -0.04300853
   7         0.59356308
   8        -0.00000000
   9        -0.00000000
  10        -0.29345683
Sym=     3a  
Ene=    -1.8266
Spin= Beta
Occup=    1.00000
   1        -0.07031126
   2         0.28088678
   3         0.00000000
   4        -0.00000000
   5         0.25101073
   6        -0.04218998
   7         0.59800558
   8        -0.00000000
   9        -0.00000000
  10        -0.30774511
Sym=     4a  
Ene=    -0.9856
Spin= Alpha
Occup=    1.00000
   1         0.00320513
   2        -0.61328110
   3         0.00000000
   4        -0.00000000
   5         0.04911086
   6         0.03204204
   7         0.73931375
   8         0.00000000
   9        -0.00000000
  10         0.46777777
Sym=     4a  
Ene=    -0.9156
Spin= Beta
Occup=    1.00000
   1         0.01510060
   2        -0.48947109
   3         0.00000000
   4        -0.00000000
   5        -0.00270182
   6         0.03061426
   7         0.72355369
   8         0.00000000
   9        -0.00000000
  10         0.56827973
Sym=     5a  
Ene=    -0.9355
Spin= Alpha
Occup=    1.00000
   1         0.00000000
   2        -0.00000000
   3         0.18674703
   4         0.47381864
   5        -0.00000000
   6         0.00000000
   7         0.00000000
   8         0.25603331
   9         0.64961329
  10         0.00000000
Sym=     5a  
Ene=    -0.8050
Spin= Beta
Occup=    1.00000
   1         0.00000000
   2         0.00000000
   3         0.42839626
   4        -0.16884463
   5        -0.00000000
   6         0.00000000
   7        -0.00000000
   8         0.68736312
   9        -0.27091172
  10         0.00000000
Sym=     6a  
Ene=    -0.8185
Spin= Alpha
Occup=    1.00000
   1         0.00000000
   2         0.00000000
   3         0.45317810
   4        -0.17861194
   5        -0.00000000
   6         0.00000000
   7        -0.00000000
   8         0.66710679
   9        -0.26292806
  10         0.00000000
Sym=     6a  
Ene=    -0.7659
Spin= Beta
Occup=    1.00000
   1         0.00000000
   2         0.00000000
   3         0.16232395
   4         0.41185186
   5        -0.00000000
   6         0.00000000
   7         0.00000000
   8         0.27606886
   9         0.70044791
  10         0.00000000
Sym=     7a  
Ene=    -0.7488
Spin= Alpha
Occup=    1.00000
   1         0.05837989
   2         0.67011534
   3        -0.00000000
   4         0.00000000
   5        -0.61807280
   6         0.02268533
   7         0.18566660
   8        -0.00000000
   9         0.00000000
  10         0.58227388
Sym=     7a  
Ene=    -0.7003
Spin= Beta
Occup=    1.00000
   1         0.05417754
   2         0.73523199
   3        -0.00000000
   4        -0.00000000
   5        -0.62974402
   6         0.01986091
   7         0.11779082
   8        -0.00000000
   9        -0.00000000
  10         0.49418270
Sym=     8a  
Ene=    -0.4446
Spin= Alpha
Occup=    1.00000
   1         0.00000000
   2         0.00000000
   3        -0.34506599
   4        -0.87550895
   5         0.00000000
   6        -0.00000000
   7        -0.00000000
   8         0.29730782
   9         0.75433587
  10         0.00000000
Sym=     8a  
Ene=     0.1573
Spin= Beta
Occup=    0.00000
   1         0.00000000
   2         0.00000000
   3        -0.89860818
   4         0.35417014
   5        -0.00000000
   6        -0.00000000
   7         0.00000000
   8         0.72010552
   9        -0.28381655
  10         0.00000000
Sym=     9a  
Ene=     0.1276
Spin= Alpha
Occup=    0.00000
   1         0.00000000
   2         0.00000000
   3        -0.88636879
   4         0.34934620
   5        -0.00000000
   6        -0.00000000
   7         0.00000000
   8         0.73891039
   9        -0.29122814
  10         0.00000000
Sym=     9a  
Ene=     0.2100
Spin= Beta
Occup=    0.00000
   1         0.00000000
   2         0.00000000
   3        -0.35720573
   4        -0.90631014
   5         0.00000000
   6        -0.00000000
   7        -0.00000000
   8         0.27880276
   9         0.70738444
  10         0.00000000
Sym=    10a  
Ene=     1.0363
Spin= Alpha
Occup=    0.00000
   1         0.20049458
   2         1.22172118
   3         0.00000000
   4         0.00000000
   5         1.21844739
   6        -0.18991403
   7        -1.26625282
   8        -0.00000000
   9        -0.00000000
  10         1.07967334
Sym=    10a  
Ene=     1.0877
Spin= Beta
Occup=    0.00000
   1         0.20150170
   2         1.24548931
   3         0.00000000
   4         0.00000000
   5         1.21142734
   6        -0.19103845
   7        -1.28131485
   8         0.00000000
   9        -0.00000000
  10         1.07135770
