   This run of MOLCAS is using the pymolcas driver

                             OPE
                             OPE          NMOL  CASOP  ENMOLC A   SO
                 OPE        NMOLC        AS  OP EN  MO LC     AS  OP
                OPENM       OL CA        SO  PE NM  OL CA     SOP EN
                OP EN      MO   LC       AS  OP ENMOL  CASO   PENMOL
                OP  EN     MO   LC       AS  OP EN     MO     LC ASO
               OP   E  NMOL  C  AS       OP  EN MO     LC     AS  OP
               OP  E   NMO   LC AS        OPEN  MO     LCASOP EN   M
               O  PEN   MO  LCA  SO
            OPE   NMO   L   CAS    OP
        OPENMOL  CASOP     ENMOL   CASOPE
     OPENMOLCA   SOPENMOLCASOPEN   MOLCASOPE
    OPENMOLCAS   OP           EN   MOL    CAS
    OPENMOLCAS       OP  ENM        O     LCA
    OPENMOLCAS    OPEN  MOLCASO     P  E  NMO
    OPENMOLCAS     OP               E  N  MOL
    OPENMOLCA   SO           PENM   O  L  CAS    OPEN    MO    LCAS
    OPENMOLCA   SOP           ENM   O  L  CAS   OP  EN  MOLC  AS   O
    OPENMOLCA   SOPE           NM      O  LCA   S      OP  EN MO
    OPENMOLC                AS         O  PEN   M      OL  CA  SOPE
    OPENMO        LCASOPE  NMOL        C  ASO   P      ENMOLC     AS
    OPE     NMO      LCA  SO     P     E   NM   OL  CA SO  PE N   MO
          OPENMOLCA            SOPE   NMO        LCAS  O    P  ENMO
     OPENMOLCASOPENMOLCASOPENMOLCASOPENMOLCA
        OPENMOLCASOPENMOLCASOPENMOLCASOPE
            OPENMOLCASOPENMOLCASOPENM
               OPENMOLCASOPENMOLCA        version: ea724fe96-dirty
                   OPENMOLCASO
                       OPE                tag:

 OpenMolcas is free software; you can redistribute it and/or modify it
 under the terms of the GNU Lesser General Public License version 2.1.
 OpenMolcas is distributed in the hope that it will be useful, but it
 is provided "as is" and without any express or implied warranties.
 For more details see the full text of the license in the file
 LICENSE or in <http://www.gnu.org/licenses/>.

                 Copyright (C) The OpenMolcas Authors
           For the author list and the recommended citation,
                   consult the file CONTRIBUTORS.md

           *************************************************
           * pymolcas version py2.28                       *
           *   build c4a6d18ded8cb6cad61d2372a9abd97c      *
           *   (after the EMIL interpreter by V. Veryazov) *
           *************************************************

configuration info
------------------
C Compiler ID: Intel
C flags: -std=gnu99
Fortran Compiler ID: Intel
Fortran flags: -fpp -i8 -r8 -heap-arrays
Definitions: _MOLCAS_;_I8_;_LINUX_
Parallel: OFF (GA=OFF)


   --------------------------------------------------------------------------------
  |
  |              Project: H6_2.49
  |       Submitted from: /home/grierjones/DDCASPT2/hydrogen_comps/H6_chain/H6_2.49
  |         Scratch area: /tmp/H6_2.49
  |      Save outputs to: /home/grierjones/DDCASPT2/hydrogen_comps/H6_chain/H6_2.49
  |               Molcas: /home/grierjones/Test/build
  |
  | Scratch area is empty
  |
  |       MOLCAS_DRIVER = /usr/local/pymolcas
  | MOLCAS_KEEP_WORKDIR = NO
  |  MOLCAS_NEW_WORKDIR = YES
  |       MOLCAS_NPROCS = 1
  |        MOLCAS_PRINT = NORMAL
  |       MOLCAS_SOURCE = /home/grierjones/Test/build
  |    MOLCAS_STRUCTURE = 0
  |
   --------------------------------------------------------------------------------

++ ---------   Input file   ---------

&GATEWAY
coord=H6_2.49.xyz
Basis = ANO-RCC-VDZP
Group = nosymm
Expert
End of Input

&SEWARD
End of Input

&SCF

>>> COPY $WorkDir/H6_2.49.scf.h5 $CurrDir/

&RASSCF
Title= RASSCF
FileOrb
/home/grierjones/DDCASPT2/hydrogen_comps/H6_chain/H6_2.47/H6_2.47.RasOrb
NACTEL
6 0 0
Inactive
0
RAS2
6
Symmetry
1
Spin
1
orblisting
all
ITERation
300 200

>>> COPY $WorkDir/H6_2.49.rasscf.h5 $CurrDir/

>>> COPY $WorkDir/GMJ_Fock_MO.csv $CurrDir/H6_2.49.GMJ_Fock_MO.csv

>>> COPY $WorkDir/GMJ_PT2_Fock_MO.csv $CurrDir/H6_2.49.GMJ_PT2_Fock_MO.csv

&MOTRA
Frozen=0
LUMORB

>>> COPY $WorkDir/GMJ_one_int_indx.csv $CurrDir/H6_2.49.GMJ_one_int_indx.csv

>>> COPY $WorkDir/GMJ_one_int.csv $CurrDir/H6_2.49.GMJ_one_int.csv

>>> COPY $WorkDir/GMJ_two_int_indx.csv $CurrDir/H6_2.49.GMJ_two_int_indx.csv

>>> COPY $WorkDir/GMJ_two_int.csv $CurrDir/H6_2.49.GMJ_two_int.csv

&CASPT2
Frozen
0
MAXITER
50

>>> FOREACH i IN (B,E,F,G,H)

  >>> FOREACH j IN (P,M)

    >>> IF (-FILE GMJ_e2_${i}_${j}.csv)

      >>> COPY $WorkDir/GMJ_RHS_${i}_${j}.csv $CurrDir/GMJ_RHS_${i}_${j}.csv

      >>> COPY $WorkDir/GMJ_IVECW_${i}_${j}.csv $CurrDir/GMJ_IVECW_${i}_${j}.csv

      >>> COPY $WorkDir/GMJ_IVECX_${i}_${j}.csv $CurrDir/GMJ_IVECX_${i}_${j}.csv

      >>> COPY $WorkDir/GMJ_IVECC2_${i}_${j}.csv $CurrDir/GMJ_IVECC2_${i}_${j}.csv

      >>> COPY $WorkDir/GMJ_e2_${i}_${j}.csv $CurrDir/GMJ_e2_${i}_${j}.csv

    >>> END IF

  >>> END FOREACH

>>> END FOREACH

>>> FOREACH i IN (A,C,D)

  >>> IF (-FILE GMJ_e2_$i.csv)

    >>> COPY $WorkDir/GMJ_RHS_$i.csv $CurrDir/GMJ_RHS_$i.csv

    >>> COPY $WorkDir/GMJ_IVECW_$i.csv $CurrDir/GMJ_IVECW_$i.csv

    >>> COPY $WorkDir/GMJ_IVECX_$i.csv $CurrDir/GMJ_IVECX_$i.csv

    >>> COPY $WorkDir/GMJ_IVECC2_$i.csv $CurrDir/GMJ_IVECC2_$i.csv

    >>> COPY $WorkDir/GMJ_e2_$i.csv $CurrDir/GMJ_e2_$i.csv

  >>> END IF

>>> END FOREACH

-- ----------------------------------

--- Start Module: gateway at Mon Nov 18 14:13:24 2024 ---
 
()()()()()()()()()()()()()()()()()()()()()()()()()()()()()()()()()()()()()()()()()()()()()()()()()()

                                              &GATEWAY

                                   only a single process is used
                       available to each process: 2.0 GB of memory, 1 thread?
()()()()()()()()()()()()()()()()()()()()()()()()()()()()()()()()()()()()()()()()()()()()()()()()()()
 
 ###############################################################################
 ###############################################################################
 ###                                                                         ###
 ###                                                                         ###
 ###                                                                         ###
 ###    WARNING: EXPERT option is ON!                                        ###
 ###                                                                         ###
 ###                                                                         ###
 ###############################################################################
 ###############################################################################
 
++    Symmetry information:
      ---------------------
 
                    Character Table for C1 
 
                             E  
                    a        1  x, y, xy, Rz, z, xz, Ry, yz, Rx, I
--
 
 
++    Basis set information:
      ----------------------
 
 
      Basis set label: H.ANO-RCC...2S1P.
 
      Electronic valence basis set:
      ------------------
      Associated Effective Charge   1.000000 au
      Associated Actual Charge      1.000000 au
      Nuclear Model: Point charge
 
      Shell  nPrim  nBasis  Cartesian Spherical Contaminant
         s       8       2        X                  
         p       4       1        X                  
--
 
 
++    Molecular structure info:
      -------------------------
 
                    ************************************************ 
                    **** Cartesian Coordinates / Bohr, Angstrom **** 
                    ************************************************ 
 
     Center  Label                x              y              z                     x              y              z
        1      H1               0.000000       0.000000       0.000000              0.000000       0.000000       0.000000
        2      H2               0.000000       0.000000       4.707136              0.000000       0.000000       2.490909
        3      H3               0.000000       0.000000       9.414272              0.000000       0.000000       4.981818
        4      H4               0.000000       0.000000      14.121407              0.000000       0.000000       7.472727
        5      H5               0.000000       0.000000      18.828543              0.000000       0.000000       9.963636
        6      H6               0.000000       0.000000      23.535679              0.000000       0.000000      12.454545
 
                    *************************************** 
                    *    InterNuclear Distances / Bohr    * 
                    *************************************** 
 
               1 H1            2 H2            3 H3            4 H4            5 H5            6 H6    
    1 H1       0.000000
    2 H2       4.707136        0.000000
    3 H3       9.414272        4.707136        0.000000
    4 H4      14.121407        9.414272        4.707136        0.000000
    5 H5      18.828543       14.121407        9.414272        4.707136        0.000000
    6 H6      23.535679       18.828543       14.121407        9.414272        4.707136        0.000000
 
                    ******************************************* 
                    *    InterNuclear Distances / Angstrom    * 
                    ******************************************* 
 
               1 H1            2 H2            3 H3            4 H4            5 H5            6 H6    
    1 H1       0.000000
    2 H2       2.490909        0.000000
    3 H3       4.981818        2.490909        0.000000
    4 H4       7.472727        4.981818        2.490909        0.000000
    5 H5       9.963636        7.472727        4.981818        2.490909        0.000000
    6 H6      12.454545        9.963636        7.472727        4.981818        2.490909        0.000000
--
 
 
            Nuclear Potential Energy              1.84825770 au
 
 ###############################################################################
 ###############################################################################
 ###                                                                         ###
 ###                                                                         ###
 ###    There were warnings during the execution                             ###
 ###    Please, check the output with care!                                  ###
 ###                                                                         ###
 ###                                                                         ###
 ###############################################################################
 ###############################################################################
--- Stop Module: gateway at Mon Nov 18 14:13:24 2024 /rc=_RC_ALL_IS_WELL_ ---
*** files: xmldump
    saved to directory /home/grierjones/DDCASPT2/hydrogen_comps/H6_chain/H6_2.49

--- Start Module: seward at Mon Nov 18 14:13:24 2024 ---
 
()()()()()()()()()()()()()()()()()()()()()()()()()()()()()()()()()()()()()()()()()()()()()()()()()()

                                              &SEWARD

                                   only a single process is used
                       available to each process: 2.0 GB of memory, 1 thread?
()()()()()()()()()()()()()()()()()()()()()()()()()()()()()()()()()()()()()()()()()()()()()()()()()()
 
 ###############################################################################
 ###############################################################################
 ###                                                                         ###
 ###                                                                         ###
 ###                                                                         ###
 ###    WARNING: EXPERT option is ON!                                        ###
 ###                                                                         ###
 ###                                                                         ###
 ###############################################################################
 ###############################################################################
               SEWARD will generate:
                  Multipole Moment integrals up to order  2
                  Kinetic Energy integrals
                  Nuclear Attraction integrals (point charge)
                  One-Electron Hamiltonian integrals
                  Velocity integrals
                  Relativistic Douglas-Kroll-Hess integrals:
                    - Parametrization         : EXP
                    - DKH order of Hamiltonian: 2
                    - DKH order of Properties : 0
                         - multipole moment operators
                         - electric potential operators
                         - contact operators
                  Atomic mean-field integrals
                  Two-Electron Repulsion integrals
 
                   Integrals are discarded if absolute value <: 0.10E-13
                   Integral cutoff threshold is set to       <: 0.10E-15
 
            Nuclear Potential Energy              1.84825770 au
 
 
      Basis set specifications :
      Symmetry species         a  
      Basis functions           30
 
 
  Input file to MOLDEN was generated!
 
 ###############################################################################
 ###############################################################################
 ###                                                                         ###
 ###                                                                         ###
 ###    There were warnings during the execution                             ###
 ###    Please, check the output with care!                                  ###
 ###                                                                         ###
 ###                                                                         ###
 ###############################################################################
 ###############################################################################
--- Stop Module: seward at Mon Nov 18 14:13:24 2024 /rc=_RC_ALL_IS_WELL_ ---
*** files: H6_2.49.GssOrb H6_2.49.guessorb.h5 H6_2.49.guessorb.molden xmldump
    saved to directory /home/grierjones/DDCASPT2/hydrogen_comps/H6_chain/H6_2.49

*** symbolic link created: INPORB -> H6_2.49.GssOrb
--- Start Module: scf at Mon Nov 18 14:13:24 2024 ---
 
()()()()()()()()()()()()()()()()()()()()()()()()()()()()()()()()()()()()()()()()()()()()()()()()()()

                                                &SCF

                                   only a single process is used
                       available to each process: 2.0 GB of memory, 1 thread?
()()()()()()()()()()()()()()()()()()()()()()()()()()()()()()()()()()()()()()()()()()()()()()()()()()
 
++    Input section:
      --------------
 
      Header of the integral files:
      
       Integrals generated by seward 4.2.0  , Mon Nov 18 14:13:24 2024
 
 
      Cartesian coordinates in Angstrom:
      -----------------------------------------------------
      No.  Label        X            Y            Z        
      -----------------------------------------------------
       1   H1         0.00000000   0.00000000   0.00000000
       2   H2         0.00000000   0.00000000   2.49090900
       3   H3         0.00000000   0.00000000   4.98181800
       4   H4         0.00000000   0.00000000   7.47272700
       5   H5         0.00000000   0.00000000   9.96363600
       6   H6         0.00000000   0.00000000  12.45454500
      -----------------------------------------------------
      Nuclear repulsion energy =    1.84825770
--
 
++    Orbital specifications:
      -----------------------
 
      Symmetry species               1
                                     a
      Frozen orbitals                0
      Occupied orbitals              3
      Secondary orbitals            27
      Deleted orbitals               0
      Total number of orbitals      30
      Number of basis functions     30
--
 
      Molecular charge                           0.000
 
++    Optimization specifications:
      ----------------------------
 
      SCF Algorithm: Conventional
      Minimized density differences are used
      Number of density matrices in core                5
      Maximum number of NDDO SCF iterations           400
      Maximum number of HF SCF iterations             400
      Threshold for SCF energy change            0.10E-08
      Threshold for density matrix               0.10E-03
      Threshold for Fock matrix                  0.15E-03
      Threshold for linear dependence            0.10E-08
      Threshold at which DIIS is turned on       0.15E+00
      Threshold at which QNR/C2DIIS is turned on 0.75E-01
      Threshold for Norm(delta) (QNR/C2DIIS)     0.20E-04
      DIIS extrapolation of the SCF procedure
      All orbitals punched on: SCFORB
--
 
      Input vectors read from INPORB
      Orbital file label: *Guess orbitals
 
 
++ Convergence information
                                   SCF        iterations: Energy and convergence statistics
 
Iter     Tot. SCF        One-elec.       Two-elec.     Energy      Max Dij or  Max Fij      DNorm      TNorm      AccCon     Time
         Energy          Energy          Energy        Change      Delta Norm                                                in Sec.
   1    -2.426848685    -6.796952658     2.521846275   0.00E+00    0.38E+00*   0.12E+00*    0.38E+01   0.60E+01   None         0.
   2    -2.597101499    -6.776737666     2.331378469  -0.17E+00*   0.12E+00*   0.24E-01*    0.11E+01   0.58E+01   EDIIS        0.
   3    -2.605298325    -6.730487813     2.276931790  -0.82E-02*   0.77E-01*   0.91E-02*    0.23E+00   0.57E+01   EDIIS        0.
   4    -2.606652859    -6.735465696     2.280555139  -0.14E-02*   0.50E-01*   0.59E-02*    0.14E+00   0.57E+01   c2DIIS       0.
   5    -2.607099920    -6.725910069     2.270552451  -0.45E-03*   0.16E-01*   0.34E-02*    0.21E-01   0.57E+01   QNRc2DIIS    0.
   6    -2.607230707    -6.731309465     2.275821061  -0.13E-03*   0.10E-01*   0.19E-02*    0.57E-02   0.57E+01   QNRc2DIIS    0.
   7    -2.607289804    -6.729460226     2.273912724  -0.59E-04*   0.57E-02*   0.64E-03*    0.86E-03   0.57E+01   QNRc2DIIS    0.
   8    -2.607297849    -6.728606063     2.273050517  -0.80E-05*   0.10E-03*   0.11E-04     0.58E-03   0.57E+01   QNRc2DIIS    0.
   9    -2.607297851    -6.728606942     2.273051393  -0.27E-08*   0.25E-04*   0.21E-05     0.86E-04   0.57E+01   QNRc2DIIS    0.
  10    -2.607297852    -6.728606087     2.273050538  -0.12E-09    0.39E-05    0.41E-06     0.13E-04   0.57E+01   QNRc2DIIS    0.
 
       Convergence after 10 Macro Iterations
--
 
 *****************************************************************************************************************************
 *                                                                                                                           *
 *                                             SCF/KS-DFT Program, Final results                                             *
 *                                                                                                                           *
 *                                                                                                                           *
 *                                                                                                                           *
 *                                                       Final Results                                                       *
 *                                                                                                                           *
 *****************************************************************************************************************************
 
::    Total SCF energy                                 -2.6072978515
      One-electron energy                              -6.7286060867
      Two-electron energy                               2.2730505377
      Nuclear repulsion energy                          1.8482576974
      Kinetic energy (interpolated)                     1.9769563346
      Virial theorem                                    1.3188444307
      Total spin, S(S+1)                                0.0000000000
      Total spin, S                                     0.0000000000
      Max non-diagonal density matrix element           0.0000060891
      Max non-diagonal Fock matrix element              0.0000003241
 
 
      All orbitals with orbital energies smaller than  E(LUMO)+0.5 are printed
 
++    Molecular orbitals:
      -------------------
 
      Title: SCF orbitals

      Molecular orbitals for symmetry species 1: a  
 
          Orbital            1         2         3         4         5         6         7         8    
          Energy           -0.3895   -0.3663   -0.3354   -0.1413   -0.0969   -0.0575    0.3242    0.3454
          Occ. No.          2.0000    2.0000    2.0000    0.0000    0.0000    0.0000    0.0000    0.0000
 
        1 H1     1s         0.2415   -0.4146    0.3855   -0.4636    0.5519   -0.3522   -0.1440    0.1883
        2 H1     2s         0.0435   -0.0796    0.0808   -0.1472    0.1885   -0.1244    0.2906   -0.4871
        3 H1     2px       -0.0000   -0.0000    0.0000   -0.0000    0.0000    0.0000   -0.0000    0.0000
        4 H1     2py       -0.0000    0.0000   -0.0000   -0.0000    0.0000   -0.0000    0.0000    0.0000
        5 H1     2pz        0.0090   -0.0128    0.0092    0.0044   -0.0132    0.0145   -0.0153    0.0198
        6 H2     1s         0.3186   -0.4539    0.3162    0.2834   -0.5962    0.5300   -0.2231    0.2123
        7 H2     2s         0.0520   -0.1013    0.0949    0.0846   -0.2101    0.1911    0.2698   -0.2927
        8 H2     2px       -0.0000   -0.0000   -0.0000    0.0000    0.0000   -0.0000    0.0000    0.0000
        9 H2     2py       -0.0000    0.0000    0.0000    0.0000    0.0000   -0.0000   -0.0000    0.0000
       10 H2     2pz       -0.0018    0.0090   -0.0135    0.0191   -0.0117   -0.0042    0.0034   -0.0061
       11 H3     1s         0.4338   -0.0774   -0.4498    0.4978    0.1774   -0.6686   -0.2319    0.0784
       12 H3     2s         0.0774    0.0008   -0.1184    0.1604    0.0683   -0.2378    0.3165   -0.1307
       13 H3     2px        0.0000    0.0000    0.0000   -0.0000    0.0000    0.0000    0.0000    0.0000
       14 H3     2py       -0.0000   -0.0000    0.0000   -0.0000   -0.0000   -0.0000   -0.0000   -0.0000
       15 H3     2pz        0.0068    0.0062   -0.0126   -0.0164    0.0157    0.0083   -0.0039   -0.0029
       16 H4     1s         0.4338    0.0774   -0.4498   -0.4978    0.1774    0.6686   -0.2319   -0.0784
       17 H4     2s         0.0774   -0.0008   -0.1184   -0.1604    0.0683    0.2378    0.3165    0.1307
       18 H4     2px       -0.0000   -0.0000    0.0000    0.0000    0.0000   -0.0000    0.0000   -0.0000
       19 H4     2py        0.0000    0.0000   -0.0000   -0.0000    0.0000    0.0000   -0.0000   -0.0000
       20 H4     2pz       -0.0068    0.0062    0.0126   -0.0164   -0.0157    0.0083    0.0039   -0.0029
       21 H5     1s         0.3186    0.4539    0.3162   -0.2834   -0.5962   -0.5300   -0.2231   -0.2123
       22 H5     2s         0.0520    0.1013    0.0949   -0.0846   -0.2101   -0.1911    0.2698    0.2927
       23 H5     2px       -0.0000    0.0000   -0.0000   -0.0000   -0.0000   -0.0000   -0.0000   -0.0000
       24 H5     2py        0.0000   -0.0000   -0.0000   -0.0000   -0.0000    0.0000   -0.0000   -0.0000
       25 H5     2pz        0.0018    0.0090    0.0135    0.0191    0.0117   -0.0042   -0.0034   -0.0061
       26 H6     1s         0.2415    0.4146    0.3855    0.4636    0.5519    0.3522   -0.1440   -0.1883
       27 H6     2s         0.0435    0.0796    0.0808    0.1472    0.1885    0.1244    0.2906    0.4871
       28 H6     2px       -0.0000   -0.0000   -0.0000   -0.0000   -0.0000   -0.0000   -0.0000   -0.0000
       29 H6     2py        0.0000    0.0000   -0.0000    0.0000    0.0000    0.0000   -0.0000   -0.0000
       30 H6     2pz       -0.0090   -0.0128   -0.0092    0.0044    0.0132    0.0145    0.0153    0.0198
--
 
 
++    Molecular charges:
      ------------------
 
      Mulliken charges per centre and basis function type
      ---------------------------------------------------
 
                H1      H2      H3      H4      H5      H6    
      1s       0.8816  0.9335  0.9137  0.9137  0.9335  0.8816
      2s       0.0829  0.0912  0.0823  0.0823  0.0912  0.0829
      2px      0.0000  0.0000  0.0000  0.0000  0.0000  0.0000
      2pz      0.0044  0.0052  0.0051  0.0051  0.0052  0.0044
      2py      0.0000  0.0000  0.0000  0.0000  0.0000  0.0000
      Total    0.9689  1.0300  1.0012  1.0012  1.0300  0.9689
 
      N-E      0.0311 -0.0300 -0.0012 -0.0012 -0.0300  0.0311
 
      Total electronic charge=    6.000000
 
      Total            charge=   -0.000000
--
 
 
  Input file to MOLDEN was generated!
 
 
++    Static properties:
      ------------------
 
 
      LoProp Charges per center
 

                   H1       H2       H3       H4       H5       H6    
      Nuclear      1.0000   1.0000   1.0000   1.0000   1.0000   1.0000
      Electronic  -0.9815  -1.0163  -1.0022  -1.0022  -1.0163  -0.9815
 
      Total        0.0185  -0.0163  -0.0022  -0.0022  -0.0163   0.0185
--
 
 
++    Natural Bond Order analysis
      ---------------------------
      Based on LoProp computed density
      -------------------------------------------------------------------------------------
      Atom A       Atom B       Bond Order
      -------------------------------------------------------------------------------------
      NBO located      0.970 non-bonded electrons on atom H1        
      NBO located      1.009 non-bonded electrons on atom H3        
      NBO located      1.009 non-bonded electrons on atom H4        
      NBO located      0.970 non-bonded electrons on atom H6        
      The remaining    2.042 electrons are to be considered as diffuse
--
 
 
++    Molecular properties:
      ---------------------
 
      Charge (e):
                      =   -0.0000
      Dipole Moment (Debye):
      Origin of the operator (Ang)=    0.0000    0.0000    0.0000
                   X= -1.2162E-14               Y=  2.2993E-14               Z=  2.5284E-13           Total=  2.5418E-13
      Quadrupole Moment (Debye*Ang):
      Origin of the operator (Ang)=    0.0000    0.0000    6.2273
                  XX= -1.4167E+01              XY=  3.1915E-29              XZ=  1.4636E-13              YY= -1.4167E+01
                  YZ= -1.4447E-13              ZZ= -1.2850E+00
      In traceless form (Debye*Ang)
                  XX= -6.4411E+00              XY=  4.7872E-29              XZ=  2.1954E-13              YY= -6.4411E+00
                  YZ= -2.1670E-13              ZZ=  1.2882E+01
--
 
 
  Input file to MOLDEN was generated!
 
 ###############################################################################
 ###############################################################################
 ###                                                                         ###
 ###                                                                         ###
 ###    RunFile label nBas                                                   ###
 ###    was used       78 times                                              ###
 ###                                                                         ###
 ###                                                                         ###
 ###############################################################################
 ###############################################################################
--- Stop Module: scf at Mon Nov 18 14:13:25 2024 /rc=_RC_ALL_IS_WELL_ ---
*** files: H6_2.49.LprOrb H6_2.49.LoProp.molden H6_2.49.scf.molden H6_2.49.ScfOrb H6_2.49.scf.h5 xmldump
    saved to directory /home/grierjones/DDCASPT2/hydrogen_comps/H6_chain/H6_2.49

>>> COPY /tmp/H6_2.49/H6_2.49.scf.h5 /home/grierjones/DDCASPT2/hydrogen_comps/H6_chain/H6_2.49/

*** symbolic link created: INPORB -> H6_2.49.ScfOrb
--- Start Module: rasscf at Mon Nov 18 14:13:25 2024 ---
 
()()()()()()()()()()()()()()()()()()()()()()()()()()()()()()()()()()()()()()()()()()()()()()()()()()

                                              &RASSCF

                                   only a single process is used
                       available to each process: 2.0 GB of memory, 1 thread?
()()()()()()()()()()()()()()()()()()()()()()()()()()()()()()()()()()()()()()()()()()()()()()()()()()
 
 
 *************** WARNING ****************
 ###############################################################################
 ###############################################################################
 ###                                                                         ###
 ###                                                                         ###
 ###    Too many macro-iterations.                                           ###
 ###                                                                         ###
 ###                                                                         ###
 ###############################################################################
 ###############################################################################
 Too many macro-iterations requested.
 Reset to maximum, new MAXIT=     200
 ****************************************
 
 *************** WARNING ****************
 ###############################################################################
 ###############################################################################
 ###                                                                         ###
 ###                                                                         ###
 ###    Too many SX-iterations.                                              ###
 ###                                                                         ###
 ###                                                                         ###
 ###############################################################################
 ###############################################################################
 Too many SX-iterations requested.
 Reset to maximum, new ITMAX=     100
 ****************************************
 
      Header of the ONEINT file:
      --------------------------
      
      Integrals generated by seward 4.2.0  , Mon Nov 18 14:13:24 2024
 
 
      OrdInt status: non-squared
 
 
      Cartesian coordinates in Angstrom:
      -----------------------------------------------------
      No.  Label        X            Y            Z        
      -----------------------------------------------------
       1   H1         0.00000000   0.00000000   0.00000000
       2   H2         0.00000000   0.00000000   2.49090900
       3   H3         0.00000000   0.00000000   4.98181800
       4   H4         0.00000000   0.00000000   7.47272700
       5   H5         0.00000000   0.00000000   9.96363600
       6   H6         0.00000000   0.00000000  12.45454500
      -----------------------------------------------------
      Nuclear repulsion energy =    1.84825770
 
++    Wave function specifications:
      -----------------------------
 
      Number of closed shell electrons           0
      Number of electrons in active shells       6
      Max number of holes in RAS1 space          0
      Max nr of electrons in RAS3 space          0
      Number of inactive orbitals                0
      Number of active orbitals                  6
      Number of secondary orbitals              24
      Spin quantum number                      0.0
      State symmetry                             1
--
 
++    Orbital specifications:
      -----------------------
 
      Symmetry species                           1
                                                 a
      Frozen orbitals                            0
      Inactive orbitals                          0
      Active orbitals                            6
      RAS1 orbitals                              0
      RAS2 orbitals                              6
      RAS3 orbitals                              0
      Secondary orbitals                        24
      Deleted orbitals                           0
      Number of basis functions                 30
--
 
++    CI expansion specifications:
      ----------------------------
 
      Number of CSFs                           175
      Number of determinants                   210
      Number of root(s) required                 1
      Root chosen for geometry opt.              1
      CI root used                               1
         
      highest root included in the CI            1
      max. size of the explicit Hamiltonian    175
--
 
++    Optimization specifications:
      ----------------------------
 
      RASSCF algorithm: Conventional
      Maximum number of macro iterations       200
      Maximum number of SX iterations          100
      Threshold for RASSCF energy            0.100E-07
      Threshold for max MO rotation          0.100E+00
      Threshold for max BLB element          0.100E-03
      Level shift parameter                  0.500E+00
      Make Quasi-Newton update
--
 
      The MO-coefficients are taken from the file:
      /home/grierjones/DDCASPT2/hydrogen_comps/H6_chain/H6_2.47/H6_2.47.RasOrb                                                        
      Title: RASSCF average (pseudo-natural) orbitals                                      
 
      Total molecular charge    0.00
 
      ************************************************************************************************************************
      *                                                                                                                      *
      *                                            Wave function control section                                             *
      *                                                                                                                      *
      ************************************************************************************************************************
 
 
                                         RASSCF iterations: Energy and convergence statistics
                                         ----------------------------------------------------
 
      Iter CI   SX   CI       RASSCF       Energy    max ROT     max BLB   max BLB  Level Ln srch  Step   QN   Walltime
          iter iter root      energy       change     param      element    value   shift minimum  type update hh:mm:ss
 Nr of preliminary CI iterations:   1
        1   1    4    1    -3.00252818    0.00E+00   0.70E-03    3  11 1  0.60E-03*  0.01   0.00    SX    NO    0:00:00
        2   1    3    1    -3.00252971   -0.15E-05* -0.21E-03    1   7 1  0.15E-03*  0.01   0.00    SX    NO    0:00:00
        3   1    3    1    -3.00252976   -0.50E-07*  0.50E-04    1   7 1 -0.36E-04   0.01   0.00    SX    NO    0:00:00
        4   1    3    1    -3.00252976   -0.33E-08   0.17E-04    1   7 1  0.13E-04   0.01   0.00    SX    NO    0:00:00
      Convergence after  4 iterations
 
  Dmat in MO in SXCTL bf call to SXHAM                                                                                    
  mat. size =     6x    6
 
        1.3687851306628138
       -0.0000000254349391      1.3005622638408867
        0.0000826709655745     -0.0000003098197068      1.1935131335581244
       -0.0000002279107078      0.0000329673619255     -0.0000000019593206      0.8106465557544817
       -0.0000000005402332     -0.0001006699763213     -0.0000002231324530      0.0000449259821154      0.6269913179957616
       -0.0000716243654628     -0.0000000018592981     -0.0001709005742959     -0.0000002982731446      0.0000000362507779
        0.6995015981879320
        5   1    3    1    -3.00252977   -0.30E-09   0.17E-04    1   7 1 -0.37E-05   0.01   0.00    SX    NO    0:00:00
 
      ************************************************************************************************************************
                                                      Wave function printout:
                       occupation of active orbitals, and spin coupling of open shells (u,d: Spin up or down)
      ************************************************************************************************************************
 
      Note: transformation to natural orbitals
      has been made, which may change the order of the CSFs.
 
      printout of CI-coefficients larger than  0.05 for root  1
      energy=      -3.002530
      conf/sym  111111     Coeff  Weight
             1  222000   0.49088 0.24096
            11  220200  -0.27249 0.07425
            12  220ud0  -0.05067 0.00257
            13  220020  -0.05822 0.00339
            16  220002  -0.07288 0.00531
            20  2udu0d  -0.29050 0.08439
            21  2ud0ud   0.09671 0.00935
            23  u2d200   0.05191 0.00269
            24  u2dud0   0.28867 0.08333
            25  u2d020   0.05250 0.00276
            28  u2d002  -0.11221 0.01259
            29  202200  -0.07526 0.00566
            30  202ud0   0.11239 0.01263
            31  202020  -0.07141 0.00510
            34  202002  -0.19959 0.03984
            38  ud2u0d  -0.10001 0.01000
            39  ud20ud   0.23153 0.05361
            41  022200  -0.06202 0.00385
            42  022ud0  -0.05419 0.00294
            43  022020  -0.17172 0.02949
            46  022002  -0.07375 0.00544
            48  2uud0d   0.08367 0.00700
            50  u2udd0  -0.09836 0.00968
            55  uu20dd   0.05068 0.00257
           120  200220   0.06026 0.00363
           123  200202   0.18163 0.03299
           124  200ud2  -0.05043 0.00254
           127  ud02ud  -0.20156 0.04063
           128  ud0u2d  -0.06560 0.00430
           132  020220   0.14724 0.02168
           135  020202   0.06212 0.00386
           136  020ud2   0.08102 0.00656
           138  u0d220   0.08096 0.00655
           141  u0d202  -0.05194 0.00270
           142  u0dud2   0.20173 0.04069
           145  0ud2ud  -0.06773 0.00459
           146  0udu2d  -0.17084 0.02919
           155  002022   0.12807 0.01640
           162  u0udd2  -0.06651 0.00442
           164  0uud2d   0.05006 0.00251
           175  000222  -0.17718 0.03139
 
      Natural orbitals and occupation numbers for root  1
      sym 1:   1.368785   1.300562   1.193513   0.810647   0.626991   0.699502
 
      ************************************************************************************************************************
      *                                                                                                                      *
      *                                                    Final results                                                     *
      *                                                                                                                      *
      ************************************************************************************************************************
 
 
++    Wave function specifications:
      -----------------------------
 
      Number of closed shell electrons           0
      Number of electrons in active shells       6
      Max number of holes in RAS1 space          0
      Max nr of electrons in RAS3 space          0
      Number of inactive orbitals                0
      Number of active orbitals                  6
      Number of secondary orbitals              24
      Spin quantum number                      0.0
      State symmetry                             1
--
 
++    Orbital specifications:
      -----------------------
 
      Symmetry species                           1
                                                 a
      Frozen orbitals                            0
      Inactive orbitals                          0
      Active orbitals                            6
      RAS1 orbitals                              0
      RAS2 orbitals                              6
      RAS3 orbitals                              0
      Secondary orbitals                        24
      Deleted orbitals                           0
      Number of basis functions                 30
--
 
++    CI expansion specifications:
      ----------------------------
 
      Number of CSFs                           175
      Number of determinants                   210
      Number of root(s) required                 1
      CI root used                               1
      highest root included in the CI            1
      Root passed to geometry opt.               1
--
 
++    Final optimization conditions:
      ------------------------------
 
      Average CI energy                              -3.00252977
      RASSCF energy for state  1                     -3.00252977
      Super-CI energy                                -0.00000000
      RASSCF energy change                           -0.00000000
      Max change in MO coefficients               0.873E-05
      Max non-diagonal density matrix element     0.174E-04
      Maximum BLB matrix element                 -0.370E-05
      (orbital pair   1,   7 in symmetry   1)
      Norm of electronic gradient            0.587E-05
--
 
 
      Final state energy(ies):
      ------------------------
 
::    RASSCF root number  1 Total energy:     -3.00252977
 
++    Molecular orbitals:
      -------------------
 
      Pseudonatural active orbitals and approximate occupation numbers
 
 
 
 
      Molecular orbitals for symmetry species 1: a  
 
 
      Orbital                1         2         3         4         5         6         7         8         9        10
      Energy            0.0000    0.0000    0.0000    0.0000    0.0000    0.0000    0.3339    0.3551    0.3998    0.4765
      Occ. No.          1.3688    1.3006    1.1935    0.8106    0.6270    0.6995    0.0000    0.0000    0.0000    0.0000
 
    1 H1     1s         0.2682   -0.4384    0.4089   -0.4555    0.3367   -0.5233   -0.1040   -0.1173    0.0224   -0.1173
    2 H1     2s         0.0199   -0.0339    0.0336   -0.0485    0.0441   -0.0624    0.2907    0.4938   -0.5953   -0.6033
    3 H1     2px       -0.0000    0.0000    0.0000    0.0000   -0.0000    0.0000    0.0000   -0.0000    0.0000   -0.0000
    4 H1     2py       -0.0000    0.0000   -0.0000    0.0000   -0.0000    0.0000    0.0000    0.0000   -0.0000   -0.0000
    5 H1     2pz        0.0016   -0.0019    0.0011   -0.0012    0.0023   -0.0024   -0.0117   -0.0162    0.0177    0.0353
    6 H2     1s         0.3568   -0.4711    0.2897    0.2756   -0.4899    0.5689   -0.1830   -0.1793    0.0442    0.0266
    7 H2     2s         0.0235   -0.0438    0.0415    0.0220   -0.0832    0.0798    0.2767    0.3019    0.0049    0.5051
    8 H2     2px        0.0000   -0.0000   -0.0000   -0.0000   -0.0000    0.0000   -0.0000   -0.0000   -0.0000   -0.0000
    9 H2     2py       -0.0000    0.0000   -0.0000    0.0000    0.0000    0.0000    0.0000    0.0000   -0.0000   -0.0000
   10 H2     2pz        0.0009    0.0009   -0.0026    0.0005    0.0003   -0.0007    0.0000    0.0030    0.0086    0.0446
   11 H3     1s         0.4416   -0.1042   -0.4749    0.5098    0.5984   -0.1666   -0.1885   -0.0504   -0.1187   -0.0025
   12 H3     2s         0.0310    0.0011   -0.0534    0.0614    0.1017   -0.0331    0.3234    0.1334    0.4148    0.4811
   13 H3     2px       -0.0000    0.0000   -0.0000   -0.0000    0.0000    0.0000    0.0000    0.0000   -0.0000    0.0000
   14 H3     2py        0.0000   -0.0000    0.0000   -0.0000   -0.0000    0.0000   -0.0000   -0.0000   -0.0000    0.0000
   15 H3     2pz       -0.0001    0.0022   -0.0016    0.0000    0.0015    0.0002   -0.0006    0.0030    0.0004   -0.0396
   16 H4     1s         0.4416    0.1042   -0.4749   -0.5098   -0.5984   -0.1666   -0.1885    0.0504   -0.1187    0.0025
   17 H4     2s         0.0310   -0.0011   -0.0534   -0.0614   -0.1017   -0.0331    0.3234   -0.1334    0.4148   -0.4811
   18 H4     2px       -0.0000   -0.0000    0.0000   -0.0000   -0.0000   -0.0000    0.0000   -0.0000    0.0000    0.0000
   19 H4     2py        0.0000   -0.0000    0.0000    0.0000    0.0000   -0.0000   -0.0000   -0.0000    0.0000   -0.0000
   20 H4     2pz        0.0001    0.0022    0.0016    0.0000    0.0015   -0.0002    0.0006    0.0030   -0.0004   -0.0396
   21 H5     1s         0.3568    0.4711    0.2897   -0.2756    0.4899    0.5689   -0.1830    0.1793    0.0442   -0.0266
   22 H5     2s         0.0235    0.0438    0.0415   -0.0220    0.0832    0.0798    0.2767   -0.3019    0.0049   -0.5051
   23 H5     2px        0.0000   -0.0000   -0.0000    0.0000    0.0000    0.0000   -0.0000   -0.0000   -0.0000   -0.0000
   24 H5     2py        0.0000   -0.0000    0.0000    0.0000   -0.0000   -0.0000   -0.0000   -0.0000    0.0000   -0.0000
   25 H5     2pz       -0.0009    0.0009    0.0026    0.0005    0.0003    0.0007   -0.0000    0.0030   -0.0086    0.0446
   26 H6     1s         0.2682    0.4384    0.4089    0.4555   -0.3367   -0.5233   -0.1040    0.1173    0.0224    0.1173
   27 H6     2s         0.0199    0.0339    0.0336    0.0485   -0.0441   -0.0624    0.2907   -0.4938   -0.5953    0.6033
   28 H6     2px        0.0000   -0.0000   -0.0000   -0.0000   -0.0000    0.0000   -0.0000   -0.0000   -0.0000    0.0000
   29 H6     2py       -0.0000   -0.0000   -0.0000    0.0000   -0.0000    0.0000    0.0000   -0.0000   -0.0000   -0.0000
   30 H6     2pz       -0.0016   -0.0019   -0.0011   -0.0012    0.0023    0.0024    0.0117   -0.0162   -0.0177    0.0353
 
 
      Orbital               11        12        13        14        15        16        17        18        19        20
      Energy            0.5962    0.7299    0.7534    0.8501    0.8501    0.8787    0.8787    0.9219    0.9219    0.9734
      Occ. No.          0.0000    0.0000    0.0000    0.0000    0.0000    0.0000    0.0000    0.0000    0.0000    0.0000
 
    1 H1     1s        -0.2106    0.1813   -0.1048   -0.0000   -0.0000    0.0000    0.0000   -0.0000   -0.0000   -0.0000
    2 H1     2s        -0.5012    0.2814   -0.1404    0.0000   -0.0000    0.0000   -0.0000   -0.0000    0.0000   -0.0000
    3 H1     2px       -0.0000   -0.0000    0.0000   -0.1772   -0.1274    0.3765    0.1373   -0.5119    0.0123   -0.5285
    4 H1     2py       -0.0000    0.0000   -0.0000   -0.1274    0.1772   -0.1373    0.3765   -0.0123   -0.5119   -0.0074
    5 H1     2pz        0.1060   -0.3393    0.3244   -0.0000    0.0000    0.0000    0.0000   -0.0000    0.0000   -0.0000
    6 H2     1s         0.2136   -0.2230    0.0744    0.0000   -0.0000   -0.0000    0.0000    0.0000    0.0000    0.0000
    7 H2     2s         0.8885   -0.5893    0.2035    0.0000    0.0000   -0.0000    0.0000    0.0000   -0.0000    0.0000
    8 H2     2px        0.0000    0.0000    0.0000   -0.3231   -0.2323    0.4757    0.1735   -0.2358    0.0056    0.2300
    9 H2     2py       -0.0000   -0.0000   -0.0000   -0.2323    0.3231   -0.1735    0.4757   -0.0056   -0.2358    0.0032
   10 H2     2pz        0.0353    0.3123   -0.3832    0.0000   -0.0000   -0.0000    0.0000    0.0000   -0.0000   -0.0000
   11 H3     1s        -0.0961    0.2675   -0.0298   -0.0000   -0.0000    0.0000    0.0000    0.0000    0.0000   -0.0000
   12 H3     2s        -0.4506    0.7212   -0.0903   -0.0000   -0.0000    0.0000   -0.0000   -0.0000    0.0000   -0.0000
   13 H3     2px       -0.0000   -0.0000    0.0000   -0.4046   -0.2909    0.2115    0.0772    0.4129   -0.0099    0.4251
   14 H3     2py       -0.0000    0.0000   -0.0000   -0.2909    0.4046   -0.0772    0.2115    0.0099    0.4129    0.0060
   15 H3     2pz       -0.1935   -0.1209    0.3688    0.0000    0.0000   -0.0000   -0.0000    0.0000   -0.0000    0.0000
   16 H4     1s        -0.0961   -0.2675   -0.0298    0.0000    0.0000   -0.0000    0.0000    0.0000   -0.0000   -0.0000
   17 H4     2s        -0.4506   -0.7212   -0.0903    0.0000   -0.0000   -0.0000    0.0000    0.0000   -0.0000    0.0000
   18 H4     2px        0.0000    0.0000    0.0000   -0.4046   -0.2909   -0.2115   -0.0772    0.4129   -0.0099   -0.4251
   19 H4     2py        0.0000    0.0000    0.0000   -0.2909    0.4046    0.0772   -0.2115    0.0099    0.4129   -0.0060
   20 H4     2pz        0.1935   -0.1209   -0.3688   -0.0000   -0.0000    0.0000   -0.0000   -0.0000    0.0000   -0.0000
   21 H5     1s         0.2136    0.2230    0.0744   -0.0000    0.0000    0.0000   -0.0000   -0.0000   -0.0000   -0.0000
   22 H5     2s         0.8885    0.5893    0.2035    0.0000    0.0000   -0.0000    0.0000    0.0000    0.0000    0.0000
   23 H5     2px        0.0000   -0.0000   -0.0000   -0.3231   -0.2323   -0.4757   -0.1735   -0.2358    0.0056   -0.2300
   24 H5     2py        0.0000    0.0000    0.0000   -0.2323    0.3231    0.1735   -0.4757   -0.0056   -0.2358   -0.0032
   25 H5     2pz       -0.0353    0.3123    0.3832    0.0000   -0.0000   -0.0000    0.0000    0.0000   -0.0000    0.0000
   26 H6     1s        -0.2106   -0.1813   -0.1048   -0.0000   -0.0000    0.0000    0.0000   -0.0000    0.0000    0.0000
   27 H6     2s        -0.5012   -0.2814   -0.1404   -0.0000   -0.0000    0.0000   -0.0000   -0.0000   -0.0000   -0.0000
   28 H6     2px       -0.0000    0.0000   -0.0000   -0.1772   -0.1274   -0.3765   -0.1373   -0.5119    0.0123    0.5285
   29 H6     2py        0.0000    0.0000   -0.0000   -0.1274    0.1772    0.1373   -0.3765   -0.0123   -0.5119    0.0074
   30 H6     2pz       -0.1060   -0.3393   -0.3244   -0.0000   -0.0000    0.0000   -0.0000   -0.0000    0.0000   -0.0000
 
 
      Orbital               21        22        23        24        25        26        27        28        29        30
      Energy            0.9734    1.0222    1.0222    1.0579    1.0579    1.0825    1.1047    1.1902    1.2961    1.3851
      Occ. No.          0.0000    0.0000    0.0000    0.0000    0.0000    0.0000    0.0000    0.0000    0.0000    0.0000
 
    1 H1     1s         0.0000    0.0000   -0.0000   -0.0000    0.0000    0.1532   -0.1563    0.1459   -0.1157    0.0703
    2 H1     2s        -0.0000    0.0000   -0.0000    0.0000    0.0000    0.2911   -0.3298    0.2819   -0.1809    0.0899
    3 H1     2px       -0.0074    0.4128   -0.1461   -0.2331    0.0846   -0.0000    0.0000   -0.0000    0.0000    0.0000
    4 H1     2py        0.5285   -0.1461   -0.4128    0.0846    0.2331   -0.0000   -0.0000    0.0000   -0.0000    0.0000
    5 H1     2pz       -0.0000    0.0000   -0.0000    0.0000    0.0000    0.2643   -0.4741    0.5467   -0.4625    0.2669
    6 H2     1s         0.0000   -0.0000    0.0000   -0.0000   -0.0000   -0.4348    0.3452   -0.2188    0.0550    0.0146
    7 H2     2s         0.0000   -0.0000    0.0000   -0.0000   -0.0000   -0.8648    0.6599   -0.3553    0.0895   -0.0104
    8 H2     2px        0.0032   -0.5068    0.1793    0.4138   -0.1501   -0.0000   -0.0000   -0.0000   -0.0000    0.0000
    9 H2     2py       -0.2300    0.1793    0.5068   -0.1501   -0.4138    0.0000   -0.0000   -0.0000    0.0000    0.0000
   10 H2     2pz        0.0000    0.0000    0.0000   -0.0000   -0.0000   -0.3730    0.1564    0.2952   -0.6350    0.5133
   11 H3     1s        -0.0000    0.0000   -0.0000    0.0000    0.0000    0.6688   -0.1893   -0.0261    0.0776    0.0235
   12 H3     2s        -0.0000    0.0000   -0.0000    0.0000    0.0000    1.3331   -0.3584   -0.0091    0.0684    0.0323
   13 H3     2px        0.0060    0.2236   -0.0791   -0.5145    0.1866    0.0000    0.0000    0.0000   -0.0000    0.0000
   14 H3     2py       -0.4251   -0.0791   -0.2236    0.1866    0.5145   -0.0000    0.0000   -0.0000   -0.0000   -0.0000
   15 H3     2pz       -0.0000   -0.0000   -0.0000    0.0000   -0.0000    0.1743    0.5061   -0.4744   -0.2625    0.6348
   16 H4     1s        -0.0000    0.0000    0.0000   -0.0000   -0.0000   -0.6688   -0.1893    0.0261    0.0776   -0.0235
   17 H4     2s         0.0000   -0.0000    0.0000   -0.0000   -0.0000   -1.3331   -0.3584    0.0091    0.0684   -0.0323
   18 H4     2px       -0.0060    0.2236   -0.0791    0.5145   -0.1866   -0.0000   -0.0000   -0.0000   -0.0000   -0.0000
   19 H4     2py        0.4251   -0.0791   -0.2236   -0.1866   -0.5145    0.0000   -0.0000    0.0000    0.0000   -0.0000
   20 H4     2pz       -0.0000    0.0000   -0.0000    0.0000    0.0000    0.1743   -0.5061   -0.4744    0.2625    0.6348
   21 H5     1s        -0.0000    0.0000   -0.0000    0.0000   -0.0000    0.4348    0.3452    0.2188    0.0550   -0.0146
   22 H5     2s        -0.0000   -0.0000   -0.0000    0.0000    0.0000    0.8648    0.6599    0.3553    0.0895    0.0104
   23 H5     2px       -0.0032   -0.5068    0.1793   -0.4138    0.1501    0.0000    0.0000    0.0000   -0.0000   -0.0000
   24 H5     2py        0.2300    0.1793    0.5068    0.1501    0.4138   -0.0000    0.0000    0.0000   -0.0000    0.0000
   25 H5     2pz        0.0000   -0.0000    0.0000   -0.0000   -0.0000   -0.3730   -0.1564    0.2952    0.6350    0.5133
   26 H6     1s        -0.0000   -0.0000   -0.0000   -0.0000   -0.0000   -0.1532   -0.1563   -0.1459   -0.1157   -0.0703
   27 H6     2s         0.0000    0.0000    0.0000   -0.0000   -0.0000   -0.2911   -0.3298   -0.2819   -0.1809   -0.0899
   28 H6     2px        0.0074    0.4128   -0.1461    0.2331   -0.0846   -0.0000   -0.0000   -0.0000   -0.0000   -0.0000
   29 H6     2py       -0.5285   -0.1461   -0.4128   -0.0846   -0.2331    0.0000   -0.0000    0.0000    0.0000   -0.0000
   30 H6     2pz       -0.0000   -0.0000    0.0000    0.0000    0.0000    0.2643    0.4741    0.5467    0.4625    0.2669
--
 
      Von Neumann Entropy (Root  1) =  2.80542
 

      Mulliken population analysis for root number:  1
      -----------------------------------------------
 
 
++    Molecular charges:
      ------------------
 
      Mulliken charges per centre and basis function type
      ---------------------------------------------------
 
                H1      H2      H3      H4      H5      H6    
      1s       0.9912  1.0016  1.0018  1.0018  1.0016  0.9912
      2s       0.0064  0.0003 -0.0023 -0.0023  0.0003  0.0064
      2px      0.0000  0.0000  0.0000  0.0000  0.0000  0.0000
      2pz      0.0001  0.0005  0.0004  0.0004  0.0005  0.0001
      2py      0.0000  0.0000  0.0000  0.0000  0.0000  0.0000
      Total    0.9977  1.0024  0.9999  0.9999  1.0024  0.9977
 
      N-E      0.0023 -0.0024  0.0001  0.0001 -0.0024  0.0023
 
      Total electronic charge=    6.000000
 
      Total            charge=   -0.000000
--
 
 

      Expectation values of various properties for root number:  1
      -----------------------------------------------------------
 
 
++    Molecular properties:
      ---------------------
 
      Charge (e):
                      =   -0.0000
      Dipole Moment (Debye):
      Origin of the operator (Ang)=    0.0000    0.0000    0.0000
                   X=  2.1651E-13               Y=  4.8279E-13               Z= -1.0955E-10           Total=  1.0955E-10
      Quadrupole Moment (Debye*Ang):
      Origin of the operator (Ang)=    0.0000    0.0000    6.2273
                  XX= -9.1460E+00              XY=  7.6868E-28              XZ= -8.1728E-13              YY= -9.1460E+00
                  YZ= -9.9130E-13              ZZ= -8.6180E+00
      In traceless form (Debye*Ang)
                  XX= -2.6400E-01              XY=  1.1530E-27              XZ= -1.2259E-12              YY= -2.6400E-01
                  YZ= -1.4870E-12              ZZ=  5.2800E-01
--
 

      LoProp population analysis for root number:  1
      -----------------------------------------------
 
 
++    LoProp analysis:
      ----------------
 
 
 
  Input file to MOLDEN was generated!
 
 
++    Static properties:
      ------------------
 
 
      LoProp Charges per center
 

                   H1       H2       H3       H4       H5       H6    
      Nuclear      1.0000   1.0000   1.0000   1.0000   1.0000   1.0000
      Electronic  -1.0001  -0.9999  -1.0000  -1.0000  -0.9999  -1.0001
 
      Total       -0.0001   0.0001   0.0000   0.0000   0.0001  -0.0001
--
 
 
      Natural Bond Order analysis for root number:  1
 
++    Natural Bond Order analysis
      ---------------------------
      Based on LoProp computed density
      -------------------------------------------------------------------------------------
      Atom A       Atom B       Bond Order
      -------------------------------------------------------------------------------------
      The remaining    6.000 electrons are to be considered as diffuse
--
 
--
 
 
  Input file to MOLDEN was generated!
 
      Average orbitals are written to the RASORB file
      Natural orbitals for root   1 are written to the RASORB.1 file
      Spin density orbitals for root   1 are written to the SPDORB.1 file
 
--- Stop Module: rasscf at Mon Nov 18 14:13:25 2024 /rc=_RC_ALL_IS_WELL_ ---
*** files: H6_2.49.LprOrb H6_2.49.rasscf.molden H6_2.49.LoProp.molden H6_2.49.RasOrb H6_2.49.RasOrb.1 H6_2.49.rasscf.h5 H6_2.49.SpdOrb.1 xmldump
    saved to directory /home/grierjones/DDCASPT2/hydrogen_comps/H6_chain/H6_2.49

>>> COPY /tmp/H6_2.49/H6_2.49.rasscf.h5 /home/grierjones/DDCASPT2/hydrogen_comps/H6_chain/H6_2.49/

>>> COPY /tmp/H6_2.49/GMJ_Fock_MO.csv /home/grierjones/DDCASPT2/hydrogen_comps/H6_chain/H6_2.49/H6_2.49.GMJ_Fock_MO.csv

>>> COPY /tmp/H6_2.49/GMJ_PT2_Fock_MO.csv /home/grierjones/DDCASPT2/hydrogen_comps/H6_chain/H6_2.49/H6_2.49.GMJ_PT2_Fock_MO.csv

*** symbolic link created: INPORB -> H6_2.49.RasOrb
--- Start Module: motra at Mon Nov 18 14:13:25 2024 ---
 
()()()()()()()()()()()()()()()()()()()()()()()()()()()()()()()()()()()()()()()()()()()()()()()()()()

                                               &MOTRA

                                   only a single process is used
                       available to each process: 2.0 GB of memory, 1 thread?
()()()()()()()()()()()()()()()()()()()()()()()()()()()()()()()()()()()()()()()()()()()()()()()()()()
 
 
      *** WARNING: Default frozen orbitals is overwritten by user input.
      *** Default values:   0
 
      Header of the integral files:
      
       Integrals generated by seward 4.2.0  , Mon Nov 18 14:13:24 2024
 
 
      Header of MO coefficients source file:
      * RASSCF average (pseudo-natural) orbitals                                      
 
 
      Cartesian coordinates in Angstrom:
      -----------------------------------------------------
      No.  Label        X            Y            Z        
      -----------------------------------------------------
       1   H1         0.00000000   0.00000000   0.00000000
       2   H2         0.00000000   0.00000000   2.49090900
       3   H3         0.00000000   0.00000000   4.98181800
       4   H4         0.00000000   0.00000000   7.47272700
       5   H5         0.00000000   0.00000000   9.96363600
       6   H6         0.00000000   0.00000000  12.45454500
      -----------------------------------------------------
      Nuclear repulsion energy =    1.84825770
 
      Orbital specifications:
      -----------------------
 
      Symmetry species:              1
      Number of basis functions:    30
      Frozen orbitals:               0
      Deleted orbitals:              0
      Number of orbitals used:      30

       SYMMETRY  BASIS FUNCTIONS       ORBITALS      INTEGRALS   CPU(SEC)  I/O(SEC)
 
        1 1 1 1   30  30  30  30    30  30  30  30      108345       0.00      0.00

       TOTAL CPU TIME(SEC)    0.05TOTAL I/O TIME(SEC)    0.15
 
--- Stop Module: motra at Mon Nov 18 14:13:25 2024 /rc=_RC_ALL_IS_WELL_ ---
*** files: xmldump
    saved to directory /home/grierjones/DDCASPT2/hydrogen_comps/H6_chain/H6_2.49

>>> COPY /tmp/H6_2.49/GMJ_one_int_indx.csv /home/grierjones/DDCASPT2/hydrogen_comps/H6_chain/H6_2.49/H6_2.49.GMJ_one_int_indx.csv

>>> COPY /tmp/H6_2.49/GMJ_one_int.csv /home/grierjones/DDCASPT2/hydrogen_comps/H6_chain/H6_2.49/H6_2.49.GMJ_one_int.csv

>>> COPY /tmp/H6_2.49/GMJ_two_int_indx.csv /home/grierjones/DDCASPT2/hydrogen_comps/H6_chain/H6_2.49/H6_2.49.GMJ_two_int_indx.csv

>>> COPY /tmp/H6_2.49/GMJ_two_int.csv /home/grierjones/DDCASPT2/hydrogen_comps/H6_chain/H6_2.49/H6_2.49.GMJ_two_int.csv

*** symbolic link created: INPORB -> H6_2.49.RasOrb
--- Start Module: caspt2 at Mon Nov 18 14:13:25 2024 ---
 
()()()()()()()()()()()()()()()()()()()()()()()()()()()()()()()()()()()()()()()()()()()()()()()()()()

                                              &CASPT2

                                   only a single process is used
                       available to each process: 2.0 GB of memory, 1 thread?
()()()()()()()()()()()()()()()()()()()()()()()()()()()()()()()()()()()()()()()()()()()()()()()()()()
 
 Cholesky algorithm in CASPT2 =    1
 
 ###############################################################################
 ###############################################################################
 ###                                                                         ###
 ###                                                                         ###
 ###    User changed nr of frozen orbitals.                                  ###
 ###                                                                         ###
 ###                                                                         ###
 ###############################################################################
 ###############################################################################
 
++    Wave function specifications:
      -----------------------------
 
      Number of closed shell electrons           0
      Number of electrons in active shells       6
      Max number of holes in RAS1 space          0
      Max number of electrons in RAS3 space      0
      Number of inactive orbitals                0
      Number of active orbitals                  6
      Number of secondary orbitals              24
      Spin quantum number                      0.0
      State symmetry                             1
      Number of CSFs                           175
      Number of root(s) available                1
      Root passed to geometry opt.               1
      A file JOBMIX will be created.
      This is a CASSCF or RASSCF reference function
--
 
++    Orbital specifications:
      -----------------------
 
      Symmetry species                           1
                                                 a
      Frozen orbitals                            0
      Inactive orbitals                          0
      Active orbitals                            6
      Secondary orbitals                        24
      Deleted orbitals                           0
      Number of basis functions                 30
--
 
      Type of Fock operator: STANDARD
      Type of 0-order Hamiltonian: STANDARD WITH DEFAULT IPEA
        "IP-EA" denominator shift =      0.25
      The input orbitals and the CI vector will be transformed.
 
--------------------------------------------------------------------------------
 Estimated memory requirements:
  POLY3 :                   262414
  RHS:                      285604
  SIGMA :                   275200
  PRPCTL:                        0
 Available workspace:    230396124
 
++ CASPT2 computation for group   1
 
********************************************************************************
 Multi-State initialization phase begins for group   1
--------------------------------------------------------------------------------
********************************************************************************
 Compute H0 matrices for state    1
--------------------------------------------------------------------------------
--------------------------------------------------------------------------------
 H0 matrices have been computed.
 
********************************************************************************
  CASPT2 EQUATION SOLUTION
--------------------------------------------------------------------------------
 
  Total nr of CASPT2 parameters:
   Before reduction:       15624
   After  reduction:       14904
 
 The contributions to the second order correlation energy in atomic units.
-----------------------------------------------------------------------------------------------------------------------------
  IT.      VJTU        VJTI        ATVX        AIVX        VJAI        BVAT        BJAT        BJAI        TOTAL       RNORM  
-----------------------------------------------------------------------------------------------------------------------------
   1     0.000000    0.000000   -0.000619    0.000000    0.000000   -0.001811    0.000000    0.000000   -0.002431    0.000519
   2     0.000000    0.000000   -0.000626    0.000000    0.000000   -0.001814    0.000000    0.000000   -0.002440    0.000073
   3     0.000000    0.000000   -0.000627    0.000000    0.000000   -0.001814    0.000000    0.000000   -0.002441    0.000015
   4     0.000000    0.000000   -0.000627    0.000000    0.000000   -0.001814    0.000000    0.000000   -0.002440    0.000002
-------------------------------------------------------------------------------------------------------------------
 
  FINAL CASPT2 RESULT:
 
  Correlation energy /Case, /Symm, and sums:
 VJTU      0.00000000  0.00000000
 VJTIP     0.00000000  0.00000000
 VJTIM     0.00000000  0.00000000
 ATVX     -0.00062675 -0.00062675
 AIVX      0.00000000  0.00000000
 VJAIP     0.00000000  0.00000000
 VJAIM     0.00000000  0.00000000
 BVATP    -0.00166204 -0.00166204
 BVATM    -0.00015158 -0.00015158
 BJATP     0.00000000  0.00000000
 BJATM     0.00000000  0.00000000
 BJAIP     0.00000000  0.00000000
 BJAIM     0.00000000  0.00000000
 Summed:  -0.00244037 -0.00244037
 
      Reference energy:          -3.0025297651
      E2 (Non-variational):      -0.0024403677
      E2 (Variational):          -0.0024403708
      Total energy:              -3.0049701359
      Residual norm:              0.0000003200
      Reference weight:           0.99846
 
      Contributions to the CASPT2 correlation energy
      Active & Virtual Only:         -0.0024403677
      One Inactive Excited:           0.0000000000
      Two Inactive Excited:           0.0000000000
 
 
++ Denominators, etc.
----------------------------------------------------------------------------------------------------
 Report on small energy denominators, large coefficients, and large energy contributions.
CASE  SYMM ACTIVE-MIX  NON-ACTIVE INDICES          DENOMINATOR     RHS VALUE       COEFFICIENT     CONTRIBUTION
--
 
   (Skipping property calculation,
    use PROP keyword to activate)
--
 
  Total CASPT2 energies:
::    CASPT2 Root  1     Total energy:     -3.00497014
 
  A NEW JOBIPH FILE NAMED 'JOBMIX' IS PREPARED.
********************************************************************************
--- Stop Module: caspt2 at Mon Nov 18 14:13:25 2024 /rc=_RC_ALL_IS_WELL_ ---
*** files: xmldump
    saved to directory /home/grierjones/DDCASPT2/hydrogen_comps/H6_chain/H6_2.49

>>> EXPORT i = B

>>> EXPORT j = P

>>> IF (-FILE GMJ_e2_${i}_${j}.csv)
(Skipped)

>>> END FOREACH

>>> EXPORT j = M

>>> IF (-FILE GMJ_e2_${i}_${j}.csv)
(Skipped)

>>> END FOREACH

>>> END FOREACH

>>> EXPORT i = E

>>> EXPORT j = P

>>> IF (-FILE GMJ_e2_${i}_${j}.csv)
(Skipped)

>>> END FOREACH

>>> EXPORT j = M

>>> IF (-FILE GMJ_e2_${i}_${j}.csv)
(Skipped)

>>> END FOREACH

>>> END FOREACH

>>> EXPORT i = F

>>> EXPORT j = P

>>> IF (-FILE GMJ_e2_${i}_${j}.csv)

>>> COPY /tmp/H6_2.49/GMJ_RHS_F_P.csv /home/grierjones/DDCASPT2/hydrogen_comps/H6_chain/H6_2.49/GMJ_RHS_F_P.csv

>>> COPY /tmp/H6_2.49/GMJ_IVECW_F_P.csv /home/grierjones/DDCASPT2/hydrogen_comps/H6_chain/H6_2.49/GMJ_IVECW_F_P.csv

>>> COPY /tmp/H6_2.49/GMJ_IVECX_F_P.csv /home/grierjones/DDCASPT2/hydrogen_comps/H6_chain/H6_2.49/GMJ_IVECX_F_P.csv

>>> COPY /tmp/H6_2.49/GMJ_IVECC2_F_P.csv /home/grierjones/DDCASPT2/hydrogen_comps/H6_chain/H6_2.49/GMJ_IVECC2_F_P.csv

>>> COPY /tmp/H6_2.49/GMJ_e2_F_P.csv /home/grierjones/DDCASPT2/hydrogen_comps/H6_chain/H6_2.49/GMJ_e2_F_P.csv

>>> END FOREACH

>>> EXPORT j = M

>>> IF (-FILE GMJ_e2_${i}_${j}.csv)

>>> COPY /tmp/H6_2.49/GMJ_RHS_F_M.csv /home/grierjones/DDCASPT2/hydrogen_comps/H6_chain/H6_2.49/GMJ_RHS_F_M.csv

>>> COPY /tmp/H6_2.49/GMJ_IVECW_F_M.csv /home/grierjones/DDCASPT2/hydrogen_comps/H6_chain/H6_2.49/GMJ_IVECW_F_M.csv

>>> COPY /tmp/H6_2.49/GMJ_IVECX_F_M.csv /home/grierjones/DDCASPT2/hydrogen_comps/H6_chain/H6_2.49/GMJ_IVECX_F_M.csv

>>> COPY /tmp/H6_2.49/GMJ_IVECC2_F_M.csv /home/grierjones/DDCASPT2/hydrogen_comps/H6_chain/H6_2.49/GMJ_IVECC2_F_M.csv

>>> COPY /tmp/H6_2.49/GMJ_e2_F_M.csv /home/grierjones/DDCASPT2/hydrogen_comps/H6_chain/H6_2.49/GMJ_e2_F_M.csv

>>> END FOREACH

>>> END FOREACH

>>> EXPORT i = G

>>> EXPORT j = P

>>> IF (-FILE GMJ_e2_${i}_${j}.csv)
(Skipped)

>>> END FOREACH

>>> EXPORT j = M

>>> IF (-FILE GMJ_e2_${i}_${j}.csv)
(Skipped)

>>> END FOREACH

>>> END FOREACH

>>> EXPORT i = H

>>> EXPORT j = P

>>> IF (-FILE GMJ_e2_${i}_${j}.csv)
(Skipped)

>>> END FOREACH

>>> EXPORT j = M

>>> IF (-FILE GMJ_e2_${i}_${j}.csv)
(Skipped)

>>> END FOREACH

>>> END FOREACH

>>> EXPORT i = A

>>> IF (-FILE GMJ_e2_$i.csv)
(Skipped)

>>> END FOREACH

>>> EXPORT i = C

>>> IF (-FILE GMJ_e2_$i.csv)

>>> COPY /tmp/H6_2.49/GMJ_RHS_C.csv /home/grierjones/DDCASPT2/hydrogen_comps/H6_chain/H6_2.49/GMJ_RHS_C.csv

>>> COPY /tmp/H6_2.49/GMJ_IVECW_C.csv /home/grierjones/DDCASPT2/hydrogen_comps/H6_chain/H6_2.49/GMJ_IVECW_C.csv

>>> COPY /tmp/H6_2.49/GMJ_IVECX_C.csv /home/grierjones/DDCASPT2/hydrogen_comps/H6_chain/H6_2.49/GMJ_IVECX_C.csv

>>> COPY /tmp/H6_2.49/GMJ_IVECC2_C.csv /home/grierjones/DDCASPT2/hydrogen_comps/H6_chain/H6_2.49/GMJ_IVECC2_C.csv

>>> COPY /tmp/H6_2.49/GMJ_e2_C.csv /home/grierjones/DDCASPT2/hydrogen_comps/H6_chain/H6_2.49/GMJ_e2_C.csv

>>> END FOREACH

>>> EXPORT i = D

>>> IF (-FILE GMJ_e2_$i.csv)
(Skipped)

>>> END FOREACH

.########################.
.# Non-zero return code #.
.########################.

    Timing: Wall=1.82 User=1.02 System=0.79
***************************************
*** WorkDir at /tmp/H6_2.49 cleaned ***
***************************************
