   This run of MOLCAS is using the pymolcas driver

                             OPE
                             OPE          NMOL  CASOP  ENMOLC A   SO
                 OPE        NMOLC        AS  OP EN  MO LC     AS  OP
                OPENM       OL CA        SO  PE NM  OL CA     SOP EN
                OP EN      MO   LC       AS  OP ENMOL  CASO   PENMOL
                OP  EN     MO   LC       AS  OP EN     MO     LC ASO
               OP   E  NMOL  C  AS       OP  EN MO     LC     AS  OP
               OP  E   NMO   LC AS        OPEN  MO     LCASOP EN   M
               O  PEN   MO  LCA  SO
            OPE   NMO   L   CAS    OP
        OPENMOL  CASOP     ENMOL   CASOPE
     OPENMOLCA   SOPENMOLCASOPEN   MOLCASOPE
    OPENMOLCAS   OP           EN   MOL    CAS
    OPENMOLCAS       OP  ENM        O     LCA
    OPENMOLCAS    OPEN  MOLCASO     P  E  NMO
    OPENMOLCAS     OP               E  N  MOL
    OPENMOLCA   SO           PENM   O  L  CAS    OPEN    MO    LCAS
    OPENMOLCA   SOP           ENM   O  L  CAS   OP  EN  MOLC  AS   O
    OPENMOLCA   SOPE           NM      O  LCA   S      OP  EN MO
    OPENMOLC                AS         O  PEN   M      OL  CA  SOPE
    OPENMO        LCASOPE  NMOL        C  ASO   P      ENMOLC     AS
    OPE     NMO      LCA  SO     P     E   NM   OL  CA SO  PE N   MO
          OPENMOLCA            SOPE   NMO        LCAS  O    P  ENMO
     OPENMOLCASOPENMOLCASOPENMOLCASOPENMOLCA
        OPENMOLCASOPENMOLCASOPENMOLCASOPE
            OPENMOLCASOPENMOLCASOPENM
               OPENMOLCASOPENMOLCA        version: 1d1d16313-dirty
                   OPENMOLCASO
                       OPE                tag:

 OpenMolcas is free software; you can redistribute it and/or modify it
 under the terms of the GNU Lesser General Public License version 2.1.
 OpenMolcas is distributed in the hope that it will be useful, but it
 is provided "as is" and without any express or implied warranties.
 For more details see the full text of the license in the file
 LICENSE or in <http://www.gnu.org/licenses/>.

                 Copyright (C) The OpenMolcas Authors
           For the author list and the recommended citation,
                   consult the file CONTRIBUTORS.md

           *************************************************
           * pymolcas version py2.28                       *
           *   build c4a6d18ded8cb6cad61d2372a9abd97c      *
           *   (after the EMIL interpreter by V. Veryazov) *
           *************************************************

configuration info
------------------
C Compiler ID: IntelLLVM
C flags: -std=gnu99
Fortran Compiler ID: IntelLLVM
Fortran flags: -standard-semantics -fltconsistency -fpp -i8 -heap-arrays
Definitions: _MOLCAS_;_I8_;_LINUX_
Parallel: OFF (GA=OFF)


   ------------------------------------------------------------------------------
  |
  |              Project: ozone_160.75
  |       Submitted from: /home/grierjones/DDCASPT2/ozone/ANO-RCC-MB/ozone_160.75
  |         Scratch area: /tmp/ozone_160.75
  |      Save outputs to: /home/grierjones/DDCASPT2/ozone/ANO-RCC-MB/ozone_160.75
  |               Molcas: /home/grierjones/Test/build
  |
  | Scratch area is empty
  |
  |       MOLCAS_DRIVER = /usr/local/pymolcas
  | MOLCAS_KEEP_WORKDIR = NO
  |  MOLCAS_NEW_WORKDIR = YES
  |       MOLCAS_NPROCS = 1
  |        MOLCAS_PRINT = NORMAL
  |       MOLCAS_SOURCE = /home/grierjones/Test
  |    MOLCAS_STRUCTURE = 0
  |
   ------------------------------------------------------------------------------

++ ---------   Input file   ---------

&GATEWAY
coord=ozone_160.75.xyz
Basis = ANO-RCC-MB
Group = nosymm
Expert
End of Input

&SEWARD
End of Input

&SCF

>>> COPY $WorkDir/ozone_160.75.scf.h5 $CurrDir/

&RASSCF
Title= RASSCF
FileOrb
/home/grierjones/DDCASPT2/ozone/ANO-RCC-MB/ozone_160.50/ozone_160.50.RasOrb
NACTEL
4 0 0
Inactive
10
RAS2
3
Symmetry
1
Spin
1
orblisting
all
ITERation
300 200

>>> COPY $WorkDir/ozone_160.75.rasscf.h5 $CurrDir/

>>> COPY $WorkDir/GMJ_Fock_MO.csv $CurrDir/ozone_160.75.GMJ_Fock_MO.csv

>>> COPY $WorkDir/GMJ_PT2_Fock_MO.csv $CurrDir/ozone_160.75.GMJ_PT2_Fock_MO.csv

&MOTRA
Frozen=0
LUMORB

>>> COPY $WorkDir/GMJ_one_int_indx.csv $CurrDir/ozone_160.75.GMJ_one_int_indx.csv

>>> COPY $WorkDir/GMJ_one_int.csv $CurrDir/ozone_160.75.GMJ_one_int.csv

>>> COPY $WorkDir/GMJ_two_int_indx.csv $CurrDir/ozone_160.75.GMJ_two_int_indx.csv

>>> COPY $WorkDir/GMJ_two_int.csv $CurrDir/ozone_160.75.GMJ_two_int.csv

&CASPT2
Frozen
0
MAXITER
50

>>> FOREACH i IN (B,E,F,G,H)

  >>> FOREACH j IN (P,M)

    >>> IF (-FILE GMJ_e2_${i}_${j}.csv)

      >>> COPY $WorkDir/GMJ_RHS_${i}_${j}.csv $CurrDir/GMJ_RHS_${i}_${j}.csv

      >>> COPY $WorkDir/GMJ_IVECW_${i}_${j}.csv $CurrDir/GMJ_IVECW_${i}_${j}.csv

      >>> COPY $WorkDir/GMJ_IVECX_${i}_${j}.csv $CurrDir/GMJ_IVECX_${i}_${j}.csv

      >>> COPY $WorkDir/GMJ_IVECC2_${i}_${j}.csv $CurrDir/GMJ_IVECC2_${i}_${j}.csv

      >>> COPY $WorkDir/GMJ_e2_${i}_${j}.csv $CurrDir/GMJ_e2_${i}_${j}.csv

    >>> END IF

  >>> END FOREACH

>>> END FOREACH

>>> FOREACH i IN (A,C,D)

  >>> IF (-FILE GMJ_e2_$i.csv)

    >>> COPY $WorkDir/GMJ_RHS_$i.csv $CurrDir/GMJ_RHS_$i.csv

    >>> COPY $WorkDir/GMJ_IVECW_$i.csv $CurrDir/GMJ_IVECW_$i.csv

    >>> COPY $WorkDir/GMJ_IVECX_$i.csv $CurrDir/GMJ_IVECX_$i.csv

    >>> COPY $WorkDir/GMJ_IVECC2_$i.csv $CurrDir/GMJ_IVECC2_$i.csv

    >>> COPY $WorkDir/GMJ_e2_$i.csv $CurrDir/GMJ_e2_$i.csv

  >>> END IF

>>> END FOREACH

-- ----------------------------------

--- Start Module: gateway at Sat Jan 25 14:08:46 2025 ---
 
()()()()()()()()()()()()()()()()()()()()()()()()()()()()()()()()()()()()()()()()()()()()()()()()()()

                                              &GATEWAY

                                   only a single process is used
                       available to each process: 2.0 GB of memory, 1 thread?
()()()()()()()()()()()()()()()()()()()()()()()()()()()()()()()()()()()()()()()()()()()()()()()()()()
 
 ###############################################################################
 ###############################################################################
 ###                                                                         ###
 ###                                                                         ###
 ###                                                                         ###
 ###    WARNING: EXPERT option is ON!                                        ###
 ###                                                                         ###
 ###                                                                         ###
 ###############################################################################
 ###############################################################################
 
++    Symmetry information:
      ---------------------
 
                    Character Table for C1 
 
                             E  
                    a        1  x, y, xy, Rz, z, xz, Ry, yz, Rx, I
--
 
 
++    Basis set information:
      ----------------------
 
 
      Basis set label: O.ANO-RCC...2S1P.
 
      Electronic valence basis set:
      ------------------
      Associated Effective Charge   8.000000 au
      Associated Actual Charge      8.000000 au
      Nuclear Model: Point charge
 
      Shell  nPrim  nBasis  Cartesian Spherical Contaminant
         s      14       2        X                  
         p       9       1        X                  
--
 
 
++    Molecular structure info:
      -------------------------
 
                    ************************************************ 
                    **** Cartesian Coordinates / Bohr, Angstrom **** 
                    ************************************************ 
 
     Center  Label                x              y              z                     x              y              z
        1      O1               0.403797       2.381074       0.000000              0.213680       1.260010       0.000000
        2      O2               0.000000       0.000000       0.000000              0.000000       0.000000       0.000000
        3      O3               0.403797      -2.381074       0.000000              0.213680      -1.260010       0.000000
 
                    *************************************** 
                    *    InterNuclear Distances / Bohr    * 
                    *************************************** 
 
               1 O1            2 O2            3 O3    
    1 O1       0.000000
    2 O2       2.415070        0.000000
    3 O3       4.762148        2.415070        0.000000
 
                    ******************************************* 
                    *    InterNuclear Distances / Angstrom    * 
                    ******************************************* 
 
               1 O1            2 O2            3 O3    
    1 O1       0.000000
    2 O2       1.278000        0.000000
    3 O3       2.520020        1.278000        0.000000
 
                    ************************************** 
                    *    Valence Bond Angles / Degree    * 
                    ************************************** 
                          Atom centers                 Phi
                      1 O1       2 O2       3 O3       160.75
--
 
 
            Nuclear Potential Energy             66.43984341 au
 
 ###############################################################################
 ###############################################################################
 ###                                                                         ###
 ###                                                                         ###
 ###    There were warnings during the execution                             ###
 ###    Please, check the output with care!                                  ###
 ###                                                                         ###
 ###                                                                         ###
 ###############################################################################
 ###############################################################################
--- Stop Module: gateway at Sat Jan 25 14:08:46 2025 /rc=_RC_ALL_IS_WELL_ ---
*** files: xmldump
    saved to directory /home/grierjones/DDCASPT2/ozone/ANO-RCC-MB/ozone_160.75

--- Start Module: seward at Sat Jan 25 14:08:46 2025 ---
 
()()()()()()()()()()()()()()()()()()()()()()()()()()()()()()()()()()()()()()()()()()()()()()()()()()

                                              &SEWARD

                                   only a single process is used
                       available to each process: 2.0 GB of memory, 1 thread?
()()()()()()()()()()()()()()()()()()()()()()()()()()()()()()()()()()()()()()()()()()()()()()()()()()
 
 ###############################################################################
 ###############################################################################
 ###                                                                         ###
 ###                                                                         ###
 ###                                                                         ###
 ###    WARNING: EXPERT option is ON!                                        ###
 ###                                                                         ###
 ###                                                                         ###
 ###############################################################################
 ###############################################################################
               SEWARD will generate:
                  Multipole Moment integrals up to order  2
                  Kinetic Energy integrals
                  Nuclear Attraction integrals (point charge)
                  One-Electron Hamiltonian integrals
                  Velocity integrals
                  Relativistic Douglas-Kroll-Hess integrals:
                    - Parametrization         : EXP
                    - DKH order of Hamiltonian: 2
                    - DKH order of Properties : 0
                         - multipole moment operators
                         - electric potential operators
                         - contact operators
                  Atomic mean-field integrals
                  Two-Electron Repulsion integrals
 
                   Integrals are discarded if absolute value <: 0.10E-13
                   Integral cutoff threshold is set to       <: 0.10E-15
 
            Nuclear Potential Energy             66.43984341 au
 
 
      Basis set specifications :
      Symmetry species         a  
      Basis functions           15
 
 
  Input file to MOLDEN was generated!
 
 ###############################################################################
 ###############################################################################
 ###                                                                         ###
 ###                                                                         ###
 ###    There were warnings during the execution                             ###
 ###    Please, check the output with care!                                  ###
 ###                                                                         ###
 ###                                                                         ###
 ###############################################################################
 ###############################################################################
forrtl: warning (525): IEEE_DIVIDE_BY_ZERO is signaling
forrtl: warning (526): IEEE_INVALID is signaling
forrtl: warning (528): IEEE_UNDERFLOW is signaling
--- Stop Module: seward at Sat Jan 25 14:08:46 2025 /rc=_RC_ALL_IS_WELL_ ---
*** files: ozone_160.75.GssOrb ozone_160.75.guessorb.h5 ozone_160.75.guessorb.molden xmldump
    saved to directory /home/grierjones/DDCASPT2/ozone/ANO-RCC-MB/ozone_160.75

*** symbolic link created: INPORB -> ozone_160.75.GssOrb
--- Start Module: scf at Sat Jan 25 14:08:46 2025 ---
 
()()()()()()()()()()()()()()()()()()()()()()()()()()()()()()()()()()()()()()()()()()()()()()()()()()

                                                &SCF

                                   only a single process is used
                       available to each process: 2.0 GB of memory, 1 thread?
()()()()()()()()()()()()()()()()()()()()()()()()()()()()()()()()()()()()()()()()()()()()()()()()()()
 
++    Input section:
      --------------
 
      Header of the integral files:
      
       Integrals generated by seward 4.2.0  , Sat Jan 25 14:08:46 2025
 
 
      Cartesian coordinates in Angstrom:
      -----------------------------------------------------
      No.  Label        X            Y            Z        
      -----------------------------------------------------
       1   O1         0.21368000   1.26001000   0.00000000
       2   O2         0.00000000   0.00000000   0.00000000
       3   O3         0.21368000  -1.26001000   0.00000000
      -----------------------------------------------------
      Nuclear repulsion energy =   66.43984341
--
 
++    Orbital specifications:
      -----------------------
 
      Symmetry species               1
                                     a
      Frozen orbitals                0
      Occupied orbitals             12
      Secondary orbitals             3
      Deleted orbitals               0
      Total number of orbitals      15
      Number of basis functions     15
--
 
      Molecular charge                           0.000
 
++    Optimization specifications:
      ----------------------------
 
      SCF Algorithm: Conventional
      Minimized density differences are used
      Number of density matrices in core                5
      Maximum number of NDDO SCF iterations           400
      Maximum number of HF SCF iterations             400
      Threshold for SCF energy change            0.10E-08
      Threshold for density matrix               0.10E-03
      Threshold for Fock matrix                  0.15E-03
      Threshold for linear dependence            0.10E-08
      Threshold at which DIIS is turned on       0.15E+00
      Threshold at which QNR/C2DIIS is turned on 0.75E-01
      Threshold for Norm(delta) (QNR/C2DIIS)     0.20E-04
      DIIS extrapolation of the SCF procedure
      All orbitals punched on: SCFORB
--
 
      Input vectors read from INPORB
      Orbital file label: *Guess orbitals
 
 
++ Convergence information
                                   SCF        iterations: Energy and convergence statistics
 
Iter     Tot. SCF        One-elec.       Two-elec.     Energy      Max Dij or  Max Fij      DNorm      TNorm      AccCon     Time
         Energy          Energy          Energy        Change      Delta Norm                                                in Sec.
   1  -223.925792838  -436.747826718   146.382190473   0.00E+00    0.52E+00*   0.27E+00*    0.73E+01   0.49E+02   None         0.
   2  -224.136685845  -439.525837351   148.949308099  -0.21E+00*   0.36E+00*   0.12E+00*    0.20E+01   0.49E+02   EDIIS        0.
   3  -224.180250497  -438.335201849   147.715107946  -0.44E-01*   0.14E+00*   0.74E-01*    0.48E+00   0.49E+02   EDIIS        0.
   4  -224.193799350  -439.053900003   148.420257246  -0.14E-01*   0.28E-01*   0.27E-01*    0.11E+00   0.49E+02   c2DIIS       0.
   5  -224.199015389  -438.805251765   148.166392969  -0.52E-02*   0.11E-01*   0.57E-02*    0.28E-01   0.49E+02   QNRc2DIIS    0.
   6  -224.199342597  -438.822122480   148.182936476  -0.33E-03*   0.24E-01*   0.38E-02*    0.69E-02   0.49E+02   QNRc2DIIS    0.
   7  -224.199589714  -438.816041650   148.176608529  -0.25E-03*   0.21E-02*   0.17E-02*    0.42E-02   0.49E+02   QNRc2DIIS    0.
   8  -224.199599512  -438.822583833   148.183140914  -0.98E-05*   0.18E-02*   0.46E-03*    0.17E-02   0.49E+02   QNRc2DIIS    0.
   9  -224.199602217  -438.822097514   148.182651890  -0.27E-05*   0.36E-03*   0.92E-04     0.14E-02   0.49E+02   QNRc2DIIS    0.
  10  -224.199602306  -438.822161157   148.182715444  -0.89E-07*   0.23E-04*   0.16E-04     0.18E-03   0.49E+02   QNRc2DIIS    0.
  11  -224.199602307  -438.822168840   148.182723126  -0.94E-09    0.92E-05    0.49E-05     0.46E-04   0.49E+02   QNRc2DIIS    0.
 
       Convergence after 11 Macro Iterations
--
 
 *****************************************************************************************************************************
 *                                                                                                                           *
 *                                             SCF/KS-DFT Program, Final results                                             *
 *                                                                                                                           *
 *                                                                                                                           *
 *                                                                                                                           *
 *                                                       Final Results                                                       *
 *                                                                                                                           *
 *****************************************************************************************************************************
 
::    Total SCF energy                               -224.1996023066
      One-electron energy                            -438.8221688400
      Two-electron energy                             148.1827231264
      Nuclear repulsion energy                         66.4398434070
      Kinetic energy (interpolated)                   224.7511390870
      Virial theorem                                    0.9975460112
      Total spin, S(S+1)                                0.0000000000
      Total spin, S                                     0.0000000000
      Max non-diagonal density matrix element           0.0000157356
      Max non-diagonal Fock matrix element              0.0000029839
 
 
      All orbitals with orbital energies smaller than  E(LUMO)+0.5 are printed
 
++    Molecular orbitals:
      -------------------
 
      Title: SCF orbitals

      Molecular orbitals for symmetry species 1: a  
 
          Orbital            1         2         3         4         5         6         7         8         9        10    
          Energy          -21.0049  -20.8118  -20.8118   -1.7573   -1.5106   -1.1054   -0.8766   -0.8085   -0.8082   -0.6535
          Occ. No.          2.0000    2.0000    2.0000    2.0000    2.0000    2.0000    2.0000    2.0000    2.0000    2.0000
 
        1 O1     1s         0.0012   -0.7071    0.7071   -0.0157    0.0163    0.0135   -0.0060    0.0000    0.0274    0.0047
        2 O1     2s        -0.0003   -0.0002    0.0000    0.3130   -0.5345    0.6549   -0.1067    0.0000    0.4600    0.0687
        3 O1     2px       -0.0001    0.0002   -0.0002   -0.0198    0.0152    0.0392    0.2893    0.0000    0.1752   -0.6859
        4 O1     2py        0.0000    0.0013   -0.0011   -0.1042    0.1056    0.1490   -0.1147    0.0000    0.3876    0.1983
        5 O1     2pz        0.0000   -0.0000    0.0000    0.0000   -0.0000   -0.0000    0.0000    0.3830   -0.0000    0.0000
        6 O2     1s         1.0000    0.0000   -0.0020   -0.0239    0.0000   -0.0140   -0.0021   -0.0000   -0.0000    0.0000
        7 O2     2s         0.0001    0.0000   -0.0010    0.6600   -0.0000   -0.6217   -0.0320   -0.0000   -0.0000    0.0000
        8 O2     2px        0.0007    0.0000   -0.0001    0.0607   -0.0000    0.0803    0.7708   -0.0000    0.0000   -0.0000
        9 O2     2py        0.0000    0.0007    0.0000   -0.0000   -0.3599    0.0000    0.0000   -0.0000   -0.5908   -0.1110
       10 O2     2pz        0.0000    0.0000    0.0000    0.0000    0.0000   -0.0000    0.0000    0.6901   -0.0000   -0.0000
       11 O3     1s         0.0012    0.7071    0.7071   -0.0157   -0.0163    0.0135   -0.0060   -0.0000   -0.0274   -0.0047
       12 O3     2s        -0.0003    0.0002    0.0000    0.3130    0.5345    0.6549   -0.1067   -0.0000   -0.4600   -0.0687
       13 O3     2px       -0.0001   -0.0002   -0.0002   -0.0198   -0.0152    0.0392    0.2893   -0.0000   -0.1752    0.6859
       14 O3     2py       -0.0000    0.0013    0.0011    0.1042    0.1056   -0.1490    0.1147    0.0000    0.3876    0.1983
       15 O3     2pz        0.0000   -0.0000   -0.0000    0.0000    0.0000   -0.0000    0.0000    0.3830   -0.0000   -0.0000
 
          Orbital           11        12        13        14    
          Energy           -0.5419   -0.5378   -0.0920    0.1284
          Occ. No.          2.0000    2.0000    0.0000    0.0000
 
        1 O1     1s         0.0000    0.0024    0.0000    0.0167
        2 O1     2s         0.0000    0.0164    0.0000    0.2366
        3 O1     2px        0.0000    0.6674    0.0000   -0.0282
        4 O1     2py        0.0000    0.0198   -0.0000   -0.7610
        5 O1     2pz       -0.7165    0.0000    0.6219   -0.0000
        6 O2     1s         0.0000    0.0123   -0.0000   -0.0829
        7 O2     2s         0.0000    0.1439   -0.0000   -0.8527
        8 O2     2px       -0.0000   -0.6604   -0.0000   -0.2597
        9 O2     2py       -0.0000   -0.0000    0.0000    0.0000
       10 O2     2pz        0.0000    0.0000   -0.7865    0.0000
       11 O3     1s         0.0000    0.0024    0.0000    0.0167
       12 O3     2s         0.0000    0.0164    0.0000    0.2366
       13 O3     2px        0.0000    0.6674   -0.0000   -0.0282
       14 O3     2py       -0.0000   -0.0198   -0.0000    0.7610
       15 O3     2pz        0.7165   -0.0000    0.6219   -0.0000
--
 
 
++    Molecular charges:
      ------------------
 
      Mulliken charges per centre and basis function type
      ---------------------------------------------------
 
                O1      O2      O3    
      1s       2.0001  2.0000  2.0001
      2s       1.9194  1.6781  1.9194
      2px      1.9797  1.9329  1.9797
      2pz      1.4124  1.1753  1.4124
      2py      0.7305  1.1294  0.7305
      Total    8.0421  7.9157  8.0421
 
      N-E     -0.0421  0.0843 -0.0421
 
      Total electronic charge=   24.000000
 
      Total            charge=   -0.000000
--
 
 
  Input file to MOLDEN was generated!
 
 
++    Static properties:
      ------------------
 
 
      LoProp Charges per center
 

                   O1       O2       O3    
      Nuclear      8.0000   8.0000   8.0000
      Electronic  -8.0904  -7.8193  -8.0904
 
      Total       -0.0904   0.1807  -0.0904
--
 
 
++    Natural Bond Order analysis
      ---------------------------
      Based on LoProp computed density
      -------------------------------------------------------------------------------------
      Atom A       Atom B       Bond Order | Atom A       Atom B       Bond Order
        O1           O2             2.000  |   O2           O3             2.000
      -------------------------------------------------------------------------------------
      NBO located     12.000 core electrons.
      NBO located      3.963 lone pair electrons.
      NBO located      8.000 electrons involved in    2 bonds.
      The remaining    0.037 electrons are to be considered as diffuse
--
 
 
++    Molecular properties:
      ---------------------
 
      Charge (e):
                      =   -0.0000
      Dipole Moment (Debye):
      Origin of the operator (Ang)=    0.0000    0.0000    0.0000
                   X=  1.4137E-01               Y= -2.6413E-13               Z=  3.1015E-14           Total=  1.4137E-01
      Quadrupole Moment (Debye*Ang):
      Origin of the operator (Ang)=    0.1425    0.0000    0.0000
                  XX= -1.7506E+01              XY= -3.1523E-13              XZ=  7.6704E-14              YY= -1.7820E+01
                  YZ= -1.9424E-15              ZZ= -1.5866E+01
      In traceless form (Debye*Ang)
                  XX= -6.6295E-01              XY= -4.7285E-13              XZ=  1.1506E-13              YY= -1.1336E+00
                  YZ= -2.9135E-15              ZZ=  1.7966E+00
--
 
 
  Input file to MOLDEN was generated!
 
 ###############################################################################
 ###############################################################################
 ###                                                                         ###
 ###                                                                         ###
 ###    RunFile label nBas                                                   ###
 ###    was used       78 times                                              ###
 ###                                                                         ###
 ###                                                                         ###
 ###############################################################################
 ###############################################################################
forrtl: warning (528): IEEE_UNDERFLOW is signaling
--- Stop Module: scf at Sat Jan 25 14:08:46 2025 /rc=_RC_ALL_IS_WELL_ ---
*** files: ozone_160.75.LprOrb ozone_160.75.LoProp.molden ozone_160.75.scf.molden ozone_160.75.ScfOrb ozone_160.75.scf.h5 xmldump
    saved to directory /home/grierjones/DDCASPT2/ozone/ANO-RCC-MB/ozone_160.75

>>> COPY /tmp/ozone_160.75/ozone_160.75.scf.h5 /home/grierjones/DDCASPT2/ozone/ANO-RCC-MB/ozone_160.75/

*** symbolic link created: INPORB -> ozone_160.75.ScfOrb
--- Start Module: rasscf at Sat Jan 25 14:08:46 2025 ---
 
()()()()()()()()()()()()()()()()()()()()()()()()()()()()()()()()()()()()()()()()()()()()()()()()()()

                                              &RASSCF

                                   only a single process is used
                       available to each process: 2.0 GB of memory, 1 thread?
()()()()()()()()()()()()()()()()()()()()()()()()()()()()()()()()()()()()()()()()()()()()()()()()()()
 
 
 *************** WARNING ****************
 ###############################################################################
 ###############################################################################
 ###                                                                         ###
 ###                                                                         ###
 ###    Too many macro-iterations.                                           ###
 ###                                                                         ###
 ###                                                                         ###
 ###############################################################################
 ###############################################################################
 Too many macro-iterations requested.
 Reset to maximum, new MAXIT=     200
 ****************************************
 
 *************** WARNING ****************
 ###############################################################################
 ###############################################################################
 ###                                                                         ###
 ###                                                                         ###
 ###    Too many SX-iterations.                                              ###
 ###                                                                         ###
 ###                                                                         ###
 ###############################################################################
 ###############################################################################
 Too many SX-iterations requested.
 Reset to maximum, new ITMAX=     100
 ****************************************
 
      Header of the ONEINT file:
      --------------------------
      
      Integrals generated by seward 4.2.0  , Sat Jan 25 14:08:46 2025
 
 
      OrdInt status: non-squared
 
 
      Cartesian coordinates in Angstrom:
      -----------------------------------------------------
      No.  Label        X            Y            Z        
      -----------------------------------------------------
       1   O1         0.21368000   1.26001000   0.00000000
       2   O2         0.00000000   0.00000000   0.00000000
       3   O3         0.21368000  -1.26001000   0.00000000
      -----------------------------------------------------
      Nuclear repulsion energy =   66.43984341
 
++    Wave function specifications:
      -----------------------------
 
      Number of closed shell electrons          20
      Number of electrons in active shells       4
      Max number of holes in RAS1 space          0
      Max nr of electrons in RAS3 space          0
      Number of inactive orbitals               10
      Number of active orbitals                  3
      Number of secondary orbitals               2
      Spin quantum number                      0.0
      State symmetry                             1
--
 
++    Orbital specifications:
      -----------------------
 
      Symmetry species                           1
                                                 a
      Frozen orbitals                            0
      Inactive orbitals                         10
      Active orbitals                            3
      RAS1 orbitals                              0
      RAS2 orbitals                              3
      RAS3 orbitals                              0
      Secondary orbitals                         2
      Deleted orbitals                           0
      Number of basis functions                 15
--
 
++    CI expansion specifications:
      ----------------------------
 
      Number of CSFs                             6
      Number of determinants                     6
      Number of root(s) required                 1
      Root chosen for geometry opt.              1
      CI root used                               1
         
      highest root included in the CI            1
      max. size of the explicit Hamiltonian      6
--
 
++    Optimization specifications:
      ----------------------------
 
      RASSCF algorithm: Conventional
      Maximum number of macro iterations       200
      Maximum number of SX iterations          100
      Threshold for RASSCF energy            0.100E-07
      Threshold for max MO rotation          0.100E+00
      Threshold for max BLB element          0.100E-03
      Level shift parameter                  0.500E+00
      Make Quasi-Newton update
--
 
      The MO-coefficients are taken from the file:
      /home/grierjones/DDCASPT2/ozone/ANO-RCC-MB/ozone_160.50/ozone_160.50.RasOrb                                                     
      Title: RASSCF average (pseudo-natural) orbitals                                      
 
      Total molecular charge    0.00
 
      ************************************************************************************************************************
      *                                                                                                                      *
      *                                            Wave function control section                                             *
      *                                                                                                                      *
      ************************************************************************************************************************
 
 
                                         RASSCF iterations: Energy and convergence statistics
                                         ----------------------------------------------------
 
      Iter CI   SX   CI       RASSCF       Energy    max ROT     max BLB   max BLB  Level Ln srch  Step   QN   Walltime
          iter iter root      energy       change     param      element    value   shift minimum  type update hh:mm:ss
 Nr of preliminary CI iterations:   1
        1   1    3    1  -224.29371355    0.00E+00   0.70E-03    9  15 1  0.18E-02*  0.24   0.00    SX    NO    0:00:00
        2   1    3    1  -224.29371748   -0.39E-05* -0.40E-03    7  14 1 -0.95E-03*  0.24   0.00    SX    NO    0:00:00
        3   1    3    1  -224.29371860   -0.11E-05*  0.26E-03    7  14 1 -0.62E-03*  0.24   0.00    SX    NO    0:00:00
        4   1    3    1  -224.29371900   -0.40E-06*  0.14E-03    7  14 1 -0.34E-03*  0.24   0.00    SX    NO    0:00:00
        5   1    3    1  -224.29371913   -0.13E-06*  0.26E-03    7  14 1 -0.22E-03*  0.24   1.69    QN   YES    0:00:00
        6   1    2    1  -224.29371921   -0.79E-07* -0.67E-04    8  15 1  0.82E-04   0.24   0.82    QN   YES    0:00:00
        7   1    2    1  -224.29371920    0.19E-08   0.14E-04    8  15 1 -0.10E-03*  0.24   0.40    QN   YES    0:00:00
        8   1    2    1  -224.29371921   -0.31E-08  -0.16E-04    8  15 1 -0.30E-04   0.24   2.50    QN   YES    0:00:00
      Convergence after  8 iterations
 
  Dmat in MO in SXCTL bf call to SXHAM                                                                                    
  mat. size =     3x    3
 
        1.9840694459291401
       -0.0000000000004580      1.6753264524782905
        0.0010878573627898     -0.0000000000006210      0.3406041015925712
        9   1    2    1  -224.29371921   -0.14E-08  -0.16E-04    8  15 1 -0.30E-04   0.24   2.50    QN   YES    0:00:00
 
      ************************************************************************************************************************
                                                      Wave function printout:
                       occupation of active orbitals, and spin coupling of open shells (u,d: Spin up or down)
      ************************************************************************************************************************
 
      Note: transformation to natural orbitals
      has been made, which may change the order of the CSFs.
 
      printout of CI-coefficients larger than  0.05 for root  1
      energy=    -224.293719
      conf/sym  111     Coeff  Weight
             1  220  -0.91088 0.82970
             3  202   0.40291 0.16234
             6  022   0.08925 0.00796
 
      Natural orbitals and occupation numbers for root  1
      sym 1:   1.984070   1.675326   0.340603
 
      ************************************************************************************************************************
      *                                                                                                                      *
      *                                                    Final results                                                     *
      *                                                                                                                      *
      ************************************************************************************************************************
 
 
++    Wave function specifications:
      -----------------------------
 
      Number of closed shell electrons          20
      Number of electrons in active shells       4
      Max number of holes in RAS1 space          0
      Max nr of electrons in RAS3 space          0
      Number of inactive orbitals               10
      Number of active orbitals                  3
      Number of secondary orbitals               2
      Spin quantum number                      0.0
      State symmetry                             1
--
 
++    Orbital specifications:
      -----------------------
 
      Symmetry species                           1
                                                 a
      Frozen orbitals                            0
      Inactive orbitals                         10
      Active orbitals                            3
      RAS1 orbitals                              0
      RAS2 orbitals                              3
      RAS3 orbitals                              0
      Secondary orbitals                         2
      Deleted orbitals                           0
      Number of basis functions                 15
--
 
++    CI expansion specifications:
      ----------------------------
 
      Number of CSFs                             6
      Number of determinants                     6
      Number of root(s) required                 1
      CI root used                               1
      highest root included in the CI            1
      Root passed to geometry opt.               1
--
 
++    Final optimization conditions:
      ------------------------------
 
      Average CI energy                            -224.29371921
      RASSCF energy for state  1                   -224.29371921
      Super-CI energy                                -0.00000000
      RASSCF energy change                           -0.00000000
      Max change in MO coefficients              -0.142E-04
      Max non-diagonal density matrix element    -0.162E-04
      Maximum BLB matrix element                 -0.296E-04
      (orbital pair   8,  15 in symmetry   1)
      Norm of electronic gradient            0.536E-04
--
 
 
      Final state energy(ies):
      ------------------------
 
::    RASSCF root number  1 Total energy:   -224.29371921
 
++    Molecular orbitals:
      -------------------
 
      Pseudonatural active orbitals and approximate occupation numbers
 
 
 
 
      Molecular orbitals for symmetry species 1: a  
 
 
      Orbital                1         2         3         4         5         6         7         8         9        10
      Energy          -20.8686  -20.8503  -20.8503   -1.7214   -1.5011   -1.0988   -0.8380   -0.8015   -0.6676   -0.5216
      Occ. No.          2.0000    2.0000    2.0000    2.0000    2.0000    2.0000    2.0000    2.0000    2.0000    2.0000
 
    1 O1     1s         0.0115   -0.7071    0.7070   -0.0147    0.0142    0.0140   -0.0049   -0.0250    0.0052    0.0020
    2 O1     2s        -0.0004   -0.0001   -0.0001    0.3487   -0.5609    0.6349   -0.0792   -0.4101    0.0769    0.0065
    3 O1     2px       -0.0001    0.0001   -0.0001   -0.0195    0.0133    0.0434    0.3722   -0.2061   -0.6783    0.6253
    4 O1     2py        0.0001    0.0012   -0.0011   -0.1105    0.1026    0.1810   -0.1227   -0.4206    0.2177    0.0601
    5 O1     2pz       -0.0000   -0.0000   -0.0000   -0.0000   -0.0000   -0.0000   -0.0000   -0.0000   -0.0000    0.0000
    6 O2     1s         0.9999    0.0000   -0.0165   -0.0264    0.0000   -0.0098   -0.0027    0.0000    0.0000    0.0160
    7 O2     2s         0.0006    0.0000   -0.0010    0.6129   -0.0000   -0.6226   -0.0537    0.0000    0.0000    0.1978
    8 O2     2px        0.0009    0.0000   -0.0001    0.0632   -0.0000    0.0474    0.6768   -0.0000   -0.0000   -0.7424
    9 O2     2py        0.0000    0.0006    0.0000   -0.0000   -0.3166    0.0000    0.0000    0.5407   -0.1218   -0.0000
   10 O2     2pz       -0.0000    0.0000    0.0000    0.0000   -0.0000   -0.0000   -0.0000   -0.0000    0.0000    0.0000
   11 O3     1s         0.0115    0.7071    0.7070   -0.0147   -0.0142    0.0140   -0.0049    0.0250   -0.0052    0.0020
   12 O3     2s        -0.0004    0.0001   -0.0001    0.3487    0.5609    0.6349   -0.0792    0.4101   -0.0769    0.0065
   13 O3     2px       -0.0001   -0.0001   -0.0001   -0.0195   -0.0133    0.0434    0.3722    0.2061    0.6783    0.6253
   14 O3     2py       -0.0001    0.0012    0.0011    0.1105    0.1026   -0.1810    0.1227   -0.4206    0.2177   -0.0601
   15 O3     2pz        0.0000    0.0000    0.0000   -0.0000   -0.0000   -0.0000   -0.0000   -0.0000   -0.0000   -0.0000
 
 
      Orbital               11        12        13        14        15
      Energy            0.0000    0.0000    0.0000    0.1226    0.5600
      Occ. No.          1.9841    1.6753    0.3406    0.0000    0.0000
 
    1 O1     1s         0.0000   -0.0000   -0.0000   -0.0177   -0.0555
    2 O1     2s        -0.0000   -0.0000   -0.0000   -0.2522   -0.5071
    3 O1     2px        0.0000    0.0000   -0.0000    0.0099    0.1430
    4 O1     2py        0.0000    0.0000    0.0000    0.7497    0.6603
    5 O1     2pz        0.2862   -0.7165    0.6720   -0.0000    0.0000
    6 O2     1s        -0.0000    0.0000    0.0000    0.0819    0.0000
    7 O2     2s        -0.0000    0.0000    0.0000    0.8749    0.0000
    8 O2     2px        0.0000   -0.0000   -0.0000    0.3038   -0.0000
    9 O2     2py        0.0000    0.0000    0.0000   -0.0000    1.1233
   10 O2     2pz        0.7994    0.0000   -0.6751    0.0000   -0.0000
   11 O3     1s        -0.0000   -0.0000    0.0000   -0.0177    0.0555
   12 O3     2s         0.0000    0.0000    0.0000   -0.2522    0.5071
   13 O3     2px        0.0000    0.0000    0.0000    0.0099   -0.1430
   14 O3     2py        0.0000   -0.0000   -0.0000   -0.7497    0.6603
   15 O3     2pz        0.2862    0.7165    0.6720   -0.0000   -0.0000
--
 
      Von Neumann Entropy (Root  1) =  0.66044
 

      Mulliken population analysis for root number:  1
      -----------------------------------------------
 
 
++    Molecular charges:
      ------------------
 
      Mulliken charges per centre and basis function type
      ---------------------------------------------------
 
                O1      O2      O3    
      1s       2.0001  2.0001  2.0001
      2s       1.9120  1.6281  1.9120
      2px      1.9837  1.8991  1.9837
      2pz      1.2253  1.5494  1.2253
      2py      0.8366  1.0078  0.8366
      Total    7.9578  8.0844  7.9578
 
      N-E      0.0422 -0.0844  0.0422
 
      Total electronic charge=   24.000000
 
      Total            charge=   -0.000000
--
 
 

      Expectation values of various properties for root number:  1
      -----------------------------------------------------------
 
 
++    Molecular properties:
      ---------------------
 
      Charge (e):
                      =   -0.0000
      Dipole Moment (Debye):
      Origin of the operator (Ang)=    0.0000    0.0000    0.0000
                   X=  4.1674E-01               Y= -1.3128E-12               Z=  6.7222E-14           Total=  4.1674E-01
      Quadrupole Moment (Debye*Ang):
      Origin of the operator (Ang)=    0.1425    0.0000    0.0000
                  XX= -1.7479E+01              XY= -3.2285E-13              XZ=  5.1643E-14              YY= -1.6866E+01
                  YZ= -1.8497E-13              ZZ= -1.5656E+01
      In traceless form (Debye*Ang)
                  XX= -1.2175E+00              XY= -4.8427E-13              XZ=  7.7464E-14              YY= -2.9857E-01
                  YZ= -2.7745E-13              ZZ=  1.5160E+00
--
 

      LoProp population analysis for root number:  1
      -----------------------------------------------
 
 
++    LoProp analysis:
      ----------------
 
 
 
  Input file to MOLDEN was generated!
 
 
++    Static properties:
      ------------------
 
 
      LoProp Charges per center
 

                   O1       O2       O3    
      Nuclear      8.0000   8.0000   8.0000
      Electronic  -7.9943  -8.0115  -7.9943
 
      Total        0.0057  -0.0115   0.0057
--
 
 
      Natural Bond Order analysis for root number:  1
 
++    Natural Bond Order analysis
      ---------------------------
      Based on LoProp computed density
      -------------------------------------------------------------------------------------
      Atom A       Atom B       Bond Order | Atom A       Atom B       Bond Order
        O1           O2             1.962  |   O2           O3             1.962
      -------------------------------------------------------------------------------------
      NBO located     12.000 core electrons.
      NBO located      3.961 lone pair electrons.
      NBO located      7.850 electrons involved in    2 bonds.
      The remaining    0.189 electrons are to be considered as diffuse
--
 
--
 
 
  Input file to MOLDEN was generated!
 
      Average orbitals are written to the RASORB file
      Natural orbitals for root   1 are written to the RASORB.1 file
      Spin density orbitals for root   1 are written to the SPDORB.1 file
 
forrtl: warning (525): IEEE_DIVIDE_BY_ZERO is signaling
forrtl: warning (526): IEEE_INVALID is signaling
forrtl: warning (528): IEEE_UNDERFLOW is signaling
--- Stop Module: rasscf at Sat Jan 25 14:08:47 2025 /rc=_RC_ALL_IS_WELL_ ---
*** files: ozone_160.75.LprOrb ozone_160.75.rasscf.molden ozone_160.75.LoProp.molden ozone_160.75.RasOrb ozone_160.75.RasOrb.1 ozone_160.75.rasscf.h5 ozone_160.75.SpdOrb.1 xmldump
    saved to directory /home/grierjones/DDCASPT2/ozone/ANO-RCC-MB/ozone_160.75

>>> COPY /tmp/ozone_160.75/ozone_160.75.rasscf.h5 /home/grierjones/DDCASPT2/ozone/ANO-RCC-MB/ozone_160.75/

>>> COPY /tmp/ozone_160.75/GMJ_Fock_MO.csv /home/grierjones/DDCASPT2/ozone/ANO-RCC-MB/ozone_160.75/ozone_160.75.GMJ_Fock_MO.csv

>>> COPY /tmp/ozone_160.75/GMJ_PT2_Fock_MO.csv /home/grierjones/DDCASPT2/ozone/ANO-RCC-MB/ozone_160.75/ozone_160.75.GMJ_PT2_Fock_MO.csv

*** symbolic link created: INPORB -> ozone_160.75.RasOrb
--- Start Module: motra at Sat Jan 25 14:08:47 2025 ---
 
()()()()()()()()()()()()()()()()()()()()()()()()()()()()()()()()()()()()()()()()()()()()()()()()()()

                                               &MOTRA

                                   only a single process is used
                       available to each process: 2.0 GB of memory, 1 thread?
()()()()()()()()()()()()()()()()()()()()()()()()()()()()()()()()()()()()()()()()()()()()()()()()()()
 
 
      *** WARNING: Default frozen orbitals is overwritten by user input.
      *** Default values:   3
 
      Header of the integral files:
      
       Integrals generated by seward 4.2.0  , Sat Jan 25 14:08:46 2025
 
 
      Header of MO coefficients source file:
      * RASSCF average (pseudo-natural) orbitals                                      
 
 
      Cartesian coordinates in Angstrom:
      -----------------------------------------------------
      No.  Label        X            Y            Z        
      -----------------------------------------------------
       1   O1         0.21368000   1.26001000   0.00000000
       2   O2         0.00000000   0.00000000   0.00000000
       3   O3         0.21368000  -1.26001000   0.00000000
      -----------------------------------------------------
      Nuclear repulsion energy =   66.43984341
 
      Orbital specifications:
      -----------------------
 
      Symmetry species:              1
      Number of basis functions:    15
      Frozen orbitals:               0
      Deleted orbitals:              0
      Number of orbitals used:      15

       SYMMETRY  BASIS FUNCTIONS       ORBITALS      INTEGRALS   CPU(SEC)  I/O(SEC)
 
        1 1 1 1   15  15  15  15    15  15  15  15        7260       0.00      0.00

       TOTAL CPU TIME(SEC)    0.00TOTAL I/O TIME(SEC)    0.00
 
--- Stop Module: motra at Sat Jan 25 14:08:47 2025 /rc=_RC_ALL_IS_WELL_ ---
*** files: xmldump
    saved to directory /home/grierjones/DDCASPT2/ozone/ANO-RCC-MB/ozone_160.75

>>> COPY /tmp/ozone_160.75/GMJ_one_int_indx.csv /home/grierjones/DDCASPT2/ozone/ANO-RCC-MB/ozone_160.75/ozone_160.75.GMJ_one_int_indx.csv

>>> COPY /tmp/ozone_160.75/GMJ_one_int.csv /home/grierjones/DDCASPT2/ozone/ANO-RCC-MB/ozone_160.75/ozone_160.75.GMJ_one_int.csv

>>> COPY /tmp/ozone_160.75/GMJ_two_int_indx.csv /home/grierjones/DDCASPT2/ozone/ANO-RCC-MB/ozone_160.75/ozone_160.75.GMJ_two_int_indx.csv

>>> COPY /tmp/ozone_160.75/GMJ_two_int.csv /home/grierjones/DDCASPT2/ozone/ANO-RCC-MB/ozone_160.75/ozone_160.75.GMJ_two_int.csv

*** symbolic link created: INPORB -> ozone_160.75.RasOrb
--- Start Module: caspt2 at Sat Jan 25 14:08:47 2025 ---
 
()()()()()()()()()()()()()()()()()()()()()()()()()()()()()()()()()()()()()()()()()()()()()()()()()()

                                              &CASPT2

                                   only a single process is used
                       available to each process: 2.0 GB of memory, 1 thread?
()()()()()()()()()()()()()()()()()()()()()()()()()()()()()()()()()()()()()()()()()()()()()()()()()()
 
 Cholesky algorithm in CASPT2 =    1
 
 ###############################################################################
 ###############################################################################
 ###                                                                         ###
 ###                                                                         ###
 ###    User changed nr of frozen orbitals.                                  ###
 ###                                                                         ###
 ###                                                                         ###
 ###############################################################################
 ###############################################################################
 
++    Wave function specifications:
      -----------------------------
 
      Number of closed shell electrons          20
      Number of electrons in active shells       4
      Max number of holes in RAS1 space          0
      Max number of electrons in RAS3 space      0
      Number of inactive orbitals               10
      Number of active orbitals                  3
      Number of secondary orbitals               2
      Spin quantum number                      0.0
      State symmetry                             1
      Number of CSFs                             6
      Number of root(s) available                1
      Root passed to geometry opt.               1
      A file JOBMIX will be created.
      This is a CASSCF or RASSCF reference function
--
 
++    Orbital specifications:
      -----------------------
 
      Symmetry species                           1
                                                 a
      Frozen orbitals                            0
      Inactive orbitals                         10
      Active orbitals                            3
      Secondary orbitals                         2
      Deleted orbitals                           0
      Number of basis functions                 15
--
 
      Type of Fock operator: STANDARD
      Type of 0-order Hamiltonian: STANDARD WITH DEFAULT IPEA
        "IP-EA" denominator shift =      0.25
      The input orbitals and the CI vector will be transformed.
 
--------------------------------------------------------------------------------
 Estimated memory requirements:
  POLY3 :                   250202
  RHS:                      251368
  SIGMA :                   251440
  PRPCTL:                        0
 Available workspace:    230399382
 
++ CASPT2 computation for group   1
 
********************************************************************************
 Multi-State initialization phase begins for group   1
--------------------------------------------------------------------------------
********************************************************************************
 Compute H0 matrices for state    1
--------------------------------------------------------------------------------
--------------------------------------------------------------------------------
 H0 matrices have been computed.
 
********************************************************************************
  CASPT2 EQUATION SOLUTION
--------------------------------------------------------------------------------
 
  Total nr of CASPT2 parameters:
   Before reduction:        2100
   After  reduction:        1232
 
 The contributions to the second order correlation energy in atomic units.
-----------------------------------------------------------------------------------------------------------------------------
  IT.      VJTU        VJTI        ATVX        AIVX        VJAI        BVAT        BJAT        BJAI        TOTAL       RNORM  
-----------------------------------------------------------------------------------------------------------------------------
-------------------------------------------------------------------------------------------------------------------
 
  FINAL CASPT2 RESULT:
 
  Correlation energy /Case, /Symm, and sums:
 VJTU     -0.00000000 -0.00000000
 VJTIP    -0.00116239 -0.00116239
 VJTIM     0.00000000  0.00000000
 ATVX     -0.00000000 -0.00000000
 AIVX     -0.05297009 -0.05297009
 VJAIP    -0.00000000 -0.00000000
 VJAIM    -0.00000000 -0.00000000
 BVATP    -0.00059602 -0.00059602
 BVATM    -0.00000374 -0.00000374
 BJATP    -0.00000000 -0.00000000
 BJATM    -0.00000000 -0.00000000
 BJAIP    -0.03810599 -0.03810599
 BJAIM    -0.00663469 -0.00663469
 Summed:  -0.09947293 -0.09947293
 
      Reference energy:        -224.2937192091
      E2 (Non-variational):      -0.0994729254
      E2 (Variational):          -0.0994729255
      Total energy:            -224.3931921345
      Residual norm:              0.0000000001
      Reference weight:           0.95132
 
      Contributions to the CASPT2 correlation energy
      Active & Virtual Only:         -0.0005997679
      One Inactive Excited:          -0.0529700867
      Two Inactive Excited:          -0.0459030708
 
 
++ Denominators, etc.
----------------------------------------------------------------------------------------------------
 Report on small energy denominators, large coefficients, and large energy contributions.
CASE  SYMM ACTIVE-MIX  NON-ACTIVE INDICES          DENOMINATOR     RHS VALUE       COEFFICIENT     CONTRIBUTION
AIVX     1  Mu1.0006  In1.004 Se1.014               2.57072059     -0.07679923      0.02987460     -0.00229435
AIVX     1  Mu1.0003  In1.005 Se1.014               2.00164551      0.05505802     -0.02750638     -0.00151445
AIVX     1  Mu1.0004  In1.006 Se1.014               1.79081660      0.06848907     -0.03824477     -0.00261935
AIVX     1  Mu1.0006  In1.006 Se1.014               1.94820450      0.06240259     -0.03203084     -0.00199881
AIVX     1  Mu1.0004  In1.007 Se1.014               1.52996596     -0.04506053      0.02945209     -0.00132713
AIVX     1  Mu1.0002  In1.008 Se1.014               1.21182312      0.10712433     -0.08839931     -0.00946972
AIVX     1  Mu1.0003  In1.008 Se1.014               1.30208330     -0.06245175      0.04796294     -0.00299537
AIVX     1  Mu1.0007  In1.008 Se1.014               1.90556119     -0.04830595      0.02534998     -0.00122455
AIVX     1  Mu1.0002  In1.009 Se1.014               1.07786334     -0.04981936      0.04622048     -0.00230267
AIVX     1  Mu1.0003  In1.009 Se1.014               1.16812352      0.03275524     -0.02804090     -0.00091849
AIVX     1  Mu1.0004  In1.005 Se1.015               2.63040287      0.07182247     -0.02730480     -0.00196110
AIVX     1  Mu1.0001  In1.008 Se1.015               1.29609953      0.03624613     -0.02796384     -0.00101358
AIVX     1  Mu1.0004  In1.008 Se1.015               1.93084066     -0.12401882      0.06423065     -0.00796581
AIVX     1  Mu1.0006  In1.008 Se1.015               2.08822856     -0.07458832      0.03571848     -0.00266418
AIVX     1  Mu1.0002  In1.010 Se1.015               1.36919444     -0.03743926      0.02734400     -0.00102374
BJAIP    1  Se1.014 In1.004 Se1.015 In1.005         3.90504793     -0.09852326      0.02522971     -0.00248571
BJAIP    1  Se1.014 In1.006 Se1.014 In1.006         2.44294558      0.07683978     -0.03145371     -0.00241690
BJAIP    1  Se1.014 In1.006 Se1.015 In1.008         2.58296964     -0.08994401      0.03482189     -0.00313202
BJAIP    1  Se1.014 In1.008 Se1.014 In1.008         1.84832168      0.09702741     -0.05249487     -0.00509344
BJAIP    1  Se1.015 In1.008 Se1.015 In1.008         2.72299370      0.10996500     -0.04038378     -0.00444080
BJAIP    1  Se1.014 In1.008 Se1.014 In1.009         1.71436190     -0.05081267      0.02963940     -0.00150606
BJAIP    1  Se1.014 In1.008 Se1.015 In1.010         2.00569299     -0.05214570      0.02599877     -0.00135572
BJAIM    1  Se1.014 In1.006 Se1.014 In1.008         2.58296964     -0.09300085      0.03600530     -0.00334852
--
 
   (Skipping property calculation,
    use PROP keyword to activate)
--
 
  Total CASPT2 energies:
::    CASPT2 Root  1     Total energy:   -224.39319213
 
  A NEW JOBIPH FILE NAMED 'JOBMIX' IS PREPARED.
********************************************************************************
forrtl: warning (528): IEEE_UNDERFLOW is signaling
--- Stop Module: caspt2 at Sat Jan 25 14:08:47 2025 /rc=_RC_ALL_IS_WELL_ ---
*** files: xmldump
    saved to directory /home/grierjones/DDCASPT2/ozone/ANO-RCC-MB/ozone_160.75

>>> EXPORT i = B

>>> EXPORT j = P

>>> IF (-FILE GMJ_e2_${i}_${j}.csv)

>>> COPY /tmp/ozone_160.75/GMJ_RHS_B_P.csv /home/grierjones/DDCASPT2/ozone/ANO-RCC-MB/ozone_160.75/GMJ_RHS_B_P.csv

>>> COPY /tmp/ozone_160.75/GMJ_IVECW_B_P.csv /home/grierjones/DDCASPT2/ozone/ANO-RCC-MB/ozone_160.75/GMJ_IVECW_B_P.csv

>>> COPY /tmp/ozone_160.75/GMJ_IVECX_B_P.csv /home/grierjones/DDCASPT2/ozone/ANO-RCC-MB/ozone_160.75/GMJ_IVECX_B_P.csv

>>> COPY /tmp/ozone_160.75/GMJ_IVECC2_B_P.csv /home/grierjones/DDCASPT2/ozone/ANO-RCC-MB/ozone_160.75/GMJ_IVECC2_B_P.csv

>>> COPY /tmp/ozone_160.75/GMJ_e2_B_P.csv /home/grierjones/DDCASPT2/ozone/ANO-RCC-MB/ozone_160.75/GMJ_e2_B_P.csv

>>> END FOREACH

>>> EXPORT j = M

>>> IF (-FILE GMJ_e2_${i}_${j}.csv)
(Skipped)

>>> END FOREACH

>>> END FOREACH

>>> EXPORT i = E

>>> EXPORT j = P

>>> IF (-FILE GMJ_e2_${i}_${j}.csv)

>>> COPY /tmp/ozone_160.75/GMJ_RHS_E_P.csv /home/grierjones/DDCASPT2/ozone/ANO-RCC-MB/ozone_160.75/GMJ_RHS_E_P.csv

>>> COPY /tmp/ozone_160.75/GMJ_IVECW_E_P.csv /home/grierjones/DDCASPT2/ozone/ANO-RCC-MB/ozone_160.75/GMJ_IVECW_E_P.csv

>>> COPY /tmp/ozone_160.75/GMJ_IVECX_E_P.csv /home/grierjones/DDCASPT2/ozone/ANO-RCC-MB/ozone_160.75/GMJ_IVECX_E_P.csv

>>> COPY /tmp/ozone_160.75/GMJ_IVECC2_E_P.csv /home/grierjones/DDCASPT2/ozone/ANO-RCC-MB/ozone_160.75/GMJ_IVECC2_E_P.csv

>>> COPY /tmp/ozone_160.75/GMJ_e2_E_P.csv /home/grierjones/DDCASPT2/ozone/ANO-RCC-MB/ozone_160.75/GMJ_e2_E_P.csv

>>> END FOREACH

>>> EXPORT j = M

>>> IF (-FILE GMJ_e2_${i}_${j}.csv)

>>> COPY /tmp/ozone_160.75/GMJ_RHS_E_M.csv /home/grierjones/DDCASPT2/ozone/ANO-RCC-MB/ozone_160.75/GMJ_RHS_E_M.csv

>>> COPY /tmp/ozone_160.75/GMJ_IVECW_E_M.csv /home/grierjones/DDCASPT2/ozone/ANO-RCC-MB/ozone_160.75/GMJ_IVECW_E_M.csv

>>> COPY /tmp/ozone_160.75/GMJ_IVECX_E_M.csv /home/grierjones/DDCASPT2/ozone/ANO-RCC-MB/ozone_160.75/GMJ_IVECX_E_M.csv

>>> COPY /tmp/ozone_160.75/GMJ_IVECC2_E_M.csv /home/grierjones/DDCASPT2/ozone/ANO-RCC-MB/ozone_160.75/GMJ_IVECC2_E_M.csv

>>> COPY /tmp/ozone_160.75/GMJ_e2_E_M.csv /home/grierjones/DDCASPT2/ozone/ANO-RCC-MB/ozone_160.75/GMJ_e2_E_M.csv

>>> END FOREACH

>>> END FOREACH

>>> EXPORT i = F

>>> EXPORT j = P

>>> IF (-FILE GMJ_e2_${i}_${j}.csv)

>>> COPY /tmp/ozone_160.75/GMJ_RHS_F_P.csv /home/grierjones/DDCASPT2/ozone/ANO-RCC-MB/ozone_160.75/GMJ_RHS_F_P.csv

>>> COPY /tmp/ozone_160.75/GMJ_IVECW_F_P.csv /home/grierjones/DDCASPT2/ozone/ANO-RCC-MB/ozone_160.75/GMJ_IVECW_F_P.csv

>>> COPY /tmp/ozone_160.75/GMJ_IVECX_F_P.csv /home/grierjones/DDCASPT2/ozone/ANO-RCC-MB/ozone_160.75/GMJ_IVECX_F_P.csv

>>> COPY /tmp/ozone_160.75/GMJ_IVECC2_F_P.csv /home/grierjones/DDCASPT2/ozone/ANO-RCC-MB/ozone_160.75/GMJ_IVECC2_F_P.csv

>>> COPY /tmp/ozone_160.75/GMJ_e2_F_P.csv /home/grierjones/DDCASPT2/ozone/ANO-RCC-MB/ozone_160.75/GMJ_e2_F_P.csv

>>> END FOREACH

>>> EXPORT j = M

>>> IF (-FILE GMJ_e2_${i}_${j}.csv)

>>> COPY /tmp/ozone_160.75/GMJ_RHS_F_M.csv /home/grierjones/DDCASPT2/ozone/ANO-RCC-MB/ozone_160.75/GMJ_RHS_F_M.csv

>>> COPY /tmp/ozone_160.75/GMJ_IVECW_F_M.csv /home/grierjones/DDCASPT2/ozone/ANO-RCC-MB/ozone_160.75/GMJ_IVECW_F_M.csv

>>> COPY /tmp/ozone_160.75/GMJ_IVECX_F_M.csv /home/grierjones/DDCASPT2/ozone/ANO-RCC-MB/ozone_160.75/GMJ_IVECX_F_M.csv

>>> COPY /tmp/ozone_160.75/GMJ_IVECC2_F_M.csv /home/grierjones/DDCASPT2/ozone/ANO-RCC-MB/ozone_160.75/GMJ_IVECC2_F_M.csv

>>> COPY /tmp/ozone_160.75/GMJ_e2_F_M.csv /home/grierjones/DDCASPT2/ozone/ANO-RCC-MB/ozone_160.75/GMJ_e2_F_M.csv

>>> END FOREACH

>>> END FOREACH

>>> EXPORT i = G

>>> EXPORT j = P

>>> IF (-FILE GMJ_e2_${i}_${j}.csv)

>>> COPY /tmp/ozone_160.75/GMJ_RHS_G_P.csv /home/grierjones/DDCASPT2/ozone/ANO-RCC-MB/ozone_160.75/GMJ_RHS_G_P.csv

>>> COPY /tmp/ozone_160.75/GMJ_IVECW_G_P.csv /home/grierjones/DDCASPT2/ozone/ANO-RCC-MB/ozone_160.75/GMJ_IVECW_G_P.csv

>>> COPY /tmp/ozone_160.75/GMJ_IVECX_G_P.csv /home/grierjones/DDCASPT2/ozone/ANO-RCC-MB/ozone_160.75/GMJ_IVECX_G_P.csv

>>> COPY /tmp/ozone_160.75/GMJ_IVECC2_G_P.csv /home/grierjones/DDCASPT2/ozone/ANO-RCC-MB/ozone_160.75/GMJ_IVECC2_G_P.csv

>>> COPY /tmp/ozone_160.75/GMJ_e2_G_P.csv /home/grierjones/DDCASPT2/ozone/ANO-RCC-MB/ozone_160.75/GMJ_e2_G_P.csv

>>> END FOREACH

>>> EXPORT j = M

>>> IF (-FILE GMJ_e2_${i}_${j}.csv)

>>> COPY /tmp/ozone_160.75/GMJ_RHS_G_M.csv /home/grierjones/DDCASPT2/ozone/ANO-RCC-MB/ozone_160.75/GMJ_RHS_G_M.csv

>>> COPY /tmp/ozone_160.75/GMJ_IVECW_G_M.csv /home/grierjones/DDCASPT2/ozone/ANO-RCC-MB/ozone_160.75/GMJ_IVECW_G_M.csv

>>> COPY /tmp/ozone_160.75/GMJ_IVECX_G_M.csv /home/grierjones/DDCASPT2/ozone/ANO-RCC-MB/ozone_160.75/GMJ_IVECX_G_M.csv

>>> COPY /tmp/ozone_160.75/GMJ_IVECC2_G_M.csv /home/grierjones/DDCASPT2/ozone/ANO-RCC-MB/ozone_160.75/GMJ_IVECC2_G_M.csv

>>> COPY /tmp/ozone_160.75/GMJ_e2_G_M.csv /home/grierjones/DDCASPT2/ozone/ANO-RCC-MB/ozone_160.75/GMJ_e2_G_M.csv

>>> END FOREACH

>>> END FOREACH

>>> EXPORT i = H

>>> EXPORT j = P

>>> IF (-FILE GMJ_e2_${i}_${j}.csv)

>>> COPY /tmp/ozone_160.75/GMJ_RHS_H_P.csv /home/grierjones/DDCASPT2/ozone/ANO-RCC-MB/ozone_160.75/GMJ_RHS_H_P.csv

>>> COPY /tmp/ozone_160.75/GMJ_IVECW_H_P.csv /home/grierjones/DDCASPT2/ozone/ANO-RCC-MB/ozone_160.75/GMJ_IVECW_H_P.csv

>>> COPY /tmp/ozone_160.75/GMJ_IVECX_H_P.csv /home/grierjones/DDCASPT2/ozone/ANO-RCC-MB/ozone_160.75/GMJ_IVECX_H_P.csv

>>> COPY /tmp/ozone_160.75/GMJ_IVECC2_H_P.csv /home/grierjones/DDCASPT2/ozone/ANO-RCC-MB/ozone_160.75/GMJ_IVECC2_H_P.csv

>>> COPY /tmp/ozone_160.75/GMJ_e2_H_P.csv /home/grierjones/DDCASPT2/ozone/ANO-RCC-MB/ozone_160.75/GMJ_e2_H_P.csv

>>> END FOREACH

>>> EXPORT j = M

>>> IF (-FILE GMJ_e2_${i}_${j}.csv)

>>> COPY /tmp/ozone_160.75/GMJ_RHS_H_M.csv /home/grierjones/DDCASPT2/ozone/ANO-RCC-MB/ozone_160.75/GMJ_RHS_H_M.csv

>>> COPY /tmp/ozone_160.75/GMJ_IVECW_H_M.csv /home/grierjones/DDCASPT2/ozone/ANO-RCC-MB/ozone_160.75/GMJ_IVECW_H_M.csv

>>> COPY /tmp/ozone_160.75/GMJ_IVECX_H_M.csv /home/grierjones/DDCASPT2/ozone/ANO-RCC-MB/ozone_160.75/GMJ_IVECX_H_M.csv

>>> COPY /tmp/ozone_160.75/GMJ_IVECC2_H_M.csv /home/grierjones/DDCASPT2/ozone/ANO-RCC-MB/ozone_160.75/GMJ_IVECC2_H_M.csv

>>> COPY /tmp/ozone_160.75/GMJ_e2_H_M.csv /home/grierjones/DDCASPT2/ozone/ANO-RCC-MB/ozone_160.75/GMJ_e2_H_M.csv

>>> END FOREACH

>>> END FOREACH

>>> EXPORT i = A

>>> IF (-FILE GMJ_e2_$i.csv)

>>> COPY /tmp/ozone_160.75/GMJ_RHS_A.csv /home/grierjones/DDCASPT2/ozone/ANO-RCC-MB/ozone_160.75/GMJ_RHS_A.csv

>>> COPY /tmp/ozone_160.75/GMJ_IVECW_A.csv /home/grierjones/DDCASPT2/ozone/ANO-RCC-MB/ozone_160.75/GMJ_IVECW_A.csv

>>> COPY /tmp/ozone_160.75/GMJ_IVECX_A.csv /home/grierjones/DDCASPT2/ozone/ANO-RCC-MB/ozone_160.75/GMJ_IVECX_A.csv

>>> COPY /tmp/ozone_160.75/GMJ_IVECC2_A.csv /home/grierjones/DDCASPT2/ozone/ANO-RCC-MB/ozone_160.75/GMJ_IVECC2_A.csv

>>> COPY /tmp/ozone_160.75/GMJ_e2_A.csv /home/grierjones/DDCASPT2/ozone/ANO-RCC-MB/ozone_160.75/GMJ_e2_A.csv

>>> END FOREACH

>>> EXPORT i = C

>>> IF (-FILE GMJ_e2_$i.csv)

>>> COPY /tmp/ozone_160.75/GMJ_RHS_C.csv /home/grierjones/DDCASPT2/ozone/ANO-RCC-MB/ozone_160.75/GMJ_RHS_C.csv

>>> COPY /tmp/ozone_160.75/GMJ_IVECW_C.csv /home/grierjones/DDCASPT2/ozone/ANO-RCC-MB/ozone_160.75/GMJ_IVECW_C.csv

>>> COPY /tmp/ozone_160.75/GMJ_IVECX_C.csv /home/grierjones/DDCASPT2/ozone/ANO-RCC-MB/ozone_160.75/GMJ_IVECX_C.csv

>>> COPY /tmp/ozone_160.75/GMJ_IVECC2_C.csv /home/grierjones/DDCASPT2/ozone/ANO-RCC-MB/ozone_160.75/GMJ_IVECC2_C.csv

>>> COPY /tmp/ozone_160.75/GMJ_e2_C.csv /home/grierjones/DDCASPT2/ozone/ANO-RCC-MB/ozone_160.75/GMJ_e2_C.csv

>>> END FOREACH

>>> EXPORT i = D

>>> IF (-FILE GMJ_e2_$i.csv)

>>> COPY /tmp/ozone_160.75/GMJ_RHS_D.csv /home/grierjones/DDCASPT2/ozone/ANO-RCC-MB/ozone_160.75/GMJ_RHS_D.csv

>>> COPY /tmp/ozone_160.75/GMJ_IVECW_D.csv /home/grierjones/DDCASPT2/ozone/ANO-RCC-MB/ozone_160.75/GMJ_IVECW_D.csv

>>> COPY /tmp/ozone_160.75/GMJ_IVECX_D.csv /home/grierjones/DDCASPT2/ozone/ANO-RCC-MB/ozone_160.75/GMJ_IVECX_D.csv

>>> COPY /tmp/ozone_160.75/GMJ_IVECC2_D.csv /home/grierjones/DDCASPT2/ozone/ANO-RCC-MB/ozone_160.75/GMJ_IVECC2_D.csv

>>> COPY /tmp/ozone_160.75/GMJ_e2_D.csv /home/grierjones/DDCASPT2/ozone/ANO-RCC-MB/ozone_160.75/GMJ_e2_D.csv

>>> END FOREACH

.########################.
.# Non-zero return code #.
.########################.

    Timing: Wall=1.04 User=0.73 System=0.31
********************************************
*** WorkDir at /tmp/ozone_160.75 cleaned ***
********************************************
