[Molden Format]
[N_Atoms]
                     2
[Atoms] (AU)
B1          1      5           0.00000000      0.00000000      0.00000000
C2          2      6           0.00000000      0.00000000      4.72431531
[Charge] (Mulliken)
  8.749038901983308E-002
 -8.749038901987305E-002
[GTO] (AU)
   1
   s  14
  3.336021700E+04  1.039699991E-04
  4.972095200E+03  5.254399956E-04
  1.125641700E+03  2.509059979E-03
  3.164913600E+02  1.031887991E-02
  1.020072600E+02  3.636632969E-02
  3.629587300E+01  1.064607991E-01
  1.397141000E+01  2.403999880E-01
  5.741156000E+00  3.748581168E-01
  2.494268000E+00  3.100066974E-01
  1.114202000E+00  7.922455933E-02
  4.215490000E-01 -4.947589958E-03
  1.696330000E-01 -7.737119935E-03
  6.853500000E-02 -1.501079987E-03
  2.398700000E-02 -1.333299989E-04
   s  14
  3.336021700E+04 -2.030000008E-05
  4.972095200E+03 -1.025700004E-04
  1.125641700E+03 -4.911300020E-04
  3.164913600E+02 -2.026570008E-03
  1.020072600E+02 -7.261010030E-03
  3.629587300E+01 -2.197722009E-02
  1.397141000E+01 -5.408428022E-02
  5.741156000E+00 -1.022402604E-01
  2.494268000E+00 -1.423595206E-01
  1.114202000E+00 -4.658690019E-02
  4.215490000E-01  3.799402916E-01
  1.696330000E-01  5.890463624E-01
  6.853500000E-02  1.749075107E-01
  2.398700000E-02 -1.142030005E-03
   p   9
  5.500000000E+01  1.229800005E-03
  1.336610100E+01  8.827380035E-03
  4.135394000E+00  3.843340015E-02
  1.481256000E+00  1.150031805E-01
  6.021360000E-01  2.733674011E-01
  2.556360000E-01  4.061972116E-01
  1.111510000E-01  3.014967912E-01
  4.764800000E-02  7.684809030E-02
  1.667700000E-02 -8.170000032E-06
 
   2
   s  14
  5.055750100E+04  1.128874000E-04
  7.524785600E+03  5.295373000E-04
  1.694327600E+03  2.450038300E-03
  4.728227900E+02  1.005398470E-02
  1.517107500E+02  3.545398060E-02
  5.391874600E+01  1.044071086E-01
  2.065931100E+01  2.412894918E-01
  8.383976000E+00  3.834225483E-01
  3.577015000E+00  3.078514393E-01
  1.547118000E+00  6.872442990E-02
  6.130130000E-01  2.224445000E-04
  2.460680000E-01  1.976748900E-03
  9.908700000E-02  2.057859400E-03
  3.468000000E-02  4.182020000E-04
   s  14
  5.055750100E+04 -2.507420000E-05
  7.524785600E+03 -1.175945000E-04
  1.694327600E+03 -5.456275000E-04
  4.728227900E+02 -2.245077100E-03
  1.517107500E+02 -8.043471800E-03
  5.391874600E+01 -2.442588710E-02
  2.065931100E+01 -6.136791180E-02
  8.383976000E+00 -1.177767835E-01
  3.577015000E+00 -1.550487783E-01
  1.547118000E+00 -1.933316860E-02
  6.130130000E-01  3.996930678E-01
  2.460680000E-01  5.589420949E-01
  9.908700000E-02  1.711195023E-01
  3.468000000E-02  7.456244600E-03
   p   9
  8.333315500E+01  1.344656000E-03
  1.955761100E+01  1.023555500E-02
  6.080365000E+00  4.520067100E-02
  2.179317000E+00  1.410756198E-01
  8.651500000E-01  3.047388085E-01
  3.619440000E-01  3.995281011E-01
  1.547400000E-01  2.719163432E-01
  6.542900000E-02  5.857669330E-02
  2.290000000E-02 -1.263813000E-04
 
[MO]
Sym=     1a  
Ene=   -11.1880
Spin= Alpha
Occup=    1.00000
   1        -0.00004641
   2        -0.00053676
   3         0.00000002
   4         0.00000001
   5        -0.00054600
   6         1.00001191
   7        -0.00216568
   8        -0.00000002
   9         0.00000018
  10        -0.00053671
Sym=     1a  
Ene=   -11.1880
Spin= Beta
Occup=    1.00000
   1        -0.00004641
   2        -0.00053676
   3         0.00000002
   4         0.00000001
   5        -0.00054600
   6         1.00001191
   7        -0.00216568
   8        -0.00000002
   9         0.00000018
  10        -0.00053671
Sym=     2a  
Ene=    -7.6762
Spin= Alpha
Occup=    1.00000
   1         0.99990238
   2         0.01404791
   3        -0.00000004
   4         0.00000024
   5         0.00026458
   6        -0.00003261
   7        -0.00015949
   8        -0.00000004
   9         0.00000008
  10         0.00001726
Sym=     2a  
Ene=    -7.6762
Spin= Beta
Occup=    1.00000
   1         0.99990238
   2         0.01404791
   3        -0.00000004
   4         0.00000024
   5         0.00026458
   6        -0.00003261
   7        -0.00015949
   8        -0.00000004
   9         0.00000008
  10         0.00001726
Sym=     3a  
Ene=    -0.6604
Spin= Alpha
Occup=    1.00000
   1        -0.00817419
   2         0.22963712
   3        -0.00000036
   4         0.00000348
   5         0.05215394
   6        -0.00044502
   7         0.93379051
   8         0.00002930
   9        -0.00001019
  10        -0.00588564
Sym=     3a  
Ene=    -0.6604
Spin= Beta
Occup=    1.00000
   1        -0.00817419
   2         0.22963712
   3        -0.00000036
   4         0.00000348
   5         0.05215394
   6        -0.00044502
   7         0.93379051
   8         0.00002930
   9        -0.00001019
  10        -0.00588564
Sym=     4a  
Ene=    -0.4894
Spin= Alpha
Occup=    1.00000
   1         0.01295965
   2        -0.96061356
   3         0.00003073
   4        -0.00002041
   5        -0.00542869
   6         0.00785529
   7         0.34623892
   8        -0.00004099
   9        -0.00003661
  10         0.09158064
Sym=     4a  
Ene=    -0.4894
Spin= Beta
Occup=    1.00000
   1         0.01295965
   2        -0.96061356
   3         0.00003073
   4        -0.00002041
   5        -0.00542869
   6         0.00785529
   7         0.34623892
   8        -0.00004099
   9        -0.00003661
  10         0.09158064
Sym=     5a  
Ene=    -0.2801
Spin= Alpha
Occup=    1.00000
   1         0.00000289
   2         0.00014798
   3        -0.11372843
   4        -0.04020381
   5        -0.00012009
   6         0.00000140
   7         0.00002354
   8        -0.92657509
   9        -0.32755105
  10         0.00036126
Sym=     5a  
Ene=    -0.2801
Spin= Beta
Occup=    1.00000
   1         0.00000289
   2         0.00014798
   3        -0.11372843
   4        -0.04020381
   5        -0.00012009
   6         0.00000140
   7         0.00002354
   8        -0.92657509
   9        -0.32755105
  10         0.00036126
Sym=     6a  
Ene=     0.2372
Spin= Alpha
Occup=    0.00000
   1        -0.01114160
   2        -0.26192194
   3         0.00445619
   4        -0.00859122
   5        -0.46614618
   6         0.01065059
   7         0.15260521
   8         0.00132907
   9        -0.00546910
  10        -1.00597012
Sym=     6a  
Ene=     0.2372
Spin= Beta
Occup=    0.00000
   1        -0.01114160
   2        -0.26192194
   3         0.00445619
   4        -0.00859122
   5        -0.46614618
   6         0.01065059
   7         0.15260521
   8         0.00132907
   9        -0.00546910
  10        -1.00597012
Sym=     7a  
Ene=    -0.0007
Spin= Alpha
Occup=    1.00000
   1         0.00146123
   2         0.07530425
   3         0.00098756
   4        -0.00104130
   5        -0.93647994
   6         0.01763193
   7         0.22367792
   8         0.00018850
   9        -0.00005274
  10         0.24703571
Sym=     7a  
Ene=    -0.0007
Spin= Beta
Occup=    0.00000
   1         0.00146123
   2         0.07530425
   3         0.00098756
   4        -0.00104130
   5        -0.93647994
   6         0.01763193
   7         0.22367792
   8         0.00018850
   9        -0.00005274
  10         0.24703571
Sym=     8a  
Ene=     0.0845
Spin= Alpha
Occup=    0.00000
   1         0.00012351
   2         0.00288824
   3         0.30892421
   4        -0.87439896
   5         0.00646318
   6        -0.00014302
   7        -0.00202517
   8         0.10170393
   9        -0.28758587
  10         0.01101481
Sym=     8a  
Ene=     0.0845
Spin= Beta
Occup=    0.00000
   1         0.00012351
   2         0.00288824
   3         0.30892421
   4        -0.87439896
   5         0.00646318
   6        -0.00014302
   7        -0.00202517
   8         0.10170393
   9        -0.28758587
  10         0.01101481
Sym=     9a  
Ene=     0.0998
Spin= Alpha
Occup=    0.00000
   1        -0.00001415
   2        -0.00034725
   3        -0.93925439
   4        -0.33187716
   5        -0.00116179
   6         0.00002469
   7         0.00034208
   8         0.19103818
   9         0.06757871
  10        -0.00124994
Sym=     9a  
Ene=     0.0998
Spin= Beta
Occup=    0.00000
   1        -0.00001415
   2        -0.00034725
   3        -0.93925439
   4        -0.33187716
   5        -0.00116179
   6         0.00002469
   7         0.00034208
   8         0.19103818
   9         0.06757871
  10        -0.00124994
Sym=    10a  
Ene=     0.1833
Spin= Alpha
Occup=    0.00000
   1        -0.00002565
   2        -0.00061998
   3         0.12769469
   4        -0.36122938
   5        -0.00077730
   6         0.00001880
   7         0.00030044
   8        -0.31860859
   9         0.90127786
  10        -0.00234658
Sym=    10a  
Ene=     0.1833
Spin= Beta
Occup=    0.00000
   1        -0.00002565
   2        -0.00061998
   3         0.12769469
   4        -0.36122938
   5        -0.00077730
   6         0.00001880
   7         0.00030044
   8        -0.31860859
   9         0.90127786
  10        -0.00234658
