[Molden Format]
[N_Atoms]
                     2
[Atoms] (AU)
B1          1      5           0.00000000      0.00000000      0.00000000
C2          2      6           0.00000000      0.00000000      4.72431531
[Charge] (Mulliken)
  2.015574413525645E-002
 -2.015574413531329E-002
[GTO] (AU)
   1
   s  14
  3.336021700E+04  1.039699991E-04
  4.972095200E+03  5.254399956E-04
  1.125641700E+03  2.509059979E-03
  3.164913600E+02  1.031887991E-02
  1.020072600E+02  3.636632969E-02
  3.629587300E+01  1.064607991E-01
  1.397141000E+01  2.403999880E-01
  5.741156000E+00  3.748581168E-01
  2.494268000E+00  3.100066974E-01
  1.114202000E+00  7.922455933E-02
  4.215490000E-01 -4.947589958E-03
  1.696330000E-01 -7.737119935E-03
  6.853500000E-02 -1.501079987E-03
  2.398700000E-02 -1.333299989E-04
   s  14
  3.336021700E+04 -2.030000008E-05
  4.972095200E+03 -1.025700004E-04
  1.125641700E+03 -4.911300020E-04
  3.164913600E+02 -2.026570008E-03
  1.020072600E+02 -7.261010030E-03
  3.629587300E+01 -2.197722009E-02
  1.397141000E+01 -5.408428022E-02
  5.741156000E+00 -1.022402604E-01
  2.494268000E+00 -1.423595206E-01
  1.114202000E+00 -4.658690019E-02
  4.215490000E-01  3.799402916E-01
  1.696330000E-01  5.890463624E-01
  6.853500000E-02  1.749075107E-01
  2.398700000E-02 -1.142030005E-03
   p   9
  5.500000000E+01  1.229800005E-03
  1.336610100E+01  8.827380035E-03
  4.135394000E+00  3.843340015E-02
  1.481256000E+00  1.150031805E-01
  6.021360000E-01  2.733674011E-01
  2.556360000E-01  4.061972116E-01
  1.111510000E-01  3.014967912E-01
  4.764800000E-02  7.684809030E-02
  1.667700000E-02 -8.170000032E-06
 
   2
   s  14
  5.055750100E+04  1.128874000E-04
  7.524785600E+03  5.295373000E-04
  1.694327600E+03  2.450038300E-03
  4.728227900E+02  1.005398470E-02
  1.517107500E+02  3.545398060E-02
  5.391874600E+01  1.044071086E-01
  2.065931100E+01  2.412894918E-01
  8.383976000E+00  3.834225483E-01
  3.577015000E+00  3.078514393E-01
  1.547118000E+00  6.872442990E-02
  6.130130000E-01  2.224445000E-04
  2.460680000E-01  1.976748900E-03
  9.908700000E-02  2.057859400E-03
  3.468000000E-02  4.182020000E-04
   s  14
  5.055750100E+04 -2.507420000E-05
  7.524785600E+03 -1.175945000E-04
  1.694327600E+03 -5.456275000E-04
  4.728227900E+02 -2.245077100E-03
  1.517107500E+02 -8.043471800E-03
  5.391874600E+01 -2.442588710E-02
  2.065931100E+01 -6.136791180E-02
  8.383976000E+00 -1.177767835E-01
  3.577015000E+00 -1.550487783E-01
  1.547118000E+00 -1.933316860E-02
  6.130130000E-01  3.996930678E-01
  2.460680000E-01  5.589420949E-01
  9.908700000E-02  1.711195023E-01
  3.468000000E-02  7.456244600E-03
   p   9
  8.333315500E+01  1.344656000E-03
  1.955761100E+01  1.023555500E-02
  6.080365000E+00  4.520067100E-02
  2.179317000E+00  1.410756198E-01
  8.651500000E-01  3.047388085E-01
  3.619440000E-01  3.995281011E-01
  1.547400000E-01  2.719163432E-01
  6.542900000E-02  5.857669330E-02
  2.290000000E-02 -1.263813000E-04
 
[MO]
Sym=     1a  
Ene=   -11.2620
Spin= Alpha
Occup=    1.00000
   1        -0.00005852
   2        -0.00068811
   3        -0.00000000
   4        -0.00000000
   5        -0.00076500
   6         1.00001999
   7         0.00034964
   8         0.00000000
   9        -0.00000000
  10        -0.00025414
Sym=     1a  
Ene=   -11.2120
Spin= Beta
Occup=    1.00000
   1        -0.00003790
   2        -0.00031237
   3        -0.00000000
   4        -0.00000000
   5        -0.00022996
   6         0.99999502
   7        -0.00479136
   8         0.00000000
   9        -0.00000000
  10        -0.00019690
Sym=     2a  
Ene=    -7.6392
Spin= Alpha
Occup=    1.00000
   1         0.99991727
   2         0.01294693
   3        -0.00000000
   4        -0.00000000
   5         0.00018600
   6        -0.00001793
   7        -0.00008726
   8         0.00000000
   9         0.00000000
  10         0.00004696
Sym=     2a  
Ene=    -7.6572
Spin= Beta
Occup=    1.00000
   1         0.99988287
   2         0.01563549
   3        -0.00000000
   4         0.00000000
   5        -0.00013170
   6        -0.00003012
   7        -0.00023758
   8         0.00000000
   9        -0.00000000
  10         0.00027265
Sym=     3a  
Ene=    -0.8056
Spin= Alpha
Occup=    1.00000
   1        -0.00576053
   2         0.07490711
   3        -0.00000000
   4         0.00000000
   5         0.02901489
   6        -0.00120578
   7         0.98202584
   8         0.00000000
   9        -0.00000000
  10         0.01782609
Sym=     3a  
Ene=    -0.5897
Spin= Beta
Occup=    1.00000
   1        -0.01397704
   2         0.60306966
   3         0.00000000
   4        -0.00000000
   5         0.00811945
   6        -0.00091153
   7         0.71617068
   8        -0.00000000
   9         0.00000000
  10        -0.06040613
Sym=     4a  
Ene=    -0.4329
Spin= Alpha
Occup=    1.00000
   1         0.01338239
   2        -0.96091886
   3         0.00000000
   4        -0.00000000
   5        -0.12178458
   6         0.00930284
   7         0.21177473
   8         0.00000000
   9        -0.00000000
  10         0.14665006
Sym=     4a  
Ene=    -0.5026
Spin= Beta
Occup=    1.00000
   1         0.00883818
   2        -0.78886778
   3         0.00000000
   4        -0.00000000
   5         0.13571997
   6         0.00631907
   7         0.67023810
   8        -0.00000000
   9         0.00000000
  10         0.00281714
Sym=     5a  
Ene=    -0.4104
Spin= Alpha
Occup=    1.00000
   1        -0.00000000
   2        -0.00000000
   3         0.03018342
   4         0.02932736
   5         0.00000000
   6         0.00000000
   7         0.00000000
   8         0.71407559
   9         0.69382324
  10        -0.00000000
Sym=     5a  
Ene=    -0.3074
Spin= Beta
Occup=    1.00000
   1         0.00000000
   2        -0.00000000
   3        -0.69362990
   4         0.71387661
   5        -0.00000000
   6         0.00000000
   7         0.00000000
   8        -0.03086576
   9         0.03176672
  10         0.00000000
Sym=     6a  
Ene=    -0.4090
Spin= Alpha
Occup=    1.00000
   1         0.00000000
   2        -0.00000000
   3        -0.02340878
   4         0.02409207
   5        -0.00000000
   6         0.00000000
   7         0.00000000
   8        -0.69453555
   9         0.71480869
  10         0.00000000
Sym=     6a  
Ene=     0.0639
Spin= Beta
Occup=    0.00000
   1         0.00538721
   2         0.00427728
   3         0.00000000
   4        -0.00000000
   5        -0.77586545
   6         0.01563913
   7         0.26531461
   8         0.00000000
   9        -0.00000000
  10         0.50283040
Sym=     7a  
Ene=     0.0497
Spin= Alpha
Occup=    0.00000
   1         0.00527219
   2         0.31305511
   3         0.00000000
   4        -0.00000000
   5        -0.57830810
   6         0.00868032
   7         0.07241865
   8        -0.00000000
   9         0.00000000
  10         0.69515697
Sym=     7a  
Ene=     0.0923
Spin= Beta
Occup=    0.00000
   1        -0.00000000
   2         0.00000000
   3         0.69420320
   4         0.67451446
   5         0.00000000
   6         0.00000000
   7         0.00000000
   8         0.13167016
   9         0.12793578
  10        -0.00000000
Sym=     8a  
Ene=     0.1292
Spin= Alpha
Occup=    0.00000
   1         0.00000000
   2         0.00000000
   3         0.71903887
   4         0.69864575
   5         0.00000000
   6         0.00000000
   7         0.00000000
   8        -0.08957664
   9        -0.08703610
  10         0.00000000
Sym=     8a  
Ene=     0.2358
Spin= Beta
Occup=    0.00000
   1         0.00000000
   2         0.00000000
   3         0.08856374
   4        -0.09114887
   5         0.00000000
   6        -0.00000000
   7        -0.00000000
   8        -0.69857947
   9         0.71897066
  10         0.00000000
Sym=     9a  
Ene=     0.1785
Spin= Alpha
Occup=    0.00000
   1         0.00000000
   2         0.00000000
   3        -0.69886909
   4         0.71926873
   5         0.00000000
   6        -0.00000000
   7        -0.00000000
   8         0.08115629
   9        -0.08352520
  10         0.00000000
Sym=     9a  
Ene=     0.2414
Spin= Beta
Occup=    0.00000
   1        -0.00000000
   2         0.00000000
   3        -0.18976261
   4        -0.18438063
   5         0.00000000
   6        -0.00000000
   7        -0.00000000
   8         0.70752449
   9         0.68745793
  10         0.00000000
Sym=    10a  
Ene=     0.2353
Spin= Alpha
Occup=    0.00000
   1         0.00954997
   2         0.15114308
   3         0.00000000
   4        -0.00000000
   5         0.86427214
   6        -0.01751378
   7        -0.22518309
   8        -0.00000000
   9         0.00000000
  10         0.75926655
Sym=    10a  
Ene=     0.2684
Spin= Beta
Occup=    0.00000
   1         0.00987763
   2         0.25243556
   3        -0.00000000
   4         0.00000000
   5         0.69038211
   6        -0.01531894
   7        -0.18066787
   8         0.00000000
   9        -0.00000000
  10         0.90832682
