[Molden Format]
[N_Atoms]
                     2
[Atoms] (AU)
BE1         1      4           0.00000000      0.00000000      0.00000000
BE2         2      4           0.00000000      0.00000000      4.53534270
[Charge] (Mulliken)
 -4.110577656035730E-009
  4.110574991500471E-009
[GTO] (AU)
   1
   s  14
  2.262859900E+04  8.443999941E-05
  3.372318100E+03  4.601499968E-04
  7.603504000E+02  2.285389984E-03
  2.117404800E+02  9.648129932E-03
  6.722346800E+01  3.494469975E-02
  2.337217700E+01  1.061099893E-01
  8.721373000E+00  2.458240383E-01
  3.468091000E+00  3.862428773E-01
  1.452144000E+00  3.105526078E-01
  6.086150000E-01  6.415933955E-02
  2.576860000E-01 -2.265049984E-03
  1.041760000E-01 -5.217499963E-04
  4.242700000E-02 -8.757499938E-04
  1.484900000E-02  1.242199991E-04
   s  14
  2.262859900E+04 -1.586999994E-05
  3.372318100E+03 -8.656999968E-05
  7.603504000E+02 -4.302199984E-04
  2.117404800E+02 -1.825079993E-03
  6.722346800E+01 -6.682749976E-03
  2.337217700E+01 -2.095119992E-02
  8.721373000E+00 -5.200308981E-02
  3.468091000E+00 -9.849176964E-02
  1.452144000E+00 -1.355800695E-01
  6.086150000E-01 -6.429875976E-02
  2.576860000E-01  3.125414989E-01
  1.041760000E-01  6.270468577E-01
  4.242700000E-02  2.110231492E-01
  1.484900000E-02 -4.104669985E-03
   p   9
  3.371018400E+01  1.069960000E-03
  8.057649500E+00  6.828550001E-03
  2.836471400E+00  2.119065000E-02
  1.099965700E+00  5.843696001E-02
  4.433964000E-01  2.020920800E-01
  1.822264000E-01  4.582953101E-01
  7.572410000E-02  3.691239601E-01
  3.168540000E-02  6.611471001E-02
  1.108990000E-02  1.405160000E-03
 
   2
   s  14
  2.262859900E+04  8.443999941E-05
  3.372318100E+03  4.601499968E-04
  7.603504000E+02  2.285389984E-03
  2.117404800E+02  9.648129932E-03
  6.722346800E+01  3.494469975E-02
  2.337217700E+01  1.061099893E-01
  8.721373000E+00  2.458240383E-01
  3.468091000E+00  3.862428773E-01
  1.452144000E+00  3.105526078E-01
  6.086150000E-01  6.415933955E-02
  2.576860000E-01 -2.265049984E-03
  1.041760000E-01 -5.217499963E-04
  4.242700000E-02 -8.757499938E-04
  1.484900000E-02  1.242199991E-04
   s  14
  2.262859900E+04 -1.586999994E-05
  3.372318100E+03 -8.656999968E-05
  7.603504000E+02 -4.302199984E-04
  2.117404800E+02 -1.825079993E-03
  6.722346800E+01 -6.682749976E-03
  2.337217700E+01 -2.095119992E-02
  8.721373000E+00 -5.200308981E-02
  3.468091000E+00 -9.849176964E-02
  1.452144000E+00 -1.355800695E-01
  6.086150000E-01 -6.429875976E-02
  2.576860000E-01  3.125414989E-01
  1.041760000E-01  6.270468577E-01
  4.242700000E-02  2.110231492E-01
  1.484900000E-02 -4.104669985E-03
   p   9
  3.371018400E+01  1.069960000E-03
  8.057649500E+00  6.828550001E-03
  2.836471400E+00  2.119065000E-02
  1.099965700E+00  5.843696001E-02
  4.433964000E-01  2.020920800E-01
  1.822264000E-01  4.582953101E-01
  7.572410000E-02  3.691239601E-01
  3.168540000E-02  6.611471001E-02
  1.108990000E-02  1.405160000E-03
 
[MO]
Sym=     1a  
Ene=    -4.7132
Spin= Alpha
Occup=    2.00000
   1         0.70706273
   2         0.00173128
   3        -0.00000000
   4         0.00000000
   5         0.00036610
   6         0.70707091
   7         0.00173125
   8         0.00000000
   9        -0.00000000
  10        -0.00036611
Sym=     2a  
Ene=    -4.7131
Spin= Alpha
Occup=    2.00000
   1        -0.70706561
   2         0.00224928
   3         0.00000000
   4        -0.00000000
   5        -0.00124788
   6         0.70705743
   7        -0.00224930
   8         0.00000000
   9        -0.00000000
  10        -0.00124787
Sym=     3a  
Ene=    -0.3891
Spin= Alpha
Occup=    2.00000
   1        -0.02877346
   2         0.56131915
   3        -0.00000000
   4        -0.00000000
   5         0.11318015
   6        -0.02877345
   7         0.56131946
   8         0.00000000
   9         0.00000000
  10        -0.11318009
Sym=     4a  
Ene=    -0.2280
Spin= Alpha
Occup=    1.94380
   1        -0.01876535
   2        -0.77768181
   3        -0.00000000
   4         0.00000000
   5         0.15470720
   6         0.01876536
   7         0.77768158
   8        -0.00000000
   9         0.00000000
  10         0.15470724
Sym=     5a  
Ene=     0.0000
Spin= Alpha
Occup=    0.05620
   1         0.00000000
   2         0.00000000
   3         0.60474803
   4         0.17646827
   5        -0.00000000
   6         0.00000000
   7        -0.00000000
   8         0.60474773
   9         0.17646818
  10        -0.00000000
Sym=     6a  
Ene=     0.0491
Spin= Alpha
Occup=    0.00000
   1         0.03212394
   2         0.30078121
   3         0.00000000
   4         0.00000000
   5        -0.64043216
   6         0.03212394
   7         0.30078121
   8        -0.00000000
   9         0.00000000
  10         0.64043216
Sym=     7a  
Ene=     0.0546
Spin= Alpha
Occup=    0.00000
   1        -0.00000000
   2         0.00000000
   3        -0.17646822
   4         0.60474788
   5        -0.00000000
   6         0.00000000
   7        -0.00000000
   8        -0.17646823
   9         0.60474789
  10        -0.00000000
Sym=     8a  
Ene=     0.1619
Spin= Alpha
Occup=    0.00000
   1         0.00000000
   2        -0.00000000
   3        -0.78902544
   4        -0.23024127
   5        -0.00000000
   6         0.00000000
   7        -0.00000000
   8         0.78902567
   9         0.23024134
  10        -0.00000000
Sym=     9a  
Ene=     0.1631
Spin= Alpha
Occup=    0.00000
   1         0.00000000
   2        -0.00000000
   3         0.23024130
   4        -0.78902556
   5        -0.00000000
   6         0.00000000
   7        -0.00000000
   8        -0.23024130
   9         0.78902555
  10         0.00000000
Sym=    10a  
Ene=     0.3432
Spin= Alpha
Occup=    0.00000
   1        -0.10190463
   2        -0.86020589
   3        -0.00000000
   4         0.00000000
   5        -1.10572342
   6         0.10190463
   7         0.86020589
   8        -0.00000000
   9        -0.00000000
  10        -1.10572342
