[Molden Format]
[N_Atoms]
                     2
[Atoms] (AU)
BE1         1      4           0.00000000      0.00000000      0.00000000
BE2         2      4           0.00000000      0.00000000      4.53534270
[Charge] (Mulliken)
 -6.945555242054979E-013
  6.843414723789465E-013
[GTO] (AU)
   1
   s  14
  2.262859900E+04  8.443999941E-05
  3.372318100E+03  4.601499968E-04
  7.603504000E+02  2.285389984E-03
  2.117404800E+02  9.648129932E-03
  6.722346800E+01  3.494469975E-02
  2.337217700E+01  1.061099893E-01
  8.721373000E+00  2.458240383E-01
  3.468091000E+00  3.862428773E-01
  1.452144000E+00  3.105526078E-01
  6.086150000E-01  6.415933955E-02
  2.576860000E-01 -2.265049984E-03
  1.041760000E-01 -5.217499963E-04
  4.242700000E-02 -8.757499938E-04
  1.484900000E-02  1.242199991E-04
   s  14
  2.262859900E+04 -1.586999994E-05
  3.372318100E+03 -8.656999968E-05
  7.603504000E+02 -4.302199984E-04
  2.117404800E+02 -1.825079993E-03
  6.722346800E+01 -6.682749976E-03
  2.337217700E+01 -2.095119992E-02
  8.721373000E+00 -5.200308981E-02
  3.468091000E+00 -9.849176964E-02
  1.452144000E+00 -1.355800695E-01
  6.086150000E-01 -6.429875976E-02
  2.576860000E-01  3.125414989E-01
  1.041760000E-01  6.270468577E-01
  4.242700000E-02  2.110231492E-01
  1.484900000E-02 -4.104669985E-03
   p   9
  3.371018400E+01  1.069960000E-03
  8.057649500E+00  6.828550001E-03
  2.836471400E+00  2.119065000E-02
  1.099965700E+00  5.843696001E-02
  4.433964000E-01  2.020920800E-01
  1.822264000E-01  4.582953101E-01
  7.572410000E-02  3.691239601E-01
  3.168540000E-02  6.611471001E-02
  1.108990000E-02  1.405160000E-03
 
   2
   s  14
  2.262859900E+04  8.443999941E-05
  3.372318100E+03  4.601499968E-04
  7.603504000E+02  2.285389984E-03
  2.117404800E+02  9.648129932E-03
  6.722346800E+01  3.494469975E-02
  2.337217700E+01  1.061099893E-01
  8.721373000E+00  2.458240383E-01
  3.468091000E+00  3.862428773E-01
  1.452144000E+00  3.105526078E-01
  6.086150000E-01  6.415933955E-02
  2.576860000E-01 -2.265049984E-03
  1.041760000E-01 -5.217499963E-04
  4.242700000E-02 -8.757499938E-04
  1.484900000E-02  1.242199991E-04
   s  14
  2.262859900E+04 -1.586999994E-05
  3.372318100E+03 -8.656999968E-05
  7.603504000E+02 -4.302199984E-04
  2.117404800E+02 -1.825079993E-03
  6.722346800E+01 -6.682749976E-03
  2.337217700E+01 -2.095119992E-02
  8.721373000E+00 -5.200308981E-02
  3.468091000E+00 -9.849176964E-02
  1.452144000E+00 -1.355800695E-01
  6.086150000E-01 -6.429875976E-02
  2.576860000E-01  3.125414989E-01
  1.041760000E-01  6.270468577E-01
  4.242700000E-02  2.110231492E-01
  1.484900000E-02 -4.104669985E-03
   p   9
  3.371018400E+01  1.069960000E-03
  8.057649500E+00  6.828550001E-03
  2.836471400E+00  2.119065000E-02
  1.099965700E+00  5.843696001E-02
  4.433964000E-01  2.020920800E-01
  1.822264000E-01  4.582953101E-01
  7.572410000E-02  3.691239601E-01
  3.168540000E-02  6.611471001E-02
  1.108990000E-02  1.405160000E-03
 
[MO]
Sym=     1a  
Ene=    -4.7133
Spin= Alpha
Occup=    1.00000
   1         0.70706473
   2         0.00170828
   3         0.00000000
   4         0.00000000
   5         0.00040895
   6         0.70706482
   7         0.00170828
   8         0.00000000
   9        -0.00000000
  10        -0.00040895
Sym=     1a  
Ene=    -4.7133
Spin= Beta
Occup=    1.00000
   1         0.70706473
   2         0.00170828
   3         0.00000000
   4         0.00000000
   5         0.00040895
   6         0.70706482
   7         0.00170828
   8         0.00000000
   9        -0.00000000
  10        -0.00040895
Sym=     2a  
Ene=    -4.7133
Spin= Alpha
Occup=    1.00000
   1        -0.70715481
   2        -0.00174813
   3         0.00000000
   4         0.00000000
   5        -0.00054451
   6         0.70715472
   7         0.00174813
   8         0.00000000
   9        -0.00000000
  10        -0.00054451
Sym=     2a  
Ene=    -4.7133
Spin= Beta
Occup=    1.00000
   1        -0.70715481
   2        -0.00174813
   3         0.00000000
   4         0.00000000
   5        -0.00054451
   6         0.70715472
   7         0.00174813
   8         0.00000000
   9        -0.00000000
  10        -0.00054451
Sym=     3a  
Ene=    -0.3910
Spin= Alpha
Occup=    1.00000
   1        -0.02879942
   2         0.56104545
   3        -0.00000000
   4         0.00000000
   5         0.11376270
   6        -0.02879942
   7         0.56104545
   8         0.00000000
   9        -0.00000000
  10        -0.11376270
Sym=     3a  
Ene=    -0.3910
Spin= Beta
Occup=    1.00000
   1        -0.02879942
   2         0.56104545
   3        -0.00000000
   4         0.00000000
   5         0.11376270
   6        -0.02879942
   7         0.56104545
   8         0.00000000
   9        -0.00000000
  10        -0.11376270
Sym=     4a  
Ene=    -0.2336
Spin= Alpha
Occup=    1.00000
   1        -0.01471202
   2        -0.77366471
   3         0.00000000
   4         0.00000000
   5         0.15986434
   6         0.01471202
   7         0.77366471
   8         0.00000000
   9        -0.00000000
  10         0.15986434
Sym=     4a  
Ene=    -0.2336
Spin= Beta
Occup=    1.00000
   1        -0.01471202
   2        -0.77366471
   3         0.00000000
   4         0.00000000
   5         0.15986434
   6         0.01471202
   7         0.77366471
   8         0.00000000
   9        -0.00000000
  10         0.15986434
Sym=     5a  
Ene=     0.0477
Spin= Alpha
Occup=    0.00000
   1         0.03214564
   2         0.30129186
   3         0.00000000
   4         0.00000000
   5        -0.64032890
   6         0.03214564
   7         0.30129186
   8         0.00000000
   9         0.00000000
  10         0.64032890
Sym=     5a  
Ene=     0.0477
Spin= Beta
Occup=    0.00000
   1         0.03214564
   2         0.30129186
   3         0.00000000
   4         0.00000000
   5        -0.64032890
   6         0.03214564
   7         0.30129186
   8         0.00000000
   9         0.00000000
  10         0.64032890
Sym=     6a  
Ene=     0.0538
Spin= Alpha
Occup=    0.00000
   1         0.00000000
   2         0.00000000
   3        -0.40828238
   4        -0.47975674
   5        -0.00000000
   6         0.00000000
   7         0.00000000
   8        -0.40828238
   9        -0.47975674
  10         0.00000000
Sym=     6a  
Ene=     0.0538
Spin= Beta
Occup=    0.00000
   1         0.00000000
   2         0.00000000
   3        -0.40828238
   4        -0.47975674
   5        -0.00000000
   6         0.00000000
   7         0.00000000
   8        -0.40828238
   9        -0.47975674
  10         0.00000000
Sym=     7a  
Ene=     0.0538
Spin= Alpha
Occup=    0.00000
   1         0.00000000
   2         0.00000000
   3         0.47975674
   4        -0.40828238
   5        -0.00000000
   6         0.00000000
   7         0.00000000
   8         0.47975674
   9        -0.40828238
  10         0.00000000
Sym=     7a  
Ene=     0.0538
Spin= Beta
Occup=    0.00000
   1         0.00000000
   2         0.00000000
   3         0.47975674
   4        -0.40828238
   5        -0.00000000
   6         0.00000000
   7         0.00000000
   8         0.47975674
   9        -0.40828238
  10         0.00000000
Sym=     8a  
Ene=     0.1624
Spin= Alpha
Occup=    0.00000
   1        -0.00000000
   2        -0.00000000
   3        -0.57613108
   4        -0.58621272
   5        -0.00000000
   6         0.00000000
   7         0.00000000
   8         0.57613108
   9         0.58621272
  10        -0.00000000
Sym=     8a  
Ene=     0.1624
Spin= Beta
Occup=    0.00000
   1        -0.00000000
   2        -0.00000000
   3        -0.57613108
   4        -0.58621272
   5        -0.00000000
   6         0.00000000
   7         0.00000000
   8         0.57613108
   9         0.58621272
  10        -0.00000000
Sym=     9a  
Ene=     0.1624
Spin= Alpha
Occup=    0.00000
   1         0.00000000
   2        -0.00000000
   3        -0.58621272
   4         0.57613108
   5         0.00000000
   6        -0.00000000
   7        -0.00000000
   8         0.58621272
   9        -0.57613108
  10         0.00000000
Sym=     9a  
Ene=     0.1624
Spin= Beta
Occup=    0.00000
   1         0.00000000
   2        -0.00000000
   3        -0.58621272
   4         0.57613108
   5         0.00000000
   6        -0.00000000
   7        -0.00000000
   8         0.58621272
   9        -0.57613108
  10         0.00000000
Sym=    10a  
Ene=     0.3421
Spin= Alpha
Occup=    0.00000
   1         0.10192344
   2         0.86382169
   3        -0.00000000
   4        -0.00000000
   5         1.10499016
   6        -0.10192344
   7        -0.86382169
   8         0.00000000
   9         0.00000000
  10         1.10499016
Sym=    10a  
Ene=     0.3421
Spin= Beta
Occup=    0.00000
   1         0.10192344
   2         0.86382169
   3        -0.00000000
   4        -0.00000000
   5         1.10499016
   6        -0.10192344
   7        -0.86382169
   8         0.00000000
   9         0.00000000
  10         1.10499016
