[Molden Format]
[N_Atoms]
                     2
[Atoms] (AU)
C1          1      6           0.00000000      0.00000000      0.00000000
C2          2      6           0.00000000      0.00000000      3.40150702
[Charge] (Mulliken)
 -1.323385845353187E-013
  1.243449787580175E-013
[GTO] (AU)
   1
   s  14
  5.055750100E+04  1.128874000E-04
  7.524785600E+03  5.295373000E-04
  1.694327600E+03  2.450038300E-03
  4.728227900E+02  1.005398470E-02
  1.517107500E+02  3.545398060E-02
  5.391874600E+01  1.044071086E-01
  2.065931100E+01  2.412894918E-01
  8.383976000E+00  3.834225483E-01
  3.577015000E+00  3.078514393E-01
  1.547118000E+00  6.872442990E-02
  6.130130000E-01  2.224445000E-04
  2.460680000E-01  1.976748900E-03
  9.908700000E-02  2.057859400E-03
  3.468000000E-02  4.182020000E-04
   s  14
  5.055750100E+04 -2.507420000E-05
  7.524785600E+03 -1.175945000E-04
  1.694327600E+03 -5.456275000E-04
  4.728227900E+02 -2.245077100E-03
  1.517107500E+02 -8.043471800E-03
  5.391874600E+01 -2.442588710E-02
  2.065931100E+01 -6.136791180E-02
  8.383976000E+00 -1.177767835E-01
  3.577015000E+00 -1.550487783E-01
  1.547118000E+00 -1.933316860E-02
  6.130130000E-01  3.996930678E-01
  2.460680000E-01  5.589420949E-01
  9.908700000E-02  1.711195023E-01
  3.468000000E-02  7.456244600E-03
   p   9
  8.333315500E+01  1.344656000E-03
  1.955761100E+01  1.023555500E-02
  6.080365000E+00  4.520067100E-02
  2.179317000E+00  1.410756198E-01
  8.651500000E-01  3.047388085E-01
  3.619440000E-01  3.995281011E-01
  1.547400000E-01  2.719163432E-01
  6.542900000E-02  5.857669330E-02
  2.290000000E-02 -1.263813000E-04
 
   2
   s  14
  5.055750100E+04  1.128874000E-04
  7.524785600E+03  5.295373000E-04
  1.694327600E+03  2.450038300E-03
  4.728227900E+02  1.005398470E-02
  1.517107500E+02  3.545398060E-02
  5.391874600E+01  1.044071086E-01
  2.065931100E+01  2.412894918E-01
  8.383976000E+00  3.834225483E-01
  3.577015000E+00  3.078514393E-01
  1.547118000E+00  6.872442990E-02
  6.130130000E-01  2.224445000E-04
  2.460680000E-01  1.976748900E-03
  9.908700000E-02  2.057859400E-03
  3.468000000E-02  4.182020000E-04
   s  14
  5.055750100E+04 -2.507420000E-05
  7.524785600E+03 -1.175945000E-04
  1.694327600E+03 -5.456275000E-04
  4.728227900E+02 -2.245077100E-03
  1.517107500E+02 -8.043471800E-03
  5.391874600E+01 -2.442588710E-02
  2.065931100E+01 -6.136791180E-02
  8.383976000E+00 -1.177767835E-01
  3.577015000E+00 -1.550487783E-01
  1.547118000E+00 -1.933316860E-02
  6.130130000E-01  3.996930678E-01
  2.460680000E-01  5.589420949E-01
  9.908700000E-02  1.711195023E-01
  3.468000000E-02  7.456244600E-03
   p   9
  8.333315500E+01  1.344656000E-03
  1.955761100E+01  1.023555500E-02
  6.080365000E+00  4.520067100E-02
  2.179317000E+00  1.410756198E-01
  8.651500000E-01  3.047388085E-01
  3.619440000E-01  3.995281011E-01
  1.547400000E-01  2.719163432E-01
  6.542900000E-02  5.857669330E-02
  2.290000000E-02 -1.263813000E-04
 
[MO]
Sym=     1a  
Ene=   -11.3430
Spin= Alpha
Occup=    2.00000
   1         0.70703389
   2        -0.00210666
   3         0.00000000
   4         0.00000000
   5         0.00016541
   6         0.70703389
   7        -0.00210666
   8        -0.00000000
   9        -0.00000000
  10        -0.00016541
Sym=     2a  
Ene=   -11.3430
Spin= Alpha
Occup=    2.00000
   1        -0.70716192
   2         0.00428820
   3         0.00000000
   4         0.00000000
   5        -0.00119743
   6         0.70716192
   7        -0.00428820
   8        -0.00000000
   9        -0.00000000
  10        -0.00119743
Sym=     3a  
Ene=    -0.8547
Spin= Alpha
Occup=    2.00000
   1        -0.01360937
   2         0.59805145
   3         0.00000000
   4        -0.00000000
   5         0.11020309
   6        -0.01360937
   7         0.59805145
   8         0.00000000
   9        -0.00000000
  10        -0.11020309
Sym=     4a  
Ene=    -0.3254
Spin= Alpha
Occup=    2.00000
   1         0.00000000
   2        -0.00000000
   3         0.01676545
   4         0.65564709
   5         0.00000000
   6         0.00000000
   7         0.00000000
   8         0.01676545
   9         0.65564709
  10         0.00000000
Sym=     5a  
Ene=    -0.3254
Spin= Alpha
Occup=    2.00000
   1        -0.00000000
   2        -0.00000000
   3         0.65564709
   4        -0.01676545
   5        -0.00000000
   6         0.00000000
   7        -0.00000000
   8         0.65564709
   9        -0.01676545
  10        -0.00000000
Sym=     6a  
Ene=    -0.5828
Spin= Alpha
Occup=    1.91603
   1        -0.01294010
   2        -0.74378307
   3        -0.00000000
   4        -0.00000000
   5         0.14213425
   6         0.01294010
   7         0.74378307
   8         0.00000000
   9        -0.00000000
  10         0.14213425
Sym=     7a  
Ene=    -0.0000
Spin= Alpha
Occup=    0.08397
   1         0.02065334
   2         0.26710890
   3        -0.00000000
   4        -0.00000000
   5        -0.63841169
   6         0.02065334
   7         0.26710890
   8         0.00000000
   9        -0.00000000
  10         0.63841169
Sym=     8a  
Ene=     0.0765
Spin= Alpha
Occup=    0.00000
   1        -0.00000000
   2        -0.00000000
   3         0.75388125
   4         0.16908020
   5        -0.00000000
   6         0.00000000
   7         0.00000000
   8        -0.75388125
   9        -0.16908020
  10        -0.00000000
Sym=     9a  
Ene=     0.0765
Spin= Alpha
Occup=    0.00000
   1         0.00000000
   2         0.00000000
   3         0.16908020
   4        -0.75388125
   5         0.00000000
   6        -0.00000000
   7        -0.00000000
   8        -0.16908020
   9         0.75388125
  10         0.00000000
Sym=    10a  
Ene=     0.3966
Spin= Alpha
Occup=    0.00000
   1        -0.04486991
   2        -0.49577482
   3        -0.00000000
   4        -0.00000000
   5        -0.90088932
   6         0.04486991
   7         0.49577482
   8         0.00000000
   9         0.00000000
  10        -0.90088932
