[Molden Format]
[N_Atoms]
                     2
[Atoms] (AU)
C1          1      6           0.00000000      0.00000000      0.00000000
C2          2      6           0.00000000      0.00000000      3.40150702
[Charge] (Mulliken)
 -2.687299271997290E-010
  2.687290390213093E-010
[GTO] (AU)
   1
   s  14
  5.055750100E+04  1.128874000E-04
  7.524785600E+03  5.295373000E-04
  1.694327600E+03  2.450038300E-03
  4.728227900E+02  1.005398470E-02
  1.517107500E+02  3.545398060E-02
  5.391874600E+01  1.044071086E-01
  2.065931100E+01  2.412894918E-01
  8.383976000E+00  3.834225483E-01
  3.577015000E+00  3.078514393E-01
  1.547118000E+00  6.872442990E-02
  6.130130000E-01  2.224445000E-04
  2.460680000E-01  1.976748900E-03
  9.908700000E-02  2.057859400E-03
  3.468000000E-02  4.182020000E-04
   s  14
  5.055750100E+04 -2.507420000E-05
  7.524785600E+03 -1.175945000E-04
  1.694327600E+03 -5.456275000E-04
  4.728227900E+02 -2.245077100E-03
  1.517107500E+02 -8.043471800E-03
  5.391874600E+01 -2.442588710E-02
  2.065931100E+01 -6.136791180E-02
  8.383976000E+00 -1.177767835E-01
  3.577015000E+00 -1.550487783E-01
  1.547118000E+00 -1.933316860E-02
  6.130130000E-01  3.996930678E-01
  2.460680000E-01  5.589420949E-01
  9.908700000E-02  1.711195023E-01
  3.468000000E-02  7.456244600E-03
   p   9
  8.333315500E+01  1.344656000E-03
  1.955761100E+01  1.023555500E-02
  6.080365000E+00  4.520067100E-02
  2.179317000E+00  1.410756198E-01
  8.651500000E-01  3.047388085E-01
  3.619440000E-01  3.995281011E-01
  1.547400000E-01  2.719163432E-01
  6.542900000E-02  5.857669330E-02
  2.290000000E-02 -1.263813000E-04
 
   2
   s  14
  5.055750100E+04  1.128874000E-04
  7.524785600E+03  5.295373000E-04
  1.694327600E+03  2.450038300E-03
  4.728227900E+02  1.005398470E-02
  1.517107500E+02  3.545398060E-02
  5.391874600E+01  1.044071086E-01
  2.065931100E+01  2.412894918E-01
  8.383976000E+00  3.834225483E-01
  3.577015000E+00  3.078514393E-01
  1.547118000E+00  6.872442990E-02
  6.130130000E-01  2.224445000E-04
  2.460680000E-01  1.976748900E-03
  9.908700000E-02  2.057859400E-03
  3.468000000E-02  4.182020000E-04
   s  14
  5.055750100E+04 -2.507420000E-05
  7.524785600E+03 -1.175945000E-04
  1.694327600E+03 -5.456275000E-04
  4.728227900E+02 -2.245077100E-03
  1.517107500E+02 -8.043471800E-03
  5.391874600E+01 -2.442588710E-02
  2.065931100E+01 -6.136791180E-02
  8.383976000E+00 -1.177767835E-01
  3.577015000E+00 -1.550487783E-01
  1.547118000E+00 -1.933316860E-02
  6.130130000E-01  3.996930678E-01
  2.460680000E-01  5.589420949E-01
  9.908700000E-02  1.711195023E-01
  3.468000000E-02  7.456244600E-03
   p   9
  8.333315500E+01  1.344656000E-03
  1.955761100E+01  1.023555500E-02
  6.080365000E+00  4.520067100E-02
  2.179317000E+00  1.410756198E-01
  8.651500000E-01  3.047388085E-01
  3.619440000E-01  3.995281011E-01
  1.547400000E-01  2.719163432E-01
  6.542900000E-02  5.857669330E-02
  2.290000000E-02 -1.263813000E-04
 
[MO]
Sym=     1a  
Ene=   -11.3400
Spin= Alpha
Occup=    1.00000
   1         0.70703502
   2        -0.00216455
   3         0.00000000
   4        -0.00000000
   5         0.00016346
   6         0.70703471
   7        -0.00216455
   8         0.00000000
   9        -0.00000000
  10        -0.00016346
Sym=     1a  
Ene=   -11.3400
Spin= Beta
Occup=    1.00000
   1         0.70703502
   2        -0.00216455
   3         0.00000000
   4        -0.00000000
   5         0.00016346
   6         0.70703471
   7        -0.00216455
   8         0.00000000
   9        -0.00000000
  10        -0.00016346
Sym=     2a  
Ene=   -11.3400
Spin= Alpha
Occup=    1.00000
   1        -0.70720922
   2         0.00133317
   3        -0.00000000
   4        -0.00000000
   5        -0.00067514
   6         0.70720952
   7        -0.00133317
   8         0.00000000
   9         0.00000000
  10        -0.00067514
Sym=     2a  
Ene=   -11.3400
Spin= Beta
Occup=    1.00000
   1        -0.70720922
   2         0.00133317
   3        -0.00000000
   4        -0.00000000
   5        -0.00067514
   6         0.70720952
   7        -0.00133317
   8         0.00000000
   9         0.00000000
  10        -0.00067514
Sym=     3a  
Ene=    -0.8586
Spin= Alpha
Occup=    1.00000
   1        -0.01277707
   2         0.60745631
   3         0.00000000
   4        -0.00000000
   5         0.08668593
   6        -0.01277707
   7         0.60745631
   8         0.00000000
   9        -0.00000000
  10        -0.08668593
Sym=     3a  
Ene=    -0.8586
Spin= Beta
Occup=    1.00000
   1        -0.01277707
   2         0.60745631
   3         0.00000000
   4        -0.00000000
   5         0.08668593
   6        -0.01277707
   7         0.60745631
   8         0.00000000
   9        -0.00000000
  10        -0.08668593
Sym=     4a  
Ene=    -0.6019
Spin= Alpha
Occup=    1.00000
   1        -0.01158863
   2        -0.75936696
   3         0.00000000
   4        -0.00000000
   5         0.11306608
   6         0.01158863
   7         0.75936696
   8        -0.00000000
   9         0.00000000
  10         0.11306608
Sym=     4a  
Ene=    -0.6019
Spin= Beta
Occup=    1.00000
   1        -0.01158863
   2        -0.75936696
   3         0.00000000
   4        -0.00000000
   5         0.11306608
   6         0.01158863
   7         0.75936696
   8        -0.00000000
   9         0.00000000
  10         0.11306608
Sym=     5a  
Ene=    -0.3266
Spin= Alpha
Occup=    1.00000
   1         0.00000000
   2         0.00000000
   3         0.00813369
   4         0.65581097
   5        -0.00000000
   6         0.00000000
   7         0.00000000
   8         0.00813369
   9         0.65581097
  10         0.00000000
Sym=     5a  
Ene=    -0.3266
Spin= Beta
Occup=    1.00000
   1         0.00000000
   2         0.00000000
   3         0.00813369
   4         0.65581097
   5        -0.00000000
   6         0.00000000
   7         0.00000000
   8         0.00813369
   9         0.65581097
  10         0.00000000
Sym=     6a  
Ene=    -0.3266
Spin= Alpha
Occup=    1.00000
   1        -0.00000000
   2        -0.00000000
   3         0.65581097
   4        -0.00813369
   5         0.00000000
   6        -0.00000000
   7        -0.00000000
   8         0.65581097
   9        -0.00813369
  10        -0.00000000
Sym=     6a  
Ene=    -0.3266
Spin= Beta
Occup=    1.00000
   1        -0.00000000
   2        -0.00000000
   3         0.65581097
   4        -0.00813369
   5         0.00000000
   6        -0.00000000
   7        -0.00000000
   8         0.65581097
   9        -0.00813369
  10        -0.00000000
Sym=     7a  
Ene=    -0.0245
Spin= Alpha
Occup=    0.00000
   1         0.02114574
   2         0.24496793
   3         0.00000000
   4        -0.00000000
   5        -0.64202785
   6         0.02114574
   7         0.24496793
   8         0.00000000
   9        -0.00000000
  10         0.64202785
Sym=     7a  
Ene=    -0.0245
Spin= Beta
Occup=    0.00000
   1         0.02114574
   2         0.24496793
   3         0.00000000
   4        -0.00000000
   5        -0.64202785
   6         0.02114574
   7         0.24496793
   8         0.00000000
   9        -0.00000000
  10         0.64202785
Sym=     8a  
Ene=     0.0747
Spin= Alpha
Occup=    0.00000
   1        -0.00000000
   2        -0.00000000
   3        -0.75485935
   4        -0.16465847
   5        -0.00000000
   6         0.00000000
   7         0.00000000
   8         0.75485935
   9         0.16465847
  10         0.00000000
Sym=     8a  
Ene=     0.0747
Spin= Beta
Occup=    0.00000
   1        -0.00000000
   2        -0.00000000
   3        -0.75485935
   4        -0.16465847
   5        -0.00000000
   6         0.00000000
   7         0.00000000
   8         0.75485935
   9         0.16465847
  10         0.00000000
Sym=     9a  
Ene=     0.0747
Spin= Alpha
Occup=    0.00000
   1         0.00000000
   2         0.00000000
   3         0.16465847
   4        -0.75485935
   5         0.00000000
   6        -0.00000000
   7        -0.00000000
   8        -0.16465847
   9         0.75485935
  10         0.00000000
Sym=     9a  
Ene=     0.0747
Spin= Beta
Occup=    0.00000
   1         0.00000000
   2         0.00000000
   3         0.16465847
   4        -0.75485935
   5         0.00000000
   6        -0.00000000
   7        -0.00000000
   8        -0.16465847
   9         0.75485935
  10         0.00000000
Sym=    10a  
Ene=     0.3966
Spin= Alpha
Occup=    0.00000
   1         0.04448983
   2         0.47157647
   3        -0.00000000
   4         0.00000000
   5         0.90499766
   6        -0.04448983
   7        -0.47157647
   8         0.00000000
   9        -0.00000000
  10         0.90499766
Sym=    10a  
Ene=     0.3966
Spin= Beta
Occup=    0.00000
   1         0.04448983
   2         0.47157647
   3        -0.00000000
   4         0.00000000
   5         0.90499766
   6        -0.04448983
   7        -0.47157647
   8         0.00000000
   9        -0.00000000
  10         0.90499766
