[Molden Format]
[N_Atoms]
                     2
[Atoms] (AU)
C1          1      6           0.00000000      0.00000000      0.00000000
C2          2      6           0.00000000      0.00000000      3.40150702
[Charge] (Mulliken)
  0.999999969281768     
   1.00000003071823     
[GTO] (AU)
   1
   s  14
  5.055750100E+04  1.128874000E-04
  7.524785600E+03  5.295373000E-04
  1.694327600E+03  2.450038300E-03
  4.728227900E+02  1.005398470E-02
  1.517107500E+02  3.545398060E-02
  5.391874600E+01  1.044071086E-01
  2.065931100E+01  2.412894918E-01
  8.383976000E+00  3.834225483E-01
  3.577015000E+00  3.078514393E-01
  1.547118000E+00  6.872442990E-02
  6.130130000E-01  2.224445000E-04
  2.460680000E-01  1.976748900E-03
  9.908700000E-02  2.057859400E-03
  3.468000000E-02  4.182020000E-04
   s  14
  5.055750100E+04 -2.507420000E-05
  7.524785600E+03 -1.175945000E-04
  1.694327600E+03 -5.456275000E-04
  4.728227900E+02 -2.245077100E-03
  1.517107500E+02 -8.043471800E-03
  5.391874600E+01 -2.442588710E-02
  2.065931100E+01 -6.136791180E-02
  8.383976000E+00 -1.177767835E-01
  3.577015000E+00 -1.550487783E-01
  1.547118000E+00 -1.933316860E-02
  6.130130000E-01  3.996930678E-01
  2.460680000E-01  5.589420949E-01
  9.908700000E-02  1.711195023E-01
  3.468000000E-02  7.456244600E-03
   p   9
  8.333315500E+01  1.344656000E-03
  1.955761100E+01  1.023555500E-02
  6.080365000E+00  4.520067100E-02
  2.179317000E+00  1.410756198E-01
  8.651500000E-01  3.047388085E-01
  3.619440000E-01  3.995281011E-01
  1.547400000E-01  2.719163432E-01
  6.542900000E-02  5.857669330E-02
  2.290000000E-02 -1.263813000E-04
 
   2
   s  14
  5.055750100E+04  1.128874000E-04
  7.524785600E+03  5.295373000E-04
  1.694327600E+03  2.450038300E-03
  4.728227900E+02  1.005398470E-02
  1.517107500E+02  3.545398060E-02
  5.391874600E+01  1.044071086E-01
  2.065931100E+01  2.412894918E-01
  8.383976000E+00  3.834225483E-01
  3.577015000E+00  3.078514393E-01
  1.547118000E+00  6.872442990E-02
  6.130130000E-01  2.224445000E-04
  2.460680000E-01  1.976748900E-03
  9.908700000E-02  2.057859400E-03
  3.468000000E-02  4.182020000E-04
   s  14
  5.055750100E+04 -2.507420000E-05
  7.524785600E+03 -1.175945000E-04
  1.694327600E+03 -5.456275000E-04
  4.728227900E+02 -2.245077100E-03
  1.517107500E+02 -8.043471800E-03
  5.391874600E+01 -2.442588710E-02
  2.065931100E+01 -6.136791180E-02
  8.383976000E+00 -1.177767835E-01
  3.577015000E+00 -1.550487783E-01
  1.547118000E+00 -1.933316860E-02
  6.130130000E-01  3.996930678E-01
  2.460680000E-01  5.589420949E-01
  9.908700000E-02  1.711195023E-01
  3.468000000E-02  7.456244600E-03
   p   9
  8.333315500E+01  1.344656000E-03
  1.955761100E+01  1.023555500E-02
  6.080365000E+00  4.520067100E-02
  2.179317000E+00  1.410756198E-01
  8.651500000E-01  3.047388085E-01
  3.619440000E-01  3.995281011E-01
  1.547400000E-01  2.719163432E-01
  6.542900000E-02  5.857669330E-02
  2.290000000E-02 -1.263813000E-04
 
[MO]
Sym=     1a  
Ene=   -12.3500
Spin= Alpha
Occup=    2.00000
   1         0.70702504
   2        -0.00337303
   3         0.00000000
   4         0.00000000
   5         0.00014291
   6         0.70708114
   7        -0.00337347
   8         0.00000000
   9        -0.00000000
  10        -0.00014292
Sym=     2a  
Ene=   -12.3480
Spin= Alpha
Occup=    2.00000
   1        -0.70697302
   2         0.01097415
   3         0.00000000
   4         0.00000000
   5        -0.00030885
   6         0.70691692
   7        -0.01097371
   8         0.00000000
   9         0.00000000
  10        -0.00030888
Sym=     3a  
Ene=    -1.6264
Spin= Alpha
Occup=    2.00000
   1        -0.01330130
   2         0.58298866
   3         0.00000000
   4        -0.00000000
   5         0.14398760
   6        -0.01330081
   7         0.58301157
   8        -0.00000000
   9        -0.00000000
  10        -0.14398688
Sym=     4a  
Ene=    -1.0764
Spin= Alpha
Occup=    2.00000
   1         0.00000000
   2         0.00000000
   3        -0.24931089
   4         0.60662857
   5         0.00000000
   6        -0.00000000
   7         0.00000000
   8        -0.24931091
   9         0.60662863
  10         0.00000000
Sym=     5a  
Ene=    -0.7315
Spin= Alpha
Occup=    0.01761
   1         0.00000000
   2         0.00000000
   3         0.60663947
   4         0.24931537
   5         0.00000000
   6        -0.00000000
   7        -0.00000000
   8         0.60661773
   9         0.24930644
  10         0.00000000
Sym=     6a  
Ene=    -0.1081
Spin= Alpha
Occup=    1.98239
   1        -0.02409861
   2        -0.80141918
   3        -0.00000000
   4        -0.00000000
   5         0.02484710
   6         0.02409861
   7         0.80140247
   8         0.00000000
   9        -0.00000000
  10         0.02485112
Sym=     7a  
Ene=    -0.7846
Spin= Alpha
Occup=    0.00000
   1         0.02019163
   2         0.29852403
   3         0.00000000
   4         0.00000000
   5        -0.63165009
   6         0.02019163
   7         0.29852412
   8        -0.00000000
   9        -0.00000000
  10         0.63165017
Sym=     8a  
Ene=    -0.7010
Spin= Alpha
Occup=    0.00000
   1         0.00000000
   2         0.00000000
   3         0.29368997
   4        -0.71461269
   5        -0.00000000
   6         0.00000000
   7         0.00000000
   8        -0.29368995
   9         0.71461264
  10         0.00000000
Sym=     9a  
Ene=    -0.6070
Spin= Alpha
Occup=    0.00000
   1         0.00000000
   2         0.00000000
   3        -0.71460344
   4        -0.29368617
   5         0.00000000
   6        -0.00000000
   7        -0.00000000
   8         0.71462189
   9         0.29369375
  10         0.00000000
Sym=    10a  
Ene=    -0.4375
Spin= Alpha
Occup=    0.00000
   1        -0.04366686
   2        -0.39578348
   3        -0.00000000
   4        -0.00000000
   5        -0.91169492
   6         0.04366686
   7         0.39578351
   8         0.00000000
   9         0.00000000
  10        -0.91169487
