[Molden Format]
[N_Atoms]
                     2
[Atoms] (AU)
C1          1      6           0.00000000      0.00000000      0.00000000
C2          2      6           0.00000000      0.00000000      3.40150702
[Charge] (Mulliken)
  0.000000000000000E+000
  0.000000000000000E+000
[GTO] (AU)
   1
   s  14
  5.055750100E+04  1.128874000E-04
  7.524785600E+03  5.295373000E-04
  1.694327600E+03  2.450038300E-03
  4.728227900E+02  1.005398470E-02
  1.517107500E+02  3.545398060E-02
  5.391874600E+01  1.044071086E-01
  2.065931100E+01  2.412894918E-01
  8.383976000E+00  3.834225483E-01
  3.577015000E+00  3.078514393E-01
  1.547118000E+00  6.872442990E-02
  6.130130000E-01  2.224445000E-04
  2.460680000E-01  1.976748900E-03
  9.908700000E-02  2.057859400E-03
  3.468000000E-02  4.182020000E-04
   s  14
  5.055750100E+04 -2.507420000E-05
  7.524785600E+03 -1.175945000E-04
  1.694327600E+03 -5.456275000E-04
  4.728227900E+02 -2.245077100E-03
  1.517107500E+02 -8.043471800E-03
  5.391874600E+01 -2.442588710E-02
  2.065931100E+01 -6.136791180E-02
  8.383976000E+00 -1.177767835E-01
  3.577015000E+00 -1.550487783E-01
  1.547118000E+00 -1.933316860E-02
  6.130130000E-01  3.996930678E-01
  2.460680000E-01  5.589420949E-01
  9.908700000E-02  1.711195023E-01
  3.468000000E-02  7.456244600E-03
   p   9
  8.333315500E+01  1.344656000E-03
  1.955761100E+01  1.023555500E-02
  6.080365000E+00  4.520067100E-02
  2.179317000E+00  1.410756198E-01
  8.651500000E-01  3.047388085E-01
  3.619440000E-01  3.995281011E-01
  1.547400000E-01  2.719163432E-01
  6.542900000E-02  5.857669330E-02
  2.290000000E-02 -1.263813000E-04
 
   2
   s  14
  5.055750100E+04  1.128874000E-04
  7.524785600E+03  5.295373000E-04
  1.694327600E+03  2.450038300E-03
  4.728227900E+02  1.005398470E-02
  1.517107500E+02  3.545398060E-02
  5.391874600E+01  1.044071086E-01
  2.065931100E+01  2.412894918E-01
  8.383976000E+00  3.834225483E-01
  3.577015000E+00  3.078514393E-01
  1.547118000E+00  6.872442990E-02
  6.130130000E-01  2.224445000E-04
  2.460680000E-01  1.976748900E-03
  9.908700000E-02  2.057859400E-03
  3.468000000E-02  4.182020000E-04
   s  14
  5.055750100E+04 -2.507420000E-05
  7.524785600E+03 -1.175945000E-04
  1.694327600E+03 -5.456275000E-04
  4.728227900E+02 -2.245077100E-03
  1.517107500E+02 -8.043471800E-03
  5.391874600E+01 -2.442588710E-02
  2.065931100E+01 -6.136791180E-02
  8.383976000E+00 -1.177767835E-01
  3.577015000E+00 -1.550487783E-01
  1.547118000E+00 -1.933316860E-02
  6.130130000E-01  3.996930678E-01
  2.460680000E-01  5.589420949E-01
  9.908700000E-02  1.711195023E-01
  3.468000000E-02  7.456244600E-03
   p   9
  8.333315500E+01  1.344656000E-03
  1.955761100E+01  1.023555500E-02
  6.080365000E+00  4.520067100E-02
  2.179317000E+00  1.410756198E-01
  8.651500000E-01  3.047388085E-01
  3.619440000E-01  3.995281011E-01
  1.547400000E-01  2.719163432E-01
  6.542900000E-02  5.857669330E-02
  2.290000000E-02 -1.263813000E-04
 
[MO]
Sym=     1a  
Ene=   -11.3320
Spin= Alpha
Occup=    2.00000
   1         0.70693819
   2         0.00094044
   3         0.00000000
   4         0.00000000
   5         0.00114005
   6         0.70693819
   7         0.00094044
   8        -0.00000000
   9        -0.00000000
  10        -0.00114005
Sym=     2a  
Ene=   -11.3250
Spin= Alpha
Occup=    2.00000
   1        -0.70714938
   2         0.00086633
   3        -0.00000000
   4         0.00000000
   5         0.00109456
   6         0.70714938
   7        -0.00086633
   8         0.00000000
   9         0.00000000
  10         0.00109456
Sym=     3a  
Ene=    -0.9492
Spin= Alpha
Occup=    2.00000
   1        -0.01991984
   2         0.55960585
   3         0.00000000
   4        -0.00000000
   5         0.18980975
   6        -0.01991984
   7         0.55960585
   8        -0.00000000
   9         0.00000000
  10        -0.18980975
Sym=     4a  
Ene=    -0.6298
Spin= Alpha
Occup=    2.00000
   1        -0.00146956
   2        -0.65539101
   3        -0.00000000
   4        -0.00000000
   5         0.28373475
   6         0.00146956
   7         0.65539101
   8        -0.00000000
   9        -0.00000000
  10         0.28373475
Sym=     5a  
Ene=    -0.5061
Spin= Alpha
Occup=    2.00000
   1         0.00000000
   2        -0.00000000
   3         0.64476864
   4        -0.12011488
   5         0.00000000
   6        -0.00000000
   7        -0.00000000
   8         0.64476864
   9        -0.12011488
  10        -0.00000000
Sym=     6a  
Ene=    -0.5061
Spin= Alpha
Occup=    2.00000
   1         0.00000000
   2        -0.00000000
   3         0.12011488
   4         0.64476864
   5         0.00000000
   6        -0.00000000
   7         0.00000000
   8         0.12011488
   9         0.64476864
  10         0.00000000
Sym=     7a  
Ene=    -0.4782
Spin= Alpha
Occup=    0.00000
   1         0.01871602
   2         0.34037854
   3         0.00000000
   4         0.00000000
   5        -0.61942328
   6         0.01871602
   7         0.34037854
   8         0.00000000
   9        -0.00000000
  10         0.61942328
Sym=     8a  
Ene=    -0.3647
Spin= Alpha
Occup=    0.00000
   1         0.00000000
   2         0.00000000
   3        -0.74690773
   4        -0.19762060
   5         0.00000000
   6        -0.00000000
   7        -0.00000000
   8         0.74690773
   9         0.19762060
  10         0.00000000
Sym=     9a  
Ene=    -0.3647
Spin= Alpha
Occup=    0.00000
   1        -0.00000000
   2         0.00000000
   3         0.19762060
   4        -0.74690773
   5         0.00000000
   6         0.00000000
   7        -0.00000000
   8        -0.19762060
   9         0.74690773
  10         0.00000000
Sym=    10a  
Ene=    -0.2223
Spin= Alpha
Occup=    0.00000
   1         0.04686495
   2         0.60785376
   3        -0.00000000
   4         0.00000000
   5         0.86677479
   6        -0.04686495
   7        -0.60785376
   8        -0.00000000
   9        -0.00000000
  10         0.86677479
