[Molden Format]
[N_Atoms]
                     2
[Atoms] (AU)
BE1         1      4           0.00000000      0.00000000      0.00000000
BE2         2      4           0.00000000      0.00000000      2.83458919
[Charge] (Mulliken)
  2.242650509742816E-013
 -2.389199948993337E-013
[GTO] (AU)
   1
   s  14
  2.262859900E+04  8.443999941E-05
  3.372318100E+03  4.601499968E-04
  7.603504000E+02  2.285389984E-03
  2.117404800E+02  9.648129932E-03
  6.722346800E+01  3.494469975E-02
  2.337217700E+01  1.061099893E-01
  8.721373000E+00  2.458240383E-01
  3.468091000E+00  3.862428773E-01
  1.452144000E+00  3.105526078E-01
  6.086150000E-01  6.415933955E-02
  2.576860000E-01 -2.265049984E-03
  1.041760000E-01 -5.217499963E-04
  4.242700000E-02 -8.757499938E-04
  1.484900000E-02  1.242199991E-04
   s  14
  2.262859900E+04 -1.586999994E-05
  3.372318100E+03 -8.656999968E-05
  7.603504000E+02 -4.302199984E-04
  2.117404800E+02 -1.825079993E-03
  6.722346800E+01 -6.682749976E-03
  2.337217700E+01 -2.095119992E-02
  8.721373000E+00 -5.200308981E-02
  3.468091000E+00 -9.849176964E-02
  1.452144000E+00 -1.355800695E-01
  6.086150000E-01 -6.429875976E-02
  2.576860000E-01  3.125414989E-01
  1.041760000E-01  6.270468577E-01
  4.242700000E-02  2.110231492E-01
  1.484900000E-02 -4.104669985E-03
   p   9
  3.371018400E+01  1.069960000E-03
  8.057649500E+00  6.828550001E-03
  2.836471400E+00  2.119065000E-02
  1.099965700E+00  5.843696001E-02
  4.433964000E-01  2.020920800E-01
  1.822264000E-01  4.582953101E-01
  7.572410000E-02  3.691239601E-01
  3.168540000E-02  6.611471001E-02
  1.108990000E-02  1.405160000E-03
 
   2
   s  14
  2.262859900E+04  8.443999941E-05
  3.372318100E+03  4.601499968E-04
  7.603504000E+02  2.285389984E-03
  2.117404800E+02  9.648129932E-03
  6.722346800E+01  3.494469975E-02
  2.337217700E+01  1.061099893E-01
  8.721373000E+00  2.458240383E-01
  3.468091000E+00  3.862428773E-01
  1.452144000E+00  3.105526078E-01
  6.086150000E-01  6.415933955E-02
  2.576860000E-01 -2.265049984E-03
  1.041760000E-01 -5.217499963E-04
  4.242700000E-02 -8.757499938E-04
  1.484900000E-02  1.242199991E-04
   s  14
  2.262859900E+04 -1.586999994E-05
  3.372318100E+03 -8.656999968E-05
  7.603504000E+02 -4.302199984E-04
  2.117404800E+02 -1.825079993E-03
  6.722346800E+01 -6.682749976E-03
  2.337217700E+01 -2.095119992E-02
  8.721373000E+00 -5.200308981E-02
  3.468091000E+00 -9.849176964E-02
  1.452144000E+00 -1.355800695E-01
  6.086150000E-01 -6.429875976E-02
  2.576860000E-01  3.125414989E-01
  1.041760000E-01  6.270468577E-01
  4.242700000E-02  2.110231492E-01
  1.484900000E-02 -4.104669985E-03
   p   9
  3.371018400E+01  1.069960000E-03
  8.057649500E+00  6.828550001E-03
  2.836471400E+00  2.119065000E-02
  1.099965700E+00  5.843696001E-02
  4.433964000E-01  2.020920800E-01
  1.822264000E-01  4.582953101E-01
  7.572410000E-02  3.691239601E-01
  3.168540000E-02  6.611471001E-02
  1.108990000E-02  1.405160000E-03
 
[MO]
Sym=     1a  
Ene=    -4.7483
Spin= Alpha
Occup=    2.00000
   1         0.70589563
   2         0.00276747
   3        -0.00000000
   4         0.00000000
   5         0.00136363
   6         0.70589563
   7         0.00276747
   8         0.00000000
   9        -0.00000000
  10        -0.00136363
Sym=     2a  
Ene=    -4.7411
Spin= Alpha
Occup=    2.00000
   1        -0.70761669
   2        -0.00053751
   3         0.00000000
   4        -0.00000000
   5         0.00101502
   6         0.70761669
   7         0.00053751
   8         0.00000000
   9        -0.00000000
  10         0.00101502
Sym=     3a  
Ene=    -0.4270
Spin= Alpha
Occup=    2.00000
   1        -0.09504293
   2         0.47126612
   3         0.00000000
   4        -0.00000000
   5         0.20559883
   6        -0.09504293
   7         0.47126612
   8        -0.00000000
   9         0.00000000
  10        -0.20559883
Sym=     4a  
Ene=    -0.0260
Spin= Alpha
Occup=    0.37950
   1        -0.05052306
   2        -0.84100291
   3        -0.00000000
   4         0.00000000
   5         0.23262752
   6         0.05052306
   7         0.84100291
   8        -0.00000000
   9         0.00000000
  10         0.23262752
Sym=     5a  
Ene=     0.0000
Spin= Alpha
Occup=    1.62050
   1         0.00000000
   2         0.00000000
   3         0.54580818
   4         0.15926935
   5        -0.00000000
   6        -0.00000000
   7        -0.00000000
   8         0.54580818
   9         0.15926935
  10        -0.00000000
Sym=     6a  
Ene=     0.0179
Spin= Alpha
Occup=    0.00000
   1        -0.00000000
   2         0.00000000
   3        -0.15926935
   4         0.54580818
   5        -0.00000000
   6         0.00000000
   7        -0.00000000
   8        -0.15926935
   9         0.54580818
  10        -0.00000000
Sym=     7a  
Ene=     0.0806
Spin= Alpha
Occup=    0.00000
   1         0.09408365
   2         0.36964899
   3         0.00000000
   4        -0.00000000
   5        -0.73548617
   6         0.09408365
   7         0.36964899
   8        -0.00000000
   9         0.00000000
  10         0.73548617
Sym=     8a  
Ene=     0.2356
Spin= Alpha
Occup=    0.00000
   1         0.00000000
   2        -0.00000000
   3        -1.00817793
   4        -0.29419098
   5        -0.00000000
   6         0.00000000
   7        -0.00000000
   8         1.00817793
   9         0.29419098
  10         0.00000000
Sym=     9a  
Ene=     0.2499
Spin= Alpha
Occup=    0.00000
   1        -0.00000000
   2        -0.00000000
   3         0.29419098
   4        -1.00817793
   5         0.00000000
   6        -0.00000000
   7        -0.00000000
   8        -0.29419098
   9         1.00817793
  10        -0.00000000
Sym=    10a  
Ene=     0.8175
Spin= Alpha
Occup=    0.00000
   1        -0.80705659
   2        -3.54770363
   3         0.00000000
   4        -0.00000000
   5        -2.20157632
   6         0.80705659
   7         3.54770363
   8         0.00000000
   9        -0.00000000
  10        -2.20157632
