[Molden Format]
[N_Atoms]
                     2
[Atoms] (AU)
BE1         1      4           0.00000000      0.00000000      0.00000000
BE2         2      4           0.00000000      0.00000000      2.83458919
[Charge] (Mulliken)
  0.000000000000000E+000
  0.000000000000000E+000
[GTO] (AU)
   1
   s  14
  2.262859900E+04  8.443999941E-05
  3.372318100E+03  4.601499968E-04
  7.603504000E+02  2.285389984E-03
  2.117404800E+02  9.648129932E-03
  6.722346800E+01  3.494469975E-02
  2.337217700E+01  1.061099893E-01
  8.721373000E+00  2.458240383E-01
  3.468091000E+00  3.862428773E-01
  1.452144000E+00  3.105526078E-01
  6.086150000E-01  6.415933955E-02
  2.576860000E-01 -2.265049984E-03
  1.041760000E-01 -5.217499963E-04
  4.242700000E-02 -8.757499938E-04
  1.484900000E-02  1.242199991E-04
   s  14
  2.262859900E+04 -1.586999994E-05
  3.372318100E+03 -8.656999968E-05
  7.603504000E+02 -4.302199984E-04
  2.117404800E+02 -1.825079993E-03
  6.722346800E+01 -6.682749976E-03
  2.337217700E+01 -2.095119992E-02
  8.721373000E+00 -5.200308981E-02
  3.468091000E+00 -9.849176964E-02
  1.452144000E+00 -1.355800695E-01
  6.086150000E-01 -6.429875976E-02
  2.576860000E-01  3.125414989E-01
  1.041760000E-01  6.270468577E-01
  4.242700000E-02  2.110231492E-01
  1.484900000E-02 -4.104669985E-03
   p   9
  3.371018400E+01  1.069960000E-03
  8.057649500E+00  6.828550001E-03
  2.836471400E+00  2.119065000E-02
  1.099965700E+00  5.843696001E-02
  4.433964000E-01  2.020920800E-01
  1.822264000E-01  4.582953101E-01
  7.572410000E-02  3.691239601E-01
  3.168540000E-02  6.611471001E-02
  1.108990000E-02  1.405160000E-03
 
   2
   s  14
  2.262859900E+04  8.443999941E-05
  3.372318100E+03  4.601499968E-04
  7.603504000E+02  2.285389984E-03
  2.117404800E+02  9.648129932E-03
  6.722346800E+01  3.494469975E-02
  2.337217700E+01  1.061099893E-01
  8.721373000E+00  2.458240383E-01
  3.468091000E+00  3.862428773E-01
  1.452144000E+00  3.105526078E-01
  6.086150000E-01  6.415933955E-02
  2.576860000E-01 -2.265049984E-03
  1.041760000E-01 -5.217499963E-04
  4.242700000E-02 -8.757499938E-04
  1.484900000E-02  1.242199991E-04
   s  14
  2.262859900E+04 -1.586999994E-05
  3.372318100E+03 -8.656999968E-05
  7.603504000E+02 -4.302199984E-04
  2.117404800E+02 -1.825079993E-03
  6.722346800E+01 -6.682749976E-03
  2.337217700E+01 -2.095119992E-02
  8.721373000E+00 -5.200308981E-02
  3.468091000E+00 -9.849176964E-02
  1.452144000E+00 -1.355800695E-01
  6.086150000E-01 -6.429875976E-02
  2.576860000E-01  3.125414989E-01
  1.041760000E-01  6.270468577E-01
  4.242700000E-02  2.110231492E-01
  1.484900000E-02 -4.104669985E-03
   p   9
  3.371018400E+01  1.069960000E-03
  8.057649500E+00  6.828550001E-03
  2.836471400E+00  2.119065000E-02
  1.099965700E+00  5.843696001E-02
  4.433964000E-01  2.020920800E-01
  1.822264000E-01  4.582953101E-01
  7.572410000E-02  3.691239601E-01
  3.168540000E-02  6.611471001E-02
  1.108990000E-02  1.405160000E-03
 
[MO]
Sym=     1a  
Ene=    -4.7461
Spin= Alpha
Occup=    2.00000
   1         0.70578064
   2         0.00579645
   3        -0.00000000
   4         0.00000000
   5        -0.00000000
   6         0.70578064
   7         0.00579645
   8         0.00000000
   9        -0.00000000
  10        -0.00000000
Sym=     2a  
Ene=    -4.7287
Spin= Alpha
Occup=    2.00000
   1        -0.70713754
   2         0.00532758
   3         0.00000000
   4        -0.00000000
   5         0.00000000
   6         0.70713754
   7        -0.00532758
   8        -0.00000000
   9         0.00000000
  10         0.00000000
Sym=     3a  
Ene=    -0.5045
Spin= Alpha
Occup=    2.00000
   1        -0.06954674
   2         0.55336211
   3        -0.00000000
   4         0.00000000
   5         0.00000000
   6        -0.06954674
   7         0.55336211
   8         0.00000000
   9        -0.00000000
  10         0.00000000
Sym=     4a  
Ene=    -0.1057
Spin= Alpha
Occup=    2.00000
   1        -0.13940314
   2        -1.20912663
   3        -0.00000000
   4         0.00000000
   5         0.00000000
   6         0.13940314
   7         1.20912663
   8        -0.00000000
   9         0.00000000
  10         0.00000000
Sym=     5a  
Ene=     3.3721
Spin= Alpha
Occup=    0.00000
   1         0.00000000
   2         0.00000000
   3         0.00000000
   4         0.56857127
   5        -0.00000000
   6        -0.00000000
   7        -0.00000000
   8         0.00000000
   9         0.56857127
  10         0.00000000
Sym=     6a  
Ene=     3.3721
Spin= Alpha
Occup=    0.00000
   1        -0.00000000
   2        -0.00000000
   3         0.56857127
   4        -0.00000000
   5         0.00000000
   6         0.00000000
   7         0.00000000
   8         0.56857127
   9        -0.00000000
  10         0.00000000
Sym=     7a  
Ene=     3.6541
Spin= Alpha
Occup=    0.00000
   1         0.11493681
   2         0.22912130
   3        -0.00000000
   4         0.00000000
   5        -0.76368360
   6         0.11493681
   7         0.22912130
   8         0.00000000
   9        -0.00000000
  10         0.76368360
Sym=     8a  
Ene=     3.6975
Spin= Alpha
Occup=    0.00000
   1         0.00000000
   2         0.00000000
   3         0.00000000
   4        -1.05022430
   5        -0.00000000
   6         0.00000000
   7         0.00000000
   8        -0.00000000
   9         1.05022430
  10         0.00000000
Sym=     9a  
Ene=     3.6975
Spin= Alpha
Occup=    0.00000
   1        -0.00000000
   2        -0.00000000
   3        -1.05022430
   4        -0.00000000
   5         0.00000000
   6        -0.00000000
   7        -0.00000000
   8         1.05022430
   9         0.00000000
  10        -0.00000000
Sym=    10a  
Ene=     4.4942
Spin= Alpha
Occup=    0.00000
   1         0.79695518
   2         3.43969063
   3        -0.00000000
   4         0.00000000
   5         2.21383263
   6        -0.79695518
   7        -3.43969063
   8        -0.00000000
   9        -0.00000000
  10         2.21383263
