[Molden Format]
[N_Atoms]
                     2
[Atoms] (AU)
F1          1      9           0.00000000      0.00000000      0.00000000
F2          2      9           0.00000000      0.00000000      2.83458919
[Charge] (Mulliken)
 -5.684341886080801E-014
  4.618527782440651E-014
[GTO] (AU)
   1
   s  14
  1.031094600E+05  1.713099991E-04
  1.528100700E+04  7.123999962E-04
  3.441539200E+03  2.990479984E-03
  9.670948300E+02  1.164036994E-02
  3.140353400E+02  3.968642979E-02
  1.134423000E+02  1.128546094E-01
  4.464472700E+01  2.473650687E-01
  1.894287400E+01  3.672702681E-01
  8.532743000E+00  2.896286985E-01
  3.919401000E+00  7.786681959E-02
  1.568157000E+00  4.562139976E-03
  6.232900000E-01  2.468879987E-03
  2.408610000E-01  1.106309994E-03
  8.430100000E-02  1.739699991E-04
   s  14
  1.031094600E+05 -4.044999995E-05
  1.528100700E+04 -1.682299998E-04
  3.441539200E+03 -7.084299991E-04
  9.670948300E+02 -2.767999996E-03
  3.140353400E+02 -9.611379987E-03
  1.134423000E+02 -2.833957996E-02
  4.464472700E+01 -6.839343991E-02
  1.894287400E+01 -1.237379298E-01
  8.532743000E+00 -1.512859698E-01
  3.919401000E+00 -9.099909988E-03
  1.568157000E+00  3.716257695E-01
  6.232900000E-01  5.500214393E-01
  2.408610000E-01  2.092318697E-01
  8.430100000E-02  8.074639989E-03
   p   9
  2.453302900E+02  1.024860004E-03
  5.691900500E+01  8.344290032E-03
  1.760456800E+01  4.078927016E-02
  6.274995000E+00  1.351370605E-01
  2.447030000E+00  2.798830811E-01
  9.950600000E-01  3.597966414E-01
  4.039730000E-01  3.055347412E-01
  1.548100000E-01  1.354703905E-01
  5.418400000E-02  2.804449011E-02
 
   2
   s  14
  1.031094600E+05  1.713099991E-04
  1.528100700E+04  7.123999962E-04
  3.441539200E+03  2.990479984E-03
  9.670948300E+02  1.164036994E-02
  3.140353400E+02  3.968642979E-02
  1.134423000E+02  1.128546094E-01
  4.464472700E+01  2.473650687E-01
  1.894287400E+01  3.672702681E-01
  8.532743000E+00  2.896286985E-01
  3.919401000E+00  7.786681959E-02
  1.568157000E+00  4.562139976E-03
  6.232900000E-01  2.468879987E-03
  2.408610000E-01  1.106309994E-03
  8.430100000E-02  1.739699991E-04
   s  14
  1.031094600E+05 -4.044999995E-05
  1.528100700E+04 -1.682299998E-04
  3.441539200E+03 -7.084299991E-04
  9.670948300E+02 -2.767999996E-03
  3.140353400E+02 -9.611379987E-03
  1.134423000E+02 -2.833957996E-02
  4.464472700E+01 -6.839343991E-02
  1.894287400E+01 -1.237379298E-01
  8.532743000E+00 -1.512859698E-01
  3.919401000E+00 -9.099909988E-03
  1.568157000E+00  3.716257695E-01
  6.232900000E-01  5.500214393E-01
  2.408610000E-01  2.092318697E-01
  8.430100000E-02  8.074639989E-03
   p   9
  2.453302900E+02  1.024860004E-03
  5.691900500E+01  8.344290032E-03
  1.760456800E+01  4.078927016E-02
  6.274995000E+00  1.351370605E-01
  2.447030000E+00  2.798830811E-01
  9.950600000E-01  3.597966414E-01
  4.039730000E-01  3.055347412E-01
  1.548100000E-01  1.354703905E-01
  5.418400000E-02  2.804449011E-02
 
[MO]
Sym=     1a  
Ene=   -26.5070
Spin= Alpha
Occup=    1.00000
   1         0.70708461
   2        -0.00252621
   3         0.00000000
   4         0.00000000
   5         0.00039049
   6         0.70708476
   7        -0.00252621
   8         0.00000000
   9        -0.00000000
  10        -0.00039049
Sym=     1a  
Ene=   -26.5070
Spin= Beta
Occup=    1.00000
   1         0.70708461
   2        -0.00252621
   3         0.00000000
   4         0.00000000
   5         0.00039049
   6         0.70708476
   7        -0.00252621
   8         0.00000000
   9        -0.00000000
  10        -0.00039049
Sym=     2a  
Ene=   -26.5060
Spin= Alpha
Occup=    1.00000
   1        -0.70712513
   2         0.00221800
   3         0.00000000
   4         0.00000000
   5        -0.00051495
   6         0.70712497
   7        -0.00221800
   8        -0.00000000
   9        -0.00000000
  10        -0.00051495
Sym=     2a  
Ene=   -26.5060
Spin= Beta
Occup=    1.00000
   1        -0.70712513
   2         0.00221800
   3         0.00000000
   4         0.00000000
   5        -0.00051495
   6         0.70712497
   7        -0.00221800
   8        -0.00000000
   9        -0.00000000
  10        -0.00051495
Sym=     3a  
Ene=    -1.7695
Spin= Alpha
Occup=    1.00000
   1        -0.00335373
   2         0.65039039
   3         0.00000000
   4         0.00000000
   5         0.07664367
   6        -0.00335373
   7         0.65039039
   8         0.00000000
   9        -0.00000000
  10        -0.07664367
Sym=     3a  
Ene=    -1.7695
Spin= Beta
Occup=    1.00000
   1        -0.00335373
   2         0.65039039
   3         0.00000000
   4         0.00000000
   5         0.07664367
   6        -0.00335373
   7         0.65039039
   8         0.00000000
   9        -0.00000000
  10        -0.07664367
Sym=     4a  
Ene=    -1.5580
Spin= Alpha
Occup=    1.00000
   1        -0.00596471
   2        -0.73792516
   3         0.00000000
   4         0.00000000
   5         0.05502529
   6         0.00596471
   7         0.73792516
   8         0.00000000
   9        -0.00000000
  10         0.05502529
Sym=     4a  
Ene=    -1.5580
Spin= Beta
Occup=    1.00000
   1        -0.00596471
   2        -0.73792516
   3         0.00000000
   4         0.00000000
   5         0.05502529
   6         0.00596471
   7         0.73792516
   8         0.00000000
   9        -0.00000000
  10         0.05502529
Sym=     5a  
Ene=    -0.8221
Spin= Alpha
Occup=    1.00000
   1        -0.00000000
   2        -0.00000000
   3         0.32338595
   4         0.58927456
   5         0.00000000
   6        -0.00000000
   7        -0.00000000
   8         0.32338595
   9         0.58927456
  10        -0.00000000
Sym=     5a  
Ene=    -0.8221
Spin= Beta
Occup=    1.00000
   1        -0.00000000
   2        -0.00000000
   3         0.32338595
   4         0.58927456
   5         0.00000000
   6        -0.00000000
   7        -0.00000000
   8         0.32338595
   9         0.58927456
  10        -0.00000000
Sym=     6a  
Ene=    -0.8221
Spin= Alpha
Occup=    1.00000
   1         0.00000000
   2         0.00000000
   3         0.58927456
   4        -0.32338595
   5        -0.00000000
   6         0.00000000
   7         0.00000000
   8         0.58927456
   9        -0.32338595
  10         0.00000000
Sym=     6a  
Ene=    -0.8221
Spin= Beta
Occup=    1.00000
   1         0.00000000
   2         0.00000000
   3         0.58927456
   4        -0.32338595
   5        -0.00000000
   6         0.00000000
   7         0.00000000
   8         0.58927456
   9        -0.32338595
  10         0.00000000
Sym=     7a  
Ene=    -0.7444
Spin= Alpha
Occup=    1.00000
   1         0.01292111
   2         0.19848124
   3        -0.00000000
   4        -0.00000000
   5        -0.65467570
   6         0.01292111
   7         0.19848124
   8         0.00000000
   9         0.00000000
  10         0.65467570
Sym=     7a  
Ene=    -0.7444
Spin= Beta
Occup=    1.00000
   1         0.01292111
   2         0.19848124
   3        -0.00000000
   4        -0.00000000
   5        -0.65467570
   6         0.01292111
   7         0.19848124
   8         0.00000000
   9         0.00000000
  10         0.65467570
Sym=     8a  
Ene=    -0.7155
Spin= Alpha
Occup=    1.00000
   1        -0.00000000
   2        -0.00000000
   3        -0.18916711
   4        -0.72380462
   5         0.00000000
   6        -0.00000000
   7        -0.00000000
   8         0.18916711
   9         0.72380462
  10        -0.00000000
Sym=     8a  
Ene=    -0.7155
Spin= Beta
Occup=    1.00000
   1        -0.00000000
   2        -0.00000000
   3        -0.18916711
   4        -0.72380462
   5         0.00000000
   6        -0.00000000
   7        -0.00000000
   8         0.18916711
   9         0.72380462
  10        -0.00000000
Sym=     9a  
Ene=    -0.7155
Spin= Alpha
Occup=    1.00000
   1        -0.00000000
   2        -0.00000000
   3        -0.72380462
   4         0.18916711
   5         0.00000000
   6        -0.00000000
   7        -0.00000000
   8         0.72380462
   9        -0.18916711
  10        -0.00000000
Sym=     9a  
Ene=    -0.7155
Spin= Beta
Occup=    1.00000
   1        -0.00000000
   2        -0.00000000
   3        -0.72380462
   4         0.18916711
   5         0.00000000
   6        -0.00000000
   7        -0.00000000
   8         0.72380462
   9        -0.18916711
  10        -0.00000000
Sym=    10a  
Ene=    -0.0097
Spin= Alpha
Occup=    0.00000
   1         0.01797015
   2         0.23981499
   3        -0.00000000
   4         0.00000000
   5         0.80804863
   6        -0.01797015
   7        -0.23981499
   8        -0.00000000
   9         0.00000000
  10         0.80804863
Sym=    10a  
Ene=    -0.0097
Spin= Beta
Occup=    0.00000
   1         0.01797015
   2         0.23981499
   3        -0.00000000
   4         0.00000000
   5         0.80804863
   6        -0.01797015
   7        -0.23981499
   8        -0.00000000
   9         0.00000000
  10         0.80804863
