[Molden Format]
[N_Atoms]
                     2
[Atoms] (AU)
F1          1      9           0.00000000      0.00000000      0.00000000
LI2         2      3           0.00000000      0.00000000      4.53534270
[Charge] (Mulliken)
 -0.475238107401566     
  0.475238107401549     
[GTO] (AU)
   1
   s  14
  1.031094600E+05  1.713099991E-04
  1.528100700E+04  7.123999962E-04
  3.441539200E+03  2.990479984E-03
  9.670948300E+02  1.164036994E-02
  3.140353400E+02  3.968642979E-02
  1.134423000E+02  1.128546094E-01
  4.464472700E+01  2.473650687E-01
  1.894287400E+01  3.672702681E-01
  8.532743000E+00  2.896286985E-01
  3.919401000E+00  7.786681959E-02
  1.568157000E+00  4.562139976E-03
  6.232900000E-01  2.468879987E-03
  2.408610000E-01  1.106309994E-03
  8.430100000E-02  1.739699991E-04
   s  14
  1.031094600E+05 -4.044999995E-05
  1.528100700E+04 -1.682299998E-04
  3.441539200E+03 -7.084299991E-04
  9.670948300E+02 -2.767999996E-03
  3.140353400E+02 -9.611379987E-03
  1.134423000E+02 -2.833957996E-02
  4.464472700E+01 -6.839343991E-02
  1.894287400E+01 -1.237379298E-01
  8.532743000E+00 -1.512859698E-01
  3.919401000E+00 -9.099909988E-03
  1.568157000E+00  3.716257695E-01
  6.232900000E-01  5.500214393E-01
  2.408610000E-01  2.092318697E-01
  8.430100000E-02  8.074639989E-03
   p   9
  2.453302900E+02  1.024860004E-03
  5.691900500E+01  8.344290032E-03
  1.760456800E+01  4.078927016E-02
  6.274995000E+00  1.351370605E-01
  2.447030000E+00  2.798830811E-01
  9.950600000E-01  3.597966414E-01
  4.039730000E-01  3.055347412E-01
  1.548100000E-01  1.354703905E-01
  5.418400000E-02  2.804449011E-02
 
   2
   s  14
  9.497934400E+03  9.668999974E-05
  1.416811200E+03  6.087099984E-04
  3.214599400E+02  3.101519992E-03
  9.112416300E+01  1.266904997E-02
  2.999989100E+01  4.248012989E-02
  1.101763100E+01  1.150183297E-01
  4.372801000E+00  2.398650094E-01
  1.831256000E+00  3.584300090E-01
  8.022610000E-01  3.048527792E-01
  3.626480000E-01  8.824261976E-02
  1.139950000E-01 -8.445899977E-04
  5.123700000E-02 -7.943959979E-03
  2.246800000E-02 -3.764419990E-03
  7.860000000E-03 -8.868999976E-05
   s  14
  9.497934400E+03 -1.244999993E-05
  1.416811200E+03 -7.838999954E-05
  3.214599400E+02 -4.007099976E-04
  9.112416300E+01 -1.645249990E-03
  2.999989100E+01 -5.634599967E-03
  1.101763100E+01 -1.590780991E-02
  4.372801000E+00 -3.612581979E-02
  1.831256000E+00 -6.459927962E-02
  8.022610000E-01 -1.008321794E-01
  3.626480000E-01 -9.757613942E-02
  1.139950000E-01  2.301215886E-01
  5.123700000E-02  6.102389764E-01
  2.246800000E-02  2.849406083E-01
  7.860000000E-03  4.026899976E-03
   p   9
  1.311950400E+01  1.524940000E-03
  3.077424200E+00  8.314830000E-03
  1.098800500E+00  1.933203000E-02
  4.357784000E-01  4.934293000E-02
  1.802432000E-01  1.623554000E-01
  7.613330000E-02  3.847505400E-01
  3.254650000E-02  4.336100400E-01
  1.401820000E-02  1.287005900E-01
  4.906400000E-03 -1.018520000E-03
 
[MO]
Sym=     1a  
Ene=   -25.9990
Spin= Alpha
Occup=    2.00000
   1         1.00001204
   2        -0.00261385
   3        -0.00000000
   4        -0.00000000
   5        -0.00002844
   6        -0.00001006
   7        -0.00038315
   8        -0.00000000
   9        -0.00000000
  10         0.00034022
Sym=     2a  
Ene=    -2.5178
Spin= Alpha
Occup=    2.00000
   1         0.00001507
   2         0.00154631
   3         0.00000001
   4         0.00000001
   5         0.00216834
   6         0.99985741
   7         0.01307643
   8        -0.00000000
   9        -0.00000000
  10         0.00159245
Sym=     3a  
Ene=    -1.3221
Spin= Alpha
Occup=    2.00000
   1         0.00279203
   2         0.99628245
   3        -0.00000063
   4        -0.00000043
   5        -0.09021182
   6        -0.00271551
   7        -0.01724298
   8        -0.00000010
   9        -0.00000007
  10        -0.00831832
Sym=     4a  
Ene=    -0.4524
Spin= Alpha
Occup=    2.00000
   1         0.00000002
   2         0.00000032
   3         0.82122388
   4         0.56199583
   5        -0.00000658
   6         0.00000015
   7        -0.00000024
   8         0.03162842
   9         0.02164457
  10         0.00000042
Sym=     5a  
Ene=    -0.4524
Spin= Alpha
Occup=    2.00000
   1        -0.00000000
   2        -0.00000000
   3         0.56199583
   4        -0.82122388
   5         0.00000000
   6        -0.00000000
   7         0.00000000
   8         0.02164457
   9        -0.03162842
  10        -0.00000000
Sym=     6a  
Ene=    -0.3466
Spin= Alpha
Occup=    1.90116
   1         0.01000455
   2         0.01473036
   3        -0.00000489
   4        -0.00000335
   5        -0.85322848
   6         0.02539537
   7        -0.39478746
   8        -0.00000137
   9        -0.00000094
  10         0.14079645
Sym=     7a  
Ene=    -0.0004
Spin= Alpha
Occup=    0.09884
   1         0.02420645
   2         0.26626589
   3         0.00000243
   4         0.00000167
   5         0.53557914
   6        -0.00227405
   7        -0.89303500
   8        -0.00000336
   9        -0.00000230
  10         0.34342896
Sym=     8a  
Ene=     0.0605
Spin= Alpha
Occup=    0.00000
   1         0.02258986
   2         0.22380078
   3         0.00006097
   4         0.00004175
   5         0.04840158
   6        -0.00738339
   7         0.30485560
   8        -0.00041826
   9        -0.00028643
  10         0.97739799
Sym=     9a  
Ene=     0.0612
Spin= Alpha
Occup=    0.00000
   1        -0.00000000
   2        -0.00000000
   3         0.08320634
   4        -0.12149977
   5        -0.00000000
   6         0.00000000
   7        -0.00000000
   8        -0.56797910
   9         0.82937589
  10        -0.00000000
Sym=    10a  
Ene=     0.0612
Spin= Alpha
Occup=    0.00000
   1         0.00001151
   2         0.00011407
   3        -0.12149975
   4        -0.08320632
   5         0.00002541
   6        -0.00000369
   7         0.00014948
   8         0.82937578
   9         0.56797902
  10         0.00049451
