[Molden Format]
[N_Atoms]
                     2
[Atoms] (AU)
LI1         1      3           0.00000000      0.00000000      0.00000000
O2          2      8           0.00000000      0.00000000      2.83458919
[Charge] (Mulliken)
  0.638486445889550     
 -0.638486445889569     
[GTO] (AU)
   1
   s  14
  9.497934400E+03  9.668999974E-05
  1.416811200E+03  6.087099984E-04
  3.214599400E+02  3.101519992E-03
  9.112416300E+01  1.266904997E-02
  2.999989100E+01  4.248012989E-02
  1.101763100E+01  1.150183297E-01
  4.372801000E+00  2.398650094E-01
  1.831256000E+00  3.584300090E-01
  8.022610000E-01  3.048527792E-01
  3.626480000E-01  8.824261976E-02
  1.139950000E-01 -8.445899977E-04
  5.123700000E-02 -7.943959979E-03
  2.246800000E-02 -3.764419990E-03
  7.860000000E-03 -8.868999976E-05
   s  14
  9.497934400E+03 -1.244999993E-05
  1.416811200E+03 -7.838999954E-05
  3.214599400E+02 -4.007099976E-04
  9.112416300E+01 -1.645249990E-03
  2.999989100E+01 -5.634599967E-03
  1.101763100E+01 -1.590780991E-02
  4.372801000E+00 -3.612581979E-02
  1.831256000E+00 -6.459927962E-02
  8.022610000E-01 -1.008321794E-01
  3.626480000E-01 -9.757613942E-02
  1.139950000E-01  2.301215886E-01
  5.123700000E-02  6.102389764E-01
  2.246800000E-02  2.849406083E-01
  7.860000000E-03  4.026899976E-03
   p   9
  1.311950400E+01  1.524940000E-03
  3.077424200E+00  8.314830000E-03
  1.098800500E+00  1.933203000E-02
  4.357784000E-01  4.934293000E-02
  1.802432000E-01  1.623554000E-01
  7.613330000E-02  3.847505400E-01
  3.254650000E-02  4.336100400E-01
  1.401820000E-02  1.287005900E-01
  4.906400000E-03 -1.018520000E-03
 
   2
   s  14
  1.053749500E+05  1.238600013E-04
  1.567924000E+04  5.120100053E-04
  3.534544700E+03  2.152910022E-03
  9.873651600E+02  8.528440089E-03
  3.159787500E+02  3.018049031E-02
  1.116542800E+02  9.099702095E-02
  4.269945100E+01  2.177936423E-01
  1.739559600E+01  3.686245738E-01
  7.438309000E+00  3.366707335E-01
  3.222862000E+00  9.657630101E-02
  1.253877000E+00  2.144520022E-03
  4.951550000E-01  1.194350012E-03
  1.916650000E-01  5.390200056E-04
  6.708300000E-02  2.103400022E-04
   s  14
  1.053749500E+05 -2.815000008E-05
  1.567924000E+04 -1.163000003E-04
  3.534544700E+03 -4.909200013E-04
  9.873651600E+02 -1.946160005E-03
  3.159787500E+02 -7.005300019E-03
  1.116542800E+02 -2.167814006E-02
  4.269945100E+01 -5.641213015E-02
  1.739559600E+01 -1.127053003E-01
  7.438309000E+00 -1.589119704E-01
  3.222862000E+00 -3.355083009E-02
  1.253877000E+00  3.531902810E-01
  4.951550000E-01  5.534199315E-01
  1.916650000E-01  2.301839106E-01
  6.708300000E-02  1.127267003E-02
   p   9
  2.000000000E+02  9.173000030E-04
  4.653336700E+01  7.377140024E-03
  1.462180900E+01  3.483515011E-02
  5.313064000E+00  1.144397004E-01
  2.102525000E+00  2.554966408E-01
  8.502230000E-01  3.722557412E-01
  3.375970000E-01  3.323314911E-01
  1.288920000E-01  1.400847905E-01
  4.511200000E-02  2.395784008E-02
 
[MO]
Sym=     1a  
Ene=   -20.3610
Spin= Alpha
Occup=    1.00000
   1        -0.00028395
   2        -0.00073734
   3         0.00000000
   4        -0.00000000
   5        -0.00075070
   6         1.00006473
   7         0.00231563
   8         0.00000000
   9         0.00000000
  10        -0.00014699
Sym=     1a  
Ene=   -20.3180
Spin= Beta
Occup=    1.00000
   1        -0.00016259
   2        -0.00033500
   3         0.00000000
   4        -0.00000000
   5        -0.00030823
   6         1.00002845
   7        -0.00013455
   8         0.00000000
   9         0.00000000
  10        -0.00020284
Sym=     2a  
Ene=    -2.4937
Spin= Alpha
Occup=    1.00000
   1         0.99592497
   2         0.01077515
   3        -0.00000000
   4        -0.00000000
   5        -0.00214619
   6        -0.00153847
   7         0.02211297
   8        -0.00000000
   9         0.00000000
  10        -0.01458775
Sym=     2a  
Ene=    -2.4847
Spin= Beta
Occup=    1.00000
   1         0.99737760
   2         0.01236218
   3        -0.00000000
   4         0.00000000
   5        -0.00208208
   6        -0.00151638
   7         0.01771185
   8        -0.00000000
   9         0.00000000
  10        -0.00760555
Sym=     3a  
Ene=    -1.1758
Spin= Alpha
Occup=    1.00000
   1        -0.09896889
   2         0.01187139
   3        -0.00000000
   4         0.00000000
   5         0.02723401
   6        -0.00346140
   7         0.98570244
   8         0.00000000
   9        -0.00000000
  10        -0.04638595
Sym=     3a  
Ene=    -1.0001
Spin= Beta
Occup=    1.00000
   1        -0.10003528
   2         0.03966739
   3        -0.00000000
   4         0.00000000
   5         0.05630795
   6        -0.00388911
   7         0.96012672
   8         0.00000000
   9        -0.00000000
  10        -0.09063958
Sym=     4a  
Ene=    -0.5140
Spin= Alpha
Occup=    1.00000
   1         0.15437458
   2        -0.00131264
   3        -0.00000000
   4        -0.00000000
   5        -0.06021982
   6         0.00293745
   7         0.06456643
   8        -0.00000000
   9         0.00000000
  10         1.00766078
Sym=     4a  
Ene=    -0.3356
Spin= Beta
Occup=    1.00000
   1        -0.00000000
   2        -0.00000000
   3         0.22666254
   4         0.01418245
   5         0.00000000
   6         0.00000000
   7         0.00000000
   8         0.91737803
   9         0.05740105
  10        -0.00000000
Sym=     5a  
Ene=    -0.4076
Spin= Alpha
Occup=    1.00000
   1         0.00000000
   2        -0.00000000
   3         0.13142250
   4         0.00686618
   5         0.00000000
   6         0.00000000
   7         0.00000000
   8         0.95789432
   9         0.05004528
  10         0.00000000
Sym=     5a  
Ene=    -0.3356
Spin= Beta
Occup=    1.00000
   1         0.00000000
   2         0.00000000
   3        -0.01418245
   4         0.22666254
   5         0.00000000
   6        -0.00000000
   7        -0.00000000
   8        -0.05740105
   9         0.91737803
  10         0.00000000
Sym=     6a  
Ene=    -0.4076
Spin= Alpha
Occup=    1.00000
   1        -0.00000000
   2         0.00000000
   3        -0.00686618
   4         0.13142250
   5         0.00000000
   6        -0.00000000
   7        -0.00000000
   8        -0.05004528
   9         0.95789432
  10        -0.00000000
Sym=     6a  
Ene=     0.0068
Spin= Beta
Occup=    0.00000
   1         0.00945069
   2        -0.84074690
   3         0.00000000
   4        -0.00000000
   5         0.54129209
   6         0.00242975
   7         0.06650098
   8        -0.00000000
   9         0.00000000
  10         0.01391295
Sym=     7a  
Ene=     0.0103
Spin= Alpha
Occup=    0.00000
   1        -0.00214894
   2        -0.84109951
   3         0.00000000
   4        -0.00000000
   5         0.55114056
   6         0.00185741
   7         0.04780777
   8        -0.00000000
   9         0.00000000
  10        -0.06634176
Sym=     7a  
Ene=     0.1163
Spin= Beta
Occup=    0.00000
   1        -0.00000000
   2         0.00000000
   3         0.08073789
   4        -1.00371661
   5        -0.00000000
   6         0.00000000
   7         0.00000000
   8        -0.03766456
   9         0.46823791
  10         0.00000000
Sym=     8a  
Ene=     0.1071
Spin= Alpha
Occup=    0.00000
   1         0.00000000
   2        -0.00000000
   3        -0.06418023
   4         1.02181435
   5         0.00000000
   6        -0.00000000
   7        -0.00000000
   8         0.02390952
   9        -0.38066384
  10         0.00000000
Sym=     8a  
Ene=     0.1163
Spin= Beta
Occup=    0.00000
   1         0.00000000
   2        -0.00000000
   3        -1.00371661
   4        -0.08073789
   5         0.00000000
   6        -0.00000000
   7        -0.00000000
   8         0.46823791
   9         0.03766456
  10         0.00000000
Sym=     9a  
Ene=     0.1071
Spin= Alpha
Occup=    0.00000
   1        -0.00000000
   2        -0.00000000
   3        -1.02181435
   4        -0.06418023
   5         0.00000000
   6        -0.00000000
   7        -0.00000000
   8         0.38066384
   9         0.02390952
  10        -0.00000000
Sym=     9a  
Ene=     0.2219
Spin= Beta
Occup=    0.00000
   1        -0.02774828
   2        -0.64680717
   3        -0.00000000
   4         0.00000000
   5        -0.96721197
   6         0.07401835
   7         0.69209481
   8        -0.00000000
   9        -0.00000000
  10         0.10782951
Sym=    10a  
Ene=     0.2153
Spin= Alpha
Occup=    0.00000
   1         0.06005812
   2         0.68422131
   3         0.00000000
   4        -0.00000000
   5         0.96866256
   6        -0.07490190
   7        -0.65559132
   8         0.00000000
   9         0.00000000
  10         0.12303352
Sym=    10a  
Ene=     0.3128
Spin= Beta
Occup=    0.00000
   1         0.15321921
   2         0.22119037
   3         0.00000000
   4         0.00000000
   5         0.12151227
   6        -0.01439587
   7        -0.05275777
   8         0.00000000
   9        -0.00000000
  10         1.00855789
