   This run of MOLCAS is using the pymolcas driver

                             OPE
                             OPE          NMOL  CASOP  ENMOLC A   SO
                 OPE        NMOLC        AS  OP EN  MO LC     AS  OP
                OPENM       OL CA        SO  PE NM  OL CA     SOP EN
                OP EN      MO   LC       AS  OP ENMOL  CASO   PENMOL
                OP  EN     MO   LC       AS  OP EN     MO     LC ASO
               OP   E  NMOL  C  AS       OP  EN MO     LC     AS  OP
               OP  E   NMO   LC AS        OPEN  MO     LCASOP EN   M
               O  PEN   MO  LCA  SO
            OPE   NMO   L   CAS    OP
        OPENMOL  CASOP     ENMOL   CASOPE
     OPENMOLCA   SOPENMOLCASOPEN   MOLCASOPE
    OPENMOLCAS   OP           EN   MOL    CAS
    OPENMOLCAS       OP  ENM        O     LCA
    OPENMOLCAS    OPEN  MOLCASO     P  E  NMO
    OPENMOLCAS     OP               E  N  MOL
    OPENMOLCA   SO           PENM   O  L  CAS    OPEN    MO    LCAS
    OPENMOLCA   SOP           ENM   O  L  CAS   OP  EN  MOLC  AS   O
    OPENMOLCA   SOPE           NM      O  LCA   S      OP  EN MO
    OPENMOLC                AS         O  PEN   M      OL  CA  SOPE
    OPENMO        LCASOPE  NMOL        C  ASO   P      ENMOLC     AS
    OPE     NMO      LCA  SO     P     E   NM   OL  CA SO  PE N   MO
          OPENMOLCA            SOPE   NMO        LCAS  O    P  ENMO
     OPENMOLCASOPENMOLCASOPENMOLCASOPENMOLCA
        OPENMOLCASOPENMOLCASOPENMOLCASOPE
            OPENMOLCASOPENMOLCASOPENM
               OPENMOLCASOPENMOLCA        version: 44d3b5344-dirty
                   OPENMOLCASO
                       OPE                tag:

 OpenMolcas is free software; you can redistribute it and/or modify it
 under the terms of the GNU Lesser General Public License version 2.1.
 OpenMolcas is distributed in the hope that it will be useful, but it
 is provided "as is" and without any express or implied warranties.
 For more details see the full text of the license in the file
 LICENSE or in <http://www.gnu.org/licenses/>.

                 Copyright (C) The OpenMolcas Authors
           For the author list and the recommended citation,
                   consult the file CONTRIBUTORS.md

           *************************************************
           * pymolcas version py2.28                       *
           *   build c4a6d18ded8cb6cad61d2372a9abd97c      *
           *   (after the EMIL interpreter by V. Veryazov) *
           *************************************************

configuration info
------------------
C Compiler ID: GNU
C flags: -std=gnu99
Fortran Compiler ID: Intel
Fortran flags: -fpp -i8 -r8 -heap-arrays
Definitions: _MOLCAS_;_I8_;_LINUX_
Parallel: OFF (GA=OFF)


   ------------------------------------------------------------------------------------------------------------
  |
  |              Project: H10_1.01
  |       Submitted from: /home/grierjones/DDCASPT2/hydrogen_comps/minimal_2e_2o/chains/even/H10_chain/H10_1.01
  |         Scratch area: /tmp/H10_1.01
  |      Save outputs to: /home/grierjones/DDCASPT2/hydrogen_comps/minimal_2e_2o/chains/even/H10_chain/H10_1.01
  |               Molcas: /home/grierjones/Test/build
  |
  | Scratch area is empty
  |
  |       MOLCAS_DRIVER = /usr/local/pymolcas
  | MOLCAS_KEEP_WORKDIR = NO
  |  MOLCAS_NEW_WORKDIR = YES
  |       MOLCAS_NPROCS = 1
  |       MOLCAS_SOURCE = /home/grierjones/Test/build
  |    MOLCAS_STRUCTURE = 0
  |
   ------------------------------------------------------------------------------------------------------------

++ ---------   Input file   ---------

&GATEWAY
coord=H10_1.01.xyz
Basis = ANO-RCC-VDZP
Group = nosymm
Expert
End of Input

&SEWARD
End of Input

&MOTRA
Frozen=0

>>> COPY $WorkDir/GMJ_one_int_indx.csv $CurrDir/H10_1.01.GMJ_one_int_indx.csv

>>> COPY $WorkDir/GMJ_one_int.csv $CurrDir/H10_1.01.GMJ_one_int.csv

>>> COPY $WorkDir/GMJ_two_int_indx.csv $CurrDir/H10_1.01.GMJ_two_int_indx.csv

>>> COPY $WorkDir/GMJ_two_int.csv $CurrDir/H10_1.01.GMJ_two_int.csv

&SCF

>>> COPY $WorkDir/H10_1.01.scf.h5 $CurrDir/

&RASSCF
Title= RASSCF
FileOrb
/home/grierjones/DDCASPT2/hydrogen_comps/minimal_2e_2o/chains/even/H10_chain/H10_0.99/H10_0.99.RasOrb

NACTEL
10 0 0
Inactive
0
RAS2
10
Symmetry
1
Spin
1
orblisting
all
ITERation
200 100
CIMX
200
SDAV
500

>>> COPY $WorkDir/H10_1.01.rasscf.h5 $CurrDir/

>>> COPY $WorkDir/GMJ_Fock_MO.csv $CurrDir/H10_1.01.GMJ_Fock_MO.csv

&CASPT2
Frozen
0
Imaginary Shift
0.0

>>> FOREACH i IN (B,E,F,G,H)

  >>> FOREACH j IN (P,M)

    >>> IF (-FILE GMJ_e2_${i}_${j}.csv)

      >>> COPY $WorkDir/GMJ_RHS_${i}_${j}.csv $CurrDir/GMJ_RHS_${i}_${j}.csv

      >>> COPY $WorkDir/GMJ_IVECW_${i}_${j}.csv $CurrDir/GMJ_IVECW_${i}_${j}.csv

      >>> COPY $WorkDir/GMJ_e2_${i}_${j}.csv $CurrDir/GMJ_e2_${i}_${j}.csv

    >>> END IF

  >>> END FOREACH

>>> END FOREACH

>>> FOREACH i IN (A,C,D)

  >>> IF (-FILE GMJ_e2_$i.csv)

    >>> COPY $WorkDir/GMJ_RHS_$i.csv $CurrDir/GMJ_RHS_$i.csv

    >>> COPY $WorkDir/GMJ_IVECW_$i.csv $CurrDir/GMJ_IVECW_$i.csv

    >>> COPY $WorkDir/GMJ_e2_$i.csv $CurrDir/GMJ_e2_$i.csv

  >>> END IF

>>> END FOREACH

-- ----------------------------------

--- Start Module: gateway at Fri Aug  9 15:41:57 2024 ---
 
()()()()()()()()()()()()()()()()()()()()()()()()()()()()()()()()()()()()()()()()()()()()()()()()()()

                                              &GATEWAY

                                   only a single process is used
                       available to each process: 2.0 GB of memory, 1 thread?
()()()()()()()()()()()()()()()()()()()()()()()()()()()()()()()()()()()()()()()()()()()()()()()()()()
 
 ###############################################################################
 ###############################################################################
 ###                                                                         ###
 ###                                                                         ###
 ###                                                                         ###
 ###    WARNING: EXPERT option is ON!                                        ###
 ###                                                                         ###
 ###                                                                         ###
 ###############################################################################
 ###############################################################################
 
++    Symmetry information:
      ---------------------
 
                    Character Table for C1 
 
                             E  
                    a        1  x, y, xy, Rz, z, xz, Ry, yz, Rx, I
--
 
 
++    Basis set information:
      ----------------------
 
 
      Basis set label: H.ANO-RCC...2S1P.
 
      Electronic valence basis set:
      ------------------
      Associated Effective Charge   1.000000 au
      Associated Actual Charge      1.000000 au
      Nuclear Model: Point charge
 
      Shell  nPrim  nBasis  Cartesian Spherical Contaminant
         s       8       2        X                  
         p       4       1        X                  
--
 
 
++    Molecular structure info:
      -------------------------
 
                    ************************************************ 
                    **** Cartesian Coordinates / Bohr, Angstrom **** 
                    ************************************************ 
 
     Center  Label                x              y              z                     x              y              z
        1      H1               0.000000       0.000000       0.000000              0.000000       0.000000       0.000000
        2      H2               0.000000       0.000000       1.912631              0.000000       0.000000       1.012121
        3      H3               0.000000       0.000000       3.825263              0.000000       0.000000       2.024242
        4      H4               0.000000       0.000000       5.737896              0.000000       0.000000       3.036364
        5      H5               0.000000       0.000000       7.650528              0.000000       0.000000       4.048485
        6      H6               0.000000       0.000000       9.563159              0.000000       0.000000       5.060606
        7      H7               0.000000       0.000000      11.475791              0.000000       0.000000       6.072727
        8      H8               0.000000       0.000000      13.388422              0.000000       0.000000       7.084848
        9      H9               0.000000       0.000000      15.301056              0.000000       0.000000       8.096970
       10      H10              0.000000       0.000000      17.213687              0.000000       0.000000       9.109091
 
                    *************************************** 
                    *    InterNuclear Distances / Bohr    * 
                    *************************************** 
 
               1 H1            2 H2            3 H3            4 H4            5 H5            6 H6    
    1 H1       0.000000
    2 H2       1.912631        0.000000
    3 H3       3.825263        1.912631        0.000000
    4 H4       5.737896        3.825265        1.912633        0.000000
    5 H5       7.650528        5.737896        3.825265        1.912631        0.000000
    6 H6       9.563159        7.650528        5.737896        3.825263        1.912631        0.000000
    7 H7      11.475791        9.563159        7.650528        5.737894        3.825263        1.912631
    8 H8      13.388422       11.475791        9.563159        7.650526        5.737894        3.825263
    9 H9      15.301056       13.388424       11.475793        9.563159        7.650528        5.737896
   10 H10     17.213687       15.301056       13.388424       11.475791        9.563159        7.650528
 
               7 H7            8 H8            9 H9           10 H10   
    7 H7       0.000000
    8 H8       1.912631        0.000000
    9 H9       3.825265        1.912633        0.000000
   10 H10      5.737896        3.825265        1.912631        0.000000
 
                    ******************************************* 
                    *    InterNuclear Distances / Angstrom    * 
                    ******************************************* 
 
               1 H1            2 H2            3 H3            4 H4            5 H5            6 H6    
    1 H1       0.000000
    2 H2       1.012121        0.000000
    3 H3       2.024242        1.012121        0.000000
    4 H4       3.036364        2.024243        1.012122        0.000000
    5 H5       4.048485        3.036364        2.024243        1.012121        0.000000
    6 H6       5.060606        4.048485        3.036364        2.024242        1.012121        0.000000
    7 H7       6.072727        5.060606        4.048485        3.036363        2.024242        1.012121
    8 H8       7.084848        6.072727        5.060606        4.048484        3.036363        2.024242
    9 H9       8.096970        7.084849        6.072728        5.060606        4.048485        3.036364
   10 H10      9.109091        8.096970        7.084849        6.072727        5.060606        4.048485
 
               7 H7            8 H8            9 H9           10 H10   
    7 H7       0.000000
    8 H8       1.012121        0.000000
    9 H9       2.024243        1.012122        0.000000
   10 H10      3.036364        2.024243        1.012121        0.000000
 
                    ************************************** 
                    *    Valence Bond Angles / Degree    * 
                    ************************************** 
                          Atom centers                 Phi
                      1 H1       2 H2       3 H3       180.00
                      2 H2       3 H3       4 H4       180.00
                      3 H3       4 H4       5 H5       180.00
                      4 H4       5 H5       6 H6       180.00
                      5 H5       6 H6       7 H7       180.00
                      6 H6       7 H7       8 H8       180.00
                      7 H7       8 H8       9 H9       180.00
                      8 H8       9 H9      10 H10      180.00
--
 
 
            Nuclear Potential Energy             10.08541281 au
 
 ###############################################################################
 ###############################################################################
 ###                                                                         ###
 ###                                                                         ###
 ###    There were warnings during the execution                             ###
 ###    Please, check the output with care!                                  ###
 ###                                                                         ###
 ###                                                                         ###
 ###############################################################################
 ###############################################################################
--- Stop Module: gateway at Fri Aug  9 15:41:57 2024 /rc=_RC_ALL_IS_WELL_ ---
*** files: xmldump
    saved to directory /home/grierjones/DDCASPT2/hydrogen_comps/minimal_2e_2o/chains/even/H10_chain/H10_1.01

--- Start Module: seward at Fri Aug  9 15:41:57 2024 ---
 
()()()()()()()()()()()()()()()()()()()()()()()()()()()()()()()()()()()()()()()()()()()()()()()()()()

                                              &SEWARD

                                   only a single process is used
                       available to each process: 2.0 GB of memory, 1 thread?
()()()()()()()()()()()()()()()()()()()()()()()()()()()()()()()()()()()()()()()()()()()()()()()()()()
 
 ###############################################################################
 ###############################################################################
 ###                                                                         ###
 ###                                                                         ###
 ###                                                                         ###
 ###    WARNING: EXPERT option is ON!                                        ###
 ###                                                                         ###
 ###                                                                         ###
 ###############################################################################
 ###############################################################################
               SEWARD will generate:
                  Multipole Moment integrals up to order  2
                  Kinetic Energy integrals
                  Nuclear Attraction integrals (point charge)
                  One-Electron Hamiltonian integrals
                  Velocity integrals
                  Relativistic Douglas-Kroll-Hess integrals:
                    - Parametrization         : EXP
                    - DKH order of Hamiltonian: 2
                    - DKH order of Properties : 0
                         - multipole moment operators
                         - electric potential operators
                         - contact operators
                  Atomic mean-field integrals
                  Two-Electron Repulsion integrals
 
                   Integrals are discarded if absolute value <: 0.10E-13
                   Integral cutoff threshold is set to       <: 0.10E-15
 
            Nuclear Potential Energy             10.08541281 au
 
 
      Basis set specifications :
      Symmetry species         a  
      Basis functions           50
 
 
  Input file to MOLDEN was generated!
 
 ###############################################################################
 ###############################################################################
 ###                                                                         ###
 ###                                                                         ###
 ###    There were warnings during the execution                             ###
 ###    Please, check the output with care!                                  ###
 ###                                                                         ###
 ###                                                                         ###
 ###############################################################################
 ###############################################################################
--- Stop Module: seward at Fri Aug  9 15:41:58 2024 /rc=_RC_ALL_IS_WELL_ ---
*** files: H10_1.01.GssOrb H10_1.01.guessorb.h5 H10_1.01.guessorb.molden xmldump
    saved to directory /home/grierjones/DDCASPT2/hydrogen_comps/minimal_2e_2o/chains/even/H10_chain/H10_1.01

*** symbolic link created: INPORB -> H10_1.01.GssOrb
--- Start Module: motra at Fri Aug  9 15:41:58 2024 ---
 
()()()()()()()()()()()()()()()()()()()()()()()()()()()()()()()()()()()()()()()()()()()()()()()()()()

                                               &MOTRA

                                   only a single process is used
                       available to each process: 2.0 GB of memory, 1 thread?
()()()()()()()()()()()()()()()()()()()()()()()()()()()()()()()()()()()()()()()()()()()()()()()()()()
 
 
      *** WARNING: Default frozen orbitals is overwritten by user input.
      *** Default values:   0
 
      Header of the integral files:
      
       Integrals generated by seward 4.2.0  , Fri Aug  9 15:41:57 2024
 
 
      Header of MO coefficients source file:
      *Guess orbitals                                                                 
 
 
      Cartesian coordinates in Angstrom:
      -----------------------------------------------------
      No.  Label        X            Y            Z        
      -----------------------------------------------------
       1   H1         0.00000000   0.00000000   0.00000000
       2   H2         0.00000000   0.00000000   1.01212100
       3   H3         0.00000000   0.00000000   2.02424200
       4   H4         0.00000000   0.00000000   3.03636400
       5   H5         0.00000000   0.00000000   4.04848500
       6   H6         0.00000000   0.00000000   5.06060600
       7   H7         0.00000000   0.00000000   6.07272700
       8   H8         0.00000000   0.00000000   7.08484800
       9   H9         0.00000000   0.00000000   8.09697000
      10   H10        0.00000000   0.00000000   9.10909100
      -----------------------------------------------------
      Nuclear repulsion energy =   10.08541281
 
      Orbital specifications:
      -----------------------
 
      Symmetry species:              1
      Number of basis functions:    50
      Frozen orbitals:               0
      Deleted orbitals:              0
      Number of orbitals used:      50

       SYMMETRY  BASIS FUNCTIONS       ORBITALS      INTEGRALS   CPU(SEC)  I/O(SEC)
 
        1 1 1 1   50  50  50  50    50  50  50  50      813450       0.00      0.00

       TOTAL CPU TIME(SEC)    8.63TOTAL I/O TIME(SEC)   13.91
 
--- Stop Module: motra at Fri Aug  9 15:42:12 2024 /rc=_RC_ALL_IS_WELL_ ---
*** files: xmldump
    saved to directory /home/grierjones/DDCASPT2/hydrogen_comps/minimal_2e_2o/chains/even/H10_chain/H10_1.01
--- Module motra spent 13 seconds ---

>>> COPY /tmp/H10_1.01/GMJ_one_int_indx.csv /home/grierjones/DDCASPT2/hydrogen_comps/minimal_2e_2o/chains/even/H10_chain/H10_1.01/H10_1.01.GMJ_one_int_indx.csv

>>> COPY /tmp/H10_1.01/GMJ_one_int.csv /home/grierjones/DDCASPT2/hydrogen_comps/minimal_2e_2o/chains/even/H10_chain/H10_1.01/H10_1.01.GMJ_one_int.csv

>>> COPY /tmp/H10_1.01/GMJ_two_int_indx.csv /home/grierjones/DDCASPT2/hydrogen_comps/minimal_2e_2o/chains/even/H10_chain/H10_1.01/H10_1.01.GMJ_two_int_indx.csv

>>> COPY /tmp/H10_1.01/GMJ_two_int.csv /home/grierjones/DDCASPT2/hydrogen_comps/minimal_2e_2o/chains/even/H10_chain/H10_1.01/H10_1.01.GMJ_two_int.csv

*** symbolic link created: INPORB -> H10_1.01.GssOrb
--- Start Module: scf at Fri Aug  9 15:42:12 2024 ---
 
()()()()()()()()()()()()()()()()()()()()()()()()()()()()()()()()()()()()()()()()()()()()()()()()()()

                                                &SCF

                                   only a single process is used
                       available to each process: 2.0 GB of memory, 1 thread?
()()()()()()()()()()()()()()()()()()()()()()()()()()()()()()()()()()()()()()()()()()()()()()()()()()
 
++    Input section:
      --------------
 
      Header of the integral files:
      
       Integrals generated by seward 4.2.0  , Fri Aug  9 15:41:57 2024
 
 
      Cartesian coordinates in Angstrom:
      -----------------------------------------------------
      No.  Label        X            Y            Z        
      -----------------------------------------------------
       1   H1         0.00000000   0.00000000   0.00000000
       2   H2         0.00000000   0.00000000   1.01212100
       3   H3         0.00000000   0.00000000   2.02424200
       4   H4         0.00000000   0.00000000   3.03636400
       5   H5         0.00000000   0.00000000   4.04848500
       6   H6         0.00000000   0.00000000   5.06060600
       7   H7         0.00000000   0.00000000   6.07272700
       8   H8         0.00000000   0.00000000   7.08484800
       9   H9         0.00000000   0.00000000   8.09697000
      10   H10        0.00000000   0.00000000   9.10909100
      -----------------------------------------------------
      Nuclear repulsion energy =   10.08541281
--
 
++    Orbital specifications:
      -----------------------
 
      Symmetry species               1
                                     a
      Frozen orbitals                0
      Occupied orbitals              5
      Secondary orbitals            45
      Deleted orbitals               0
      Total number of orbitals      50
      Number of basis functions     50
--
 
      Molecular charge                           0.000
 
++    Optimization specifications:
      ----------------------------
 
      SCF Algorithm: Conventional
      Minimized density differences are used
      Number of density matrices in core                5
      Maximum number of NDDO SCF iterations           400
      Maximum number of HF SCF iterations             400
      Threshold for SCF energy change            0.10E-08
      Threshold for density matrix               0.10E-03
      Threshold for Fock matrix                  0.15E-03
      Threshold for linear dependence            0.10E-08
      Threshold at which DIIS is turned on       0.15E+00
      Threshold at which QNR/C2DIIS is turned on 0.75E-01
      Threshold for Norm(delta) (QNR/C2DIIS)     0.20E-04
      DIIS extrapolation of the SCF procedure
      All orbitals punched on: SCFORB
--
 
      Input vectors read from INPORB
      Orbital file label: *Guess orbitals
 
 
++ Convergence information
                                   SCF        iterations: Energy and convergence statistics
 
Iter     Tot. SCF        One-elec.       Two-elec.     Energy      Max Dij or  Max Fij      DNorm      TNorm      AccCon     Time
         Energy          Energy          Energy        Change      Delta Norm                                                in Sec.
   1    -5.268012940   -25.017395129     9.663969375   0.00E+00    0.19E+00*   0.17E+00*    0.41E+01   0.18E+02   None         0.
   2    -5.375415034   -25.359976693     9.899148845  -0.11E+00*   0.71E-01*   0.19E-01*    0.18E+01   0.18E+02   EDIIS        0.
   3    -5.380067528   -25.334716094     9.869235752  -0.47E-02*   0.21E-01*   0.50E-02*    0.38E+00   0.18E+02   EDIIS        0.
   4    -5.380608382   -25.341515963     9.875494767  -0.54E-03*   0.79E-02*   0.35E-02*    0.11E+00   0.18E+02   c2DIIS       0.
   5    -5.380736770   -25.341009462     9.874859878  -0.13E-03*   0.17E-02*   0.59E-03*    0.21E-01   0.18E+02   QNRc2DIIS    0.
   6    -5.380741770   -25.341397805     9.875243221  -0.50E-05*   0.14E-02*   0.23E-03*    0.23E-02   0.18E+02   QNRc2DIIS    0.
   7    -5.380743085   -25.341241881     9.875085982  -0.13E-05*   0.50E-04*   0.22E-04     0.40E-03   0.18E+02   QNRc2DIIS    0.
   8    -5.380743089   -25.341240590     9.875084687  -0.48E-08*   0.12E-04    0.52E-05     0.75E-04   0.18E+02   QNRc2DIIS    0.
   9    -5.380743090   -25.341244491     9.875088587  -0.21E-09    0.34E-06    0.14E-06     0.78E-05   0.18E+02   QNRc2DIIS    0.
 
       Convergence after  9 Macro Iterations
--
 
 *****************************************************************************************************************************
 *                                                                                                                           *
 *                                             SCF/KS-DFT Program, Final results                                             *
 *                                                                                                                           *
 *                                                                                                                           *
 *                                                                                                                           *
 *                                                       Final Results                                                       *
 *                                                                                                                           *
 *****************************************************************************************************************************
 
::    Total SCF energy                                 -5.3807430897
      One-electron energy                             -25.3412444906
      Two-electron energy                               9.8750885871
      Nuclear repulsion energy                         10.0854128138
      Kinetic energy (interpolated)                     5.0185821763
      Virial theorem                                    1.0721639899
      Total spin, S(S+1)                                0.0000000000
      Total spin, S                                     0.0000000000
      Max non-diagonal density matrix element           0.0000003871
      Max non-diagonal Fock matrix element              0.0000000085
 
 
      All orbitals with orbital energies smaller than  E(LUMO)+0.5 are printed
 
++    Molecular orbitals:
      -------------------
 
      Title: SCF orbitals

      Molecular orbitals for symmetry species 1: a  
 
          Orbital            1         2         3         4         5         6         7         8         9        10    
          Energy           -0.7205   -0.6703   -0.5885   -0.4761   -0.3402    0.0119    0.1434    0.2068    0.2272    0.3373
          Occ. No.          2.0000    2.0000    2.0000    2.0000    2.0000    0.0000    0.0000    0.0000    0.0000    0.0000
 
        1 H1     1s         0.0921   -0.1836    0.2623   -0.3291    0.3550   -0.6539    0.8808   -0.4628   -0.3890   -1.1010
        2 H1     2s         0.0072   -0.0078    0.0003   -0.0066    0.0489   -0.3390    0.6950   -0.1880   -0.6322   -0.7544
        3 H1     2px        0.0000   -0.0000    0.0000    0.0000   -0.0000    0.0000    0.0000    0.0000   -0.0000    0.0000
        4 H1     2py        0.0000   -0.0000    0.0000   -0.0000    0.0000   -0.0000    0.0000    0.0000   -0.0000    0.0000
        5 H1     2pz        0.0090   -0.0166    0.0185   -0.0140    0.0070   -0.0008    0.0006   -0.0167   -0.0022   -0.0263
        6 H2     1s         0.1222   -0.2365    0.3179   -0.3411    0.2300    0.3607   -1.0460    0.3148    0.8747    1.4499
        7 H2     2s        -0.0272    0.0381   -0.0126   -0.0552    0.0837    0.1613   -0.5199    0.3334    0.3442    1.1455
        8 H2     2px       -0.0000    0.0000   -0.0000   -0.0000    0.0000   -0.0000    0.0000   -0.0000   -0.0000   -0.0000
        9 H2     2py        0.0000   -0.0000   -0.0000   -0.0000    0.0000   -0.0000    0.0000    0.0000   -0.0000    0.0000
       10 H2     2pz        0.0056   -0.0064   -0.0057    0.0238   -0.0300    0.0174    0.0185   -0.0243   -0.0549   -0.0696
       11 H3     1s         0.2278   -0.2866    0.1222    0.2048   -0.4622    0.5508    0.0383   -0.0082   -0.7039   -0.9202
       12 H3     2s        -0.0099    0.0303   -0.0365    0.0545   -0.1147    0.1996    0.1229    0.1890   -0.5877   -0.2757
       13 H3     2px       -0.0000    0.0000    0.0000   -0.0000    0.0000   -0.0000   -0.0000   -0.0000    0.0000   -0.0000
       14 H3     2py       -0.0000    0.0000   -0.0000    0.0000    0.0000   -0.0000    0.0000    0.0000    0.0000    0.0000
       15 H3     2pz        0.0069   -0.0006   -0.0195    0.0284   -0.0152   -0.0191    0.0310   -0.0363   -0.0302   -0.0089
       16 H4     1s         0.2497   -0.2555   -0.0222    0.3321   -0.3317   -0.3772    0.5762   -0.4078    0.2320    0.0536
       17 H4     2s        -0.0310    0.0048    0.0357    0.0113   -0.0895   -0.1328    0.2977    0.0469    0.0396    0.3002
       18 H4     2px        0.0000   -0.0000    0.0000    0.0000   -0.0000    0.0000   -0.0000   -0.0000    0.0000   -0.0000
       19 H4     2py        0.0000   -0.0000    0.0000    0.0000   -0.0000   -0.0000    0.0000    0.0000    0.0000    0.0000
       20 H4     2pz        0.0015    0.0116   -0.0237    0.0013    0.0271   -0.0292    0.0051   -0.0179   -0.0226    0.0699
       21 H5     1s         0.2898   -0.0445   -0.3064    0.1236    0.4216   -0.5510   -0.3858    0.0872    0.4262    0.7856
       22 H5     2s        -0.0248    0.0319    0.0010   -0.0158    0.1061   -0.2251   -0.1444    0.3140    0.1592    0.5117
       23 H5     2px        0.0000   -0.0000   -0.0000   -0.0000   -0.0000   -0.0000   -0.0000   -0.0000    0.0000   -0.0000
       24 H5     2py       -0.0000    0.0000   -0.0000    0.0000    0.0000   -0.0000    0.0000    0.0000   -0.0000    0.0000
       25 H5     2pz        0.0030    0.0154   -0.0120   -0.0225    0.0228    0.0231   -0.0201    0.0036   -0.0524    0.0670
       26 H6     1s         0.2898    0.0445   -0.3064   -0.1236    0.4216    0.5510   -0.3858    0.0872   -0.4262   -0.7856
       27 H6     2s        -0.0248   -0.0319    0.0010    0.0158    0.1061    0.2251   -0.1444    0.3140   -0.1592   -0.5117
       28 H6     2px        0.0000    0.0000    0.0000   -0.0000    0.0000    0.0000   -0.0000   -0.0000   -0.0000   -0.0000
       29 H6     2py       -0.0000   -0.0000    0.0000    0.0000   -0.0000   -0.0000    0.0000   -0.0000    0.0000   -0.0000
       30 H6     2pz       -0.0030    0.0154    0.0120   -0.0225   -0.0228    0.0231    0.0201   -0.0036   -0.0524    0.0670
       31 H7     1s         0.2497    0.2555   -0.0222   -0.3321   -0.3317    0.3772    0.5762   -0.4078   -0.2320   -0.0536
       32 H7     2s        -0.0310   -0.0048    0.0357   -0.0113   -0.0895    0.1328    0.2977    0.0469   -0.0396   -0.3002
       33 H7     2px       -0.0000    0.0000    0.0000    0.0000    0.0000   -0.0000   -0.0000    0.0000    0.0000    0.0000
       34 H7     2py        0.0000    0.0000    0.0000   -0.0000   -0.0000    0.0000   -0.0000   -0.0000   -0.0000    0.0000
       35 H7     2pz       -0.0015    0.0116    0.0237    0.0013   -0.0271   -0.0292   -0.0051    0.0179   -0.0226    0.0699
       36 H8     1s         0.2278    0.2866    0.1222   -0.2048   -0.4622   -0.5508    0.0383   -0.0082    0.7039    0.9202
       37 H8     2s        -0.0099   -0.0303   -0.0365   -0.0545   -0.1147   -0.1996    0.1229    0.1890    0.5877    0.2757
       38 H8     2px        0.0000    0.0000   -0.0000    0.0000   -0.0000   -0.0000    0.0000   -0.0000    0.0000   -0.0000
       39 H8     2py        0.0000    0.0000    0.0000    0.0000    0.0000    0.0000   -0.0000    0.0000   -0.0000    0.0000
       40 H8     2pz       -0.0069   -0.0006    0.0195    0.0284    0.0152   -0.0191   -0.0310    0.0363   -0.0302   -0.0089
       41 H9     1s         0.1222    0.2365    0.3179    0.3411    0.2300   -0.3607   -1.0460    0.3148   -0.8747   -1.4499
       42 H9     2s        -0.0272   -0.0381   -0.0126    0.0552    0.0837   -0.1613   -0.5199    0.3334   -0.3442   -1.1455
       43 H9     2px        0.0000   -0.0000   -0.0000    0.0000    0.0000   -0.0000    0.0000   -0.0000   -0.0000    0.0000
       44 H9     2py        0.0000    0.0000    0.0000   -0.0000   -0.0000   -0.0000    0.0000   -0.0000    0.0000    0.0000
       45 H9     2pz       -0.0056   -0.0064    0.0057    0.0238    0.0300    0.0174   -0.0185    0.0243   -0.0549   -0.0696
       46 H10    1s         0.0921    0.1836    0.2623    0.3291    0.3550    0.6539    0.8808   -0.4628    0.3890    1.1010
       47 H10    2s         0.0072    0.0078    0.0003    0.0066    0.0489    0.3390    0.6950   -0.1880    0.6322    0.7544
       48 H10    2px       -0.0000    0.0000    0.0000    0.0000   -0.0000    0.0000   -0.0000    0.0000   -0.0000   -0.0000
       49 H10    2py       -0.0000   -0.0000   -0.0000   -0.0000    0.0000   -0.0000    0.0000    0.0000    0.0000    0.0000
       50 H10    2pz       -0.0090   -0.0166   -0.0185   -0.0140   -0.0070   -0.0008   -0.0006    0.0167   -0.0022   -0.0263
 
          Orbital           11    
          Energy            0.3466
          Occ. No.          0.0000
 
        1 H1     1s         0.0481
        2 H1     2s         0.5519
        3 H1     2px        0.0000
        4 H1     2py        0.0000
        5 H1     2pz        0.0345
        6 H2     1s        -0.3115
        7 H2     2s        -0.0768
        8 H2     2px        0.0000
        9 H2     2py        0.0000
       10 H2     2pz        0.1245
       11 H3     1s         0.8790
       12 H3     2s         0.5746
       13 H3     2px       -0.0000
       14 H3     2py       -0.0000
       15 H3     2pz        0.0612
       16 H4     1s        -1.0494
       17 H4     2s        -0.7609
       18 H4     2px       -0.0000
       19 H4     2py        0.0000
       20 H4     2pz        0.0698
       21 H5     1s         0.4030
       22 H5     2s        -0.0266
       23 H5     2px       -0.0000
       24 H5     2py        0.0000
       25 H5     2pz        0.0441
       26 H6     1s         0.4030
       27 H6     2s        -0.0266
       28 H6     2px       -0.0000
       29 H6     2py        0.0000
       30 H6     2pz       -0.0441
       31 H7     1s        -1.0494
       32 H7     2s        -0.7609
       33 H7     2px        0.0000
       34 H7     2py       -0.0000
       35 H7     2pz       -0.0698
       36 H8     1s         0.8790
       37 H8     2s         0.5746
       38 H8     2px        0.0000
       39 H8     2py       -0.0000
       40 H8     2pz       -0.0612
       41 H9     1s        -0.3115
       42 H9     2s        -0.0768
       43 H9     2px       -0.0000
       44 H9     2py       -0.0000
       45 H9     2pz       -0.1245
       46 H10    1s         0.0481
       47 H10    2s         0.5519
       48 H10    2px       -0.0000
       49 H10    2py        0.0000
       50 H10    2pz       -0.0345
--
 
 
++    Molecular charges:
      ------------------
 
      Mulliken charges per centre and basis function type
      ---------------------------------------------------
 
                H1      H2      H3      H4      H5      H6      H7      H8      H9      H10   
      1s       1.0034  0.9839  1.0198  0.9783  1.0008  1.0008  0.9783  1.0198  0.9839  1.0034
      2s      -0.0009 -0.0261 -0.0776 -0.0462 -0.0487 -0.0487 -0.0462 -0.0776 -0.0261 -0.0009
      2px      0.0000  0.0000  0.0000 -0.0000  0.0000  0.0000  0.0000  0.0000  0.0000  0.0000
      2pz      0.0208  0.0493  0.0483  0.0478  0.0473  0.0473  0.0478  0.0483  0.0493  0.0208
      2py      0.0000  0.0000 -0.0000  0.0000  0.0000  0.0000  0.0000  0.0000 -0.0000  0.0000
      Total    1.0233  1.0071  0.9905  0.9798  0.9993  0.9993  0.9798  0.9905  1.0071  1.0233
 
      N-E     -0.0233 -0.0071  0.0095  0.0202  0.0007  0.0007  0.0202  0.0095 -0.0071 -0.0233
 
      Total electronic charge=   10.000000
 
      Total            charge=   -0.000000
--
 
 
  Input file to MOLDEN was generated!
 
 
++    Static properties:
      ------------------
 
 
      LoProp Charges per center
 

                   H1       H2       H3       H4       H5       H6       H7       H8       H9       H10   
      Nuclear      1.0000   1.0000   1.0000   1.0000   1.0000   1.0000   1.0000   1.0000   1.0000   1.0000
      Electronic  -1.0273  -0.9892  -0.9969  -0.9907  -0.9959  -0.9959  -0.9907  -0.9969  -0.9892  -1.0273
 
      Total       -0.0273   0.0108   0.0031   0.0093   0.0041   0.0041   0.0093   0.0031   0.0108  -0.0273
--
 
 
++    Natural Bond Order analysis
      ---------------------------
      Based on LoProp computed density
      -------------------------------------------------------------------------------------
      Atom A       Atom B       Bond Order | Atom A       Atom B       Bond Order
        H1           H2             0.986  |   H5           H6             0.945
        H3           H4             0.951  |   H7           H8             0.951
        H9           H10            0.986  |
      -------------------------------------------------------------------------------------
      NBO located      9.637 electrons involved in    5 bonds.
      The remaining    0.363 electrons are to be considered as diffuse
--
 
 
++    Molecular properties:
      ---------------------
 
      Charge (e):
                      =   -0.0000
      Dipole Moment (Debye):
      Origin of the operator (Ang)=    0.0000    0.0000    0.0000
                   X=  4.4489E-14               Y= -1.8973E-13               Z=  1.4178E-06           Total=  1.4178E-06
      Quadrupole Moment (Debye*Ang):
      Origin of the operator (Ang)=    0.0000    0.0000    4.5545
                  XX= -1.1414E+01              XY= -3.9981E-28              XZ= -8.2928E-14              YY= -1.1414E+01
                  YZ=  8.4865E-13              ZZ= -1.3403E+01
      In traceless form (Debye*Ang)
                  XX=  9.9411E-01              XY= -5.9972E-28              XZ= -1.2439E-13              YY=  9.9411E-01
                  YZ=  1.2730E-12              ZZ= -1.9882E+00
--
 
 
  Input file to MOLDEN was generated!
 
 ###############################################################################
 ###############################################################################
 ###                                                                         ###
 ###                                                                         ###
 ###    RunFile label nBas                                                   ###
 ###    was used       78 times                                              ###
 ###                                                                         ###
 ###                                                                         ###
 ###############################################################################
 ###############################################################################
--- Stop Module: scf at Fri Aug  9 15:42:12 2024 /rc=_RC_ALL_IS_WELL_ ---
*** files: H10_1.01.LprOrb H10_1.01.LoProp.molden H10_1.01.scf.molden H10_1.01.ScfOrb H10_1.01.scf.h5 xmldump
    saved to directory /home/grierjones/DDCASPT2/hydrogen_comps/minimal_2e_2o/chains/even/H10_chain/H10_1.01

>>> COPY /tmp/H10_1.01/H10_1.01.scf.h5 /home/grierjones/DDCASPT2/hydrogen_comps/minimal_2e_2o/chains/even/H10_chain/H10_1.01/

*** symbolic link created: INPORB -> H10_1.01.ScfOrb
--- Start Module: rasscf at Fri Aug  9 15:42:12 2024 ---
 
()()()()()()()()()()()()()()()()()()()()()()()()()()()()()()()()()()()()()()()()()()()()()()()()()()

                                              &RASSCF

                                   only a single process is used
                       available to each process: 2.0 GB of memory, 1 thread?
()()()()()()()()()()()()()()()()()()()()()()()()()()()()()()()()()()()()()()()()()()()()()()()()()()
 
 
      Header of the ONEINT file:
      --------------------------
      
      Integrals generated by seward 4.2.0  , Fri Aug  9 15:41:57 2024
 
 
      OrdInt status: non-squared
 
 
      Cartesian coordinates in Angstrom:
      -----------------------------------------------------
      No.  Label        X            Y            Z        
      -----------------------------------------------------
       1   H1         0.00000000   0.00000000   0.00000000
       2   H2         0.00000000   0.00000000   1.01212100
       3   H3         0.00000000   0.00000000   2.02424200
       4   H4         0.00000000   0.00000000   3.03636400
       5   H5         0.00000000   0.00000000   4.04848500
       6   H6         0.00000000   0.00000000   5.06060600
       7   H7         0.00000000   0.00000000   6.07272700
       8   H8         0.00000000   0.00000000   7.08484800
       9   H9         0.00000000   0.00000000   8.09697000
      10   H10        0.00000000   0.00000000   9.10909100
      -----------------------------------------------------
      Nuclear repulsion energy =   10.08541281
 
++    Wave function specifications:
      -----------------------------
 
      Number of closed shell electrons           0
      Number of electrons in active shells      10
      Max number of holes in RAS1 space          0
      Max nr of electrons in RAS3 space          0
      Number of inactive orbitals                0
      Number of active orbitals                 10
      Number of secondary orbitals              40
      Spin quantum number                      0.0
      State symmetry                             1
--
 
++    Orbital specifications:
      -----------------------
 
      Symmetry species                           1
                                                 a
      Frozen orbitals                            0
      Inactive orbitals                          0
      Active orbitals                           10
      RAS1 orbitals                              0
      RAS2 orbitals                             10
      RAS3 orbitals                              0
      Secondary orbitals                        40
      Deleted orbitals                           0
      Number of basis functions                 50
--
 
++    CI expansion specifications:
      ----------------------------
 
      Number of CSFs                         19404
      Number of determinants                 31878
      Number of root(s) required                 1
      Root chosen for geometry opt.              1
      CI root used                               1
         
      highest root included in the CI            1
      max. size of the explicit Hamiltonian    500
--
 
++    Optimization specifications:
      ----------------------------
 
      RASSCF algorithm: Conventional
      Maximum number of macro iterations       200
      Maximum number of SX iterations          100
      Threshold for RASSCF energy            0.100E-07
      Threshold for max MO rotation          0.100E+00
      Threshold for max BLB element          0.100E-03
      Level shift parameter                  0.500E+00
      Make Quasi-Newton update
--
 
      The MO-coefficients are taken from the file:
      /home/grierjones/DDCASPT2/hydrogen_comps/minimal_2e_2o/chains/even/H10_chain/H10_0.99/H10_0.99.RasOrb                           
      Title: RASSCF average (pseudo-natural) orbitals                                      
 
      Total molecular charge    0.00
 
      ************************************************************************************************************************
      *                                                                                                                      *
      *                                            Wave function control section                                             *
      *                                                                                                                      *
      ************************************************************************************************************************
 
 
                                         RASSCF iterations: Energy and convergence statistics
                                         ----------------------------------------------------
 
      Iter CI   SX   CI       RASSCF       Energy    max ROT     max BLB   max BLB  Level Ln srch  Step   QN   Walltime
          iter iter root      energy       change     param      element    value   shift minimum  type update hh:mm:ss
 Nr of preliminary CI iterations:   5
        1   1    5    1    -5.49629878    0.00E+00   0.57E-02    1  11 1 -0.11E-01*  0.04   0.00    SX    NO    0:00:00
        2   1    5    1    -5.49659157   -0.29E-03* -0.14E-02    1  11 1 -0.26E-02*  0.04   0.00    SX    NO    0:00:00
        3   1    4    1    -5.49660378   -0.12E-04*  0.36E-03    1  11 1 -0.63E-03*  0.04   0.00    SX    NO    0:00:00
        4   6    4    1    -5.49661181   -0.80E-05*  0.27E-02    5  13 1 -0.21E-03*  0.04   0.00    SX    NO    0:00:00
        5   4    4    1    -5.49661413   -0.23E-05*  0.40E-02    7  21 1 -0.14E-03*  0.04   2.50    LS   YES    0:00:00
        6   4    4    1    -5.49661570   -0.16E-05*  0.22E-02    5  45 1 -0.19E-03*  0.04   1.21    QN   YES    0:00:00
        7   4    4    1    -5.49661632   -0.62E-06*  0.15E-02    1  11 1  0.11E-03*  0.04   1.65    LS   YES    0:00:00
        8   4    4    1    -5.49661644   -0.12E-06* -0.25E-03    3  19 1  0.61E-04   0.04   1.01    QN   YES    0:00:00
        9   3    3    1    -5.49661650   -0.56E-07*  0.15E-03    4  46 1 -0.15E-04   0.04   1.38    QN   YES    0:00:00
       10   3    3    1    -5.49661651   -0.93E-08  -0.16E-03    1  11 1 -0.68E-05   0.04   1.19    QN   YES    0:00:00
      Convergence after 10 iterations
       11   3    3    1    -5.49661651   -0.26E-08  -0.16E-03   10  21 1  0.49E-05   0.04   1.19    QN   YES    0:00:00
 
      ************************************************************************************************************************
                                                      Wave function printout:
                       occupation of active orbitals, and spin coupling of open shells (u,d: Spin up or down)
      ************************************************************************************************************************
 
      Note: transformation to natural orbitals
      has been made, which may change the order of the CSFs.
 
      printout of CI-coefficients larger than  0.05 for root  1
      energy=      -5.496617
      conf/sym  1111111111     Coeff  Weight
             1  2222200000   0.93542 0.87500
            32  2222000200  -0.05301 0.00281
            36  2222000020  -0.17023 0.02898
            50  222ud00ud0  -0.13164 0.01733
            64  22u2d0u0d0  -0.07805 0.00609
            78  2u22du00d0  -0.06936 0.00481
           107  2220200200  -0.06038 0.00365
           111  2220200020  -0.06967 0.00485
           121  22ud20ud00  -0.05424 0.00294
           257  222uu00dd0  -0.06850 0.00469
 
      Natural orbitals and occupation numbers for root  1
      sym 1:   1.988890   1.972703   1.962438   1.933433   1.883102   0.021863   0.033311   0.066363   0.133525   0.004371

 
      ************************************************************************************************************************
      *                                                                                                                      *
      *                                                    Final results                                                     *
      *                                                                                                                      *
      ************************************************************************************************************************
 
 
++    Wave function specifications:
      -----------------------------
 
      Number of closed shell electrons           0
      Number of electrons in active shells      10
      Max number of holes in RAS1 space          0
      Max nr of electrons in RAS3 space          0
      Number of inactive orbitals                0
      Number of active orbitals                 10
      Number of secondary orbitals              40
      Spin quantum number                      0.0
      State symmetry                             1
--
 
++    Orbital specifications:
      -----------------------
 
      Symmetry species                           1
                                                 a
      Frozen orbitals                            0
      Inactive orbitals                          0
      Active orbitals                           10
      RAS1 orbitals                              0
      RAS2 orbitals                             10
      RAS3 orbitals                              0
      Secondary orbitals                        40
      Deleted orbitals                           0
      Number of basis functions                 50
--
 
++    CI expansion specifications:
      ----------------------------
 
      Number of CSFs                         19404
      Number of determinants                 31878
      Number of root(s) required                 1
      CI root used                               1
      highest root included in the CI            1
      Root passed to geometry opt.               1
--
 
++    Final optimization conditions:
      ------------------------------
 
      Average CI energy                              -5.49661651
      RASSCF energy for state  1                     -5.49661651
      Super-CI energy                                -0.00000000
      RASSCF energy change                            0.00000000
      Max change in MO coefficients              -0.320E-03
      Max non-diagonal density matrix element    -0.155E-03
      Maximum BLB matrix element                  0.488E-05
      (orbital pair  10,  21 in symmetry   1)
      Norm of electronic gradient            0.130E-04
--
 
 
      Final state energy(ies):
      ------------------------
 
::    RASSCF root number  1 Total energy:     -5.49661651
 
++    Molecular orbitals:
      -------------------
 
      Pseudonatural active orbitals and approximate occupation numbers
 
 
 
 
      Molecular orbitals for symmetry species 1: a  
 
 
      Orbital                1         2         3         4         5         6         7         8         9        10
      Energy            0.0000    0.0000    0.0000    0.0000    0.0000    0.0000    0.0000    0.0000    0.0000    0.0000
      Occ. No.          1.9889    1.9727    1.9624    1.9334    1.8831    0.0219    0.0333    0.0664    0.1335    0.0044
 
    1 H1     1s         0.0462    0.1631    0.2500   -0.3420    0.3890    0.5521   -0.6662   -0.5806   -0.4583    0.0001
    2 H1     2s         0.0116    0.0070   -0.0024   -0.0024    0.0406    0.0863   -0.0474    0.0206    0.0234    0.0000
    3 H1     2px        0.0000   -0.0000   -0.0000    0.0000   -0.0000    0.0000    0.0000    0.0000   -0.0000    0.0001
    4 H1     2py        0.0000   -0.0000   -0.0000    0.0000   -0.0000    0.0000    0.0000    0.0000   -0.0000    0.0010
    5 H1     2pz        0.0029    0.0135    0.0169   -0.0117    0.0048    0.0002    0.0026    0.0048    0.0029    0.0000
    6 H2     1s         0.0451    0.2172    0.3191   -0.3362    0.2301   -1.0456    1.0718    0.5583    0.1388   -0.0002
    7 H2     2s        -0.0103   -0.0432   -0.0364   -0.0306    0.0654   -0.2621    0.2071    0.0309   -0.0530   -0.0001
    8 H2     2px        0.0000   -0.0000   -0.0000   -0.0000    0.0000    0.0000   -0.0000    0.0000    0.0000   -0.0001
    9 H2     2py        0.0000   -0.0000   -0.0000   -0.0000    0.0000    0.0000   -0.0000    0.0000    0.0000   -0.0014
   10 H2     2pz        0.0036    0.0093    0.0017    0.0197   -0.0295    0.0217   -0.0005    0.0309    0.0386    0.0000
   11 H3     1s         0.1175    0.2987    0.2377    0.1522   -0.4574    1.2497   -0.8858    0.1390    0.5556    0.0003
   12 H3     2s        -0.0147   -0.0293   -0.0246    0.0357   -0.0988    0.3148   -0.2442   -0.0277    0.0691    0.0001
   13 H3     2px       -0.0000    0.0000    0.0000   -0.0000    0.0000   -0.0000   -0.0000   -0.0000    0.0000   -0.0004
   14 H3     2py       -0.0000    0.0000    0.0000   -0.0000    0.0000   -0.0000   -0.0000   -0.0000    0.0000   -0.0080
   15 H3     2pz        0.0101    0.0015   -0.0155    0.0277   -0.0162    0.0275   -0.0487   -0.0370   -0.0111   -0.0000
   16 H4     1s         0.2106    0.2687    0.0688    0.3257   -0.3329   -1.0738    0.2667   -0.6604   -0.4493   -0.0004
   17 H4     2s        -0.0491   -0.0113    0.0238    0.0091   -0.0677   -0.3368    0.1258   -0.1259   -0.0836   -0.0001
   18 H4     2px       -0.0000   -0.0000   -0.0000   -0.0000    0.0000    0.0000   -0.0000    0.0000    0.0000   -0.0023
   19 H4     2py       -0.0000   -0.0000   -0.0000   -0.0000    0.0000    0.0000   -0.0000    0.0000    0.0000   -0.0456
   20 H4     2pz        0.0133   -0.0084   -0.0225    0.0047    0.0220   -0.0389    0.0521    0.0023   -0.0360    0.0000
   21 H5     1s         0.4149    0.0722   -0.2205    0.1369    0.3442    0.4247    0.3105    0.3684   -0.2273    0.0004
   22 H5     2s        -0.0112   -0.0225   -0.0099   -0.0106    0.0964    0.1874   -0.0003    0.1138    0.0391    0.0001
   23 H5     2px        0.0000   -0.0000   -0.0000    0.0000    0.0000    0.0000    0.0000    0.0000   -0.0000    0.0308
   24 H5     2py        0.0000   -0.0000   -0.0000    0.0000    0.0000    0.0000    0.0000    0.0000   -0.0000    0.5978
   25 H5     2pz        0.0083   -0.0169   -0.0119   -0.0232    0.0215    0.0514   -0.0244    0.0422    0.0309    0.0000
   26 H6     1s         0.4149   -0.0722   -0.2205   -0.1369    0.3442    0.4247   -0.3105    0.3684    0.2273   -0.0004
   27 H6     2s        -0.0112    0.0225   -0.0099    0.0106    0.0964    0.1874    0.0003    0.1138   -0.0391   -0.0001
   28 H6     2px       -0.0000   -0.0000    0.0000    0.0000   -0.0000   -0.0000    0.0000   -0.0000   -0.0000    0.0308
   29 H6     2py       -0.0000   -0.0000    0.0000    0.0000   -0.0000   -0.0000    0.0000   -0.0000   -0.0000    0.5978
   30 H6     2pz       -0.0083   -0.0169    0.0119   -0.0232   -0.0215   -0.0514   -0.0244   -0.0422    0.0309    0.0000
   31 H7     1s         0.2106   -0.2687    0.0688   -0.3257   -0.3329   -1.0738   -0.2667   -0.6604    0.4492    0.0004
   32 H7     2s        -0.0491    0.0113    0.0238   -0.0091   -0.0677   -0.3368   -0.1258   -0.1259    0.0836    0.0001
   33 H7     2px        0.0000   -0.0000    0.0000   -0.0000   -0.0000   -0.0000   -0.0000   -0.0000    0.0000   -0.0023
   34 H7     2py        0.0000   -0.0000    0.0000   -0.0000   -0.0000   -0.0000   -0.0000   -0.0000    0.0000   -0.0456
   35 H7     2pz       -0.0133   -0.0084    0.0225    0.0047   -0.0220    0.0389    0.0521   -0.0023   -0.0360    0.0000
   36 H8     1s         0.1175   -0.2987    0.2377   -0.1522   -0.4574    1.2497    0.8858    0.1390   -0.5556   -0.0003
   37 H8     2s        -0.0147    0.0293   -0.0246   -0.0357   -0.0988    0.3148    0.2442   -0.0277   -0.0691   -0.0001
   38 H8     2px        0.0000    0.0000   -0.0000   -0.0000   -0.0000    0.0000   -0.0000    0.0000    0.0000   -0.0004
   39 H8     2py        0.0000    0.0000   -0.0000   -0.0000   -0.0000    0.0000   -0.0000    0.0000    0.0000   -0.0080
   40 H8     2pz       -0.0101    0.0015    0.0155    0.0277    0.0162   -0.0275   -0.0487    0.0370   -0.0111   -0.0000
   41 H9     1s         0.0451   -0.2172    0.3191    0.3362    0.2301   -1.0456   -1.0718    0.5583   -0.1388    0.0002
   42 H9     2s        -0.0103    0.0432   -0.0364    0.0306    0.0654   -0.2621   -0.2071    0.0309    0.0530    0.0001
   43 H9     2px       -0.0000   -0.0000    0.0000   -0.0000   -0.0000   -0.0000   -0.0000   -0.0000    0.0000   -0.0001
   44 H9     2py       -0.0000   -0.0000    0.0000   -0.0000   -0.0000   -0.0000   -0.0000   -0.0000    0.0000   -0.0014
   45 H9     2pz       -0.0036    0.0093   -0.0017    0.0197    0.0295   -0.0217   -0.0005   -0.0309    0.0386    0.0000
   46 H10    1s         0.0462   -0.1631    0.2500    0.3420    0.3890    0.5521    0.6662   -0.5806    0.4583   -0.0001
   47 H10    2s         0.0116   -0.0070   -0.0024    0.0024    0.0406    0.0863    0.0474    0.0206   -0.0234   -0.0000
   48 H10    2px       -0.0000   -0.0000    0.0000    0.0000    0.0000   -0.0000    0.0000   -0.0000   -0.0000    0.0001
   49 H10    2py       -0.0000   -0.0000    0.0000    0.0000    0.0000   -0.0000    0.0000   -0.0000   -0.0000    0.0010
   50 H10    2pz       -0.0029    0.0135   -0.0169   -0.0117   -0.0048   -0.0002    0.0026   -0.0048    0.0029    0.0000
 
 
      Orbital               11        12        13        14        15        16        17        18        19        20
      Energy            0.1992    0.2472    0.3280    0.4543    0.5361    0.5975    0.5975    0.6276    0.6757    0.6991
      Occ. No.          0.0000    0.0000    0.0000    0.0000    0.0000    0.0000    0.0000    0.0000    0.0000    0.0000
 
    1 H1     1s        -0.0902   -0.0156   -0.2964    0.8326   -0.0000   -0.0000    0.0000   -0.0000   -1.1982   -0.0000
    2 H1     2s         0.1368   -0.4106   -0.7449    1.1115   -0.0000   -0.0000    0.0000    0.0000   -1.2971   -0.0000
    3 H1     2px       -0.0000    0.0000   -0.0000   -0.0000    0.0938   -0.1904   -0.0098    0.0124   -0.0000    0.2876
    4 H1     2py       -0.0000    0.0000   -0.0000   -0.0000   -0.0048    0.0098   -0.1904    0.2410   -0.0000   -0.0148
    5 H1     2pz       -0.0094   -0.0068   -0.0512    0.0982    0.0000   -0.0000   -0.0000    0.0000   -0.1274   -0.0000
    6 H2     1s        -0.0670    0.1948    0.2812   -0.7405    0.0000    0.0000   -0.0000    0.0002    1.1829    0.0000
    7 H2     2s         0.1354   -0.1223    0.0578   -0.7061    0.0000    0.0000   -0.0000    0.0001    1.4139    0.0000
    8 H2     2px       -0.0000    0.0000   -0.0000   -0.0000    0.1592   -0.2794   -0.0144    0.0169   -0.0000    0.3189
    9 H2     2py       -0.0000    0.0000   -0.0000   -0.0000   -0.0082    0.0144   -0.2794    0.3275   -0.0000   -0.0164
   10 H2     2pz       -0.0062   -0.0432   -0.1315    0.1996    0.0000   -0.0000    0.0000    0.0000   -0.1909   -0.0000
   11 H3     1s        -0.0761   -0.1028   -0.1750    0.3597   -0.0000   -0.0000    0.0000   -0.0003    0.1813    0.0000
   12 H3     2s         0.1757   -0.3221   -0.1501   -0.0523   -0.0000    0.0000    0.0000   -0.0002    0.5109    0.0000
   13 H3     2px       -0.0000    0.0000   -0.0000   -0.0000    0.2194   -0.2971   -0.0153    0.0152   -0.0000    0.1586
   14 H3     2py       -0.0000    0.0000   -0.0000   -0.0000   -0.0113    0.0153   -0.2971    0.2961   -0.0000   -0.0082
   15 H3     2pz       -0.0167   -0.0269   -0.0810    0.0338    0.0000    0.0000   -0.0000    0.0000    0.1263    0.0000
   16 H4     1s        -0.0717    0.1823    0.1059   -0.6727    0.0000    0.0000   -0.0000    0.0004   -0.0014    0.0000
   17 H4     2s         0.1941   -0.0366    0.2699   -0.8343    0.0000    0.0000   -0.0000    0.0002    0.0549    0.0000
   18 H4     2px       -0.0000    0.0000    0.0000   -0.0000    0.2613   -0.2235   -0.0115    0.0070    0.0000   -0.1063
   19 H4     2py       -0.0000    0.0000    0.0000   -0.0000   -0.0134    0.0115   -0.2235    0.1364    0.0000    0.0055
   20 H4     2pz       -0.0077   -0.0552   -0.0843   -0.0235    0.0000    0.0000   -0.0000   -0.0000    0.1574    0.0000
   21 H5     1s        -0.1065   -0.1393    0.0131    0.5118   -0.0000    0.0000    0.0000   -0.0005   -0.3737   -0.0000
   22 H5     2s         0.1944   -0.1513    0.2919    0.1824   -0.0000   -0.0000    0.0000   -0.0003   -0.7356   -0.0000
   23 H5     2px       -0.0000    0.0000    0.0000   -0.0000    0.2829   -0.0826   -0.0042   -0.0036    0.0000   -0.3025
   24 H5     2py       -0.0000    0.0000    0.0000   -0.0000   -0.0146    0.0042   -0.0826   -0.0691    0.0000    0.0156
   25 H5     2pz       -0.0054   -0.0577   -0.0201   -0.1215    0.0000    0.0000    0.0000   -0.0000    0.1148    0.0000
   26 H6     1s        -0.1065    0.1393    0.0131   -0.5118   -0.0000   -0.0000    0.0000    0.0005   -0.3737    0.0000
   27 H6     2s         0.1944    0.1513    0.2919   -0.1824   -0.0000   -0.0000    0.0000    0.0003   -0.7356   -0.0000
   28 H6     2px        0.0000    0.0000   -0.0000   -0.0000    0.2829    0.0826    0.0042   -0.0036   -0.0000   -0.3025
   29 H6     2py        0.0000    0.0000   -0.0000   -0.0000   -0.0146   -0.0042    0.0826   -0.0691   -0.0000    0.0156
   30 H6     2pz        0.0054   -0.0577    0.0201   -0.1215    0.0000   -0.0000   -0.0000   -0.0000   -0.1148   -0.0000
   31 H7     1s        -0.0717   -0.1823    0.1059    0.6727    0.0000    0.0000   -0.0000   -0.0004   -0.0014   -0.0000
   32 H7     2s         0.1941    0.0366    0.2699    0.8343   -0.0000    0.0000   -0.0000   -0.0002    0.0549   -0.0000
   33 H7     2px        0.0000    0.0000   -0.0000   -0.0000    0.2613    0.2235    0.0115    0.0070   -0.0000   -0.1063
   34 H7     2py        0.0000    0.0000   -0.0000   -0.0000   -0.0134   -0.0115    0.2235    0.1364   -0.0000    0.0055
   35 H7     2pz        0.0077   -0.0552    0.0843   -0.0235   -0.0000   -0.0000    0.0000   -0.0000   -0.1574   -0.0000
   36 H8     1s        -0.0761    0.1028   -0.1750   -0.3597   -0.0000   -0.0000    0.0000    0.0003    0.1813    0.0000
   37 H8     2s         0.1757    0.3221   -0.1501    0.0523   -0.0000   -0.0000    0.0000    0.0002    0.5109    0.0000
   38 H8     2px        0.0000    0.0000    0.0000   -0.0000    0.2194    0.2971    0.0153    0.0152    0.0000    0.1586
   39 H8     2py        0.0000    0.0000    0.0000   -0.0000   -0.0113   -0.0153    0.2971    0.2961    0.0000   -0.0082
   40 H8     2pz        0.0167   -0.0269    0.0810    0.0338   -0.0000   -0.0000    0.0000    0.0000   -0.1263   -0.0000
   41 H9     1s        -0.0670   -0.1948    0.2812    0.7405    0.0000    0.0000   -0.0000   -0.0002    1.1829    0.0000
   42 H9     2s         0.1354    0.1223    0.0578    0.7061    0.0000    0.0000   -0.0000   -0.0001    1.4139    0.0000
   43 H9     2px        0.0000    0.0000    0.0000   -0.0000    0.1592    0.2794    0.0144    0.0169    0.0000    0.3189
   44 H9     2py        0.0000    0.0000    0.0000   -0.0000   -0.0082   -0.0144    0.2794    0.3275    0.0000   -0.0164
   45 H9     2pz        0.0062   -0.0432    0.1315    0.1996   -0.0000    0.0000   -0.0000    0.0000    0.1909    0.0000
   46 H10    1s        -0.0902    0.0156   -0.2964   -0.8326   -0.0000   -0.0000    0.0000    0.0000   -1.1982   -0.0000
   47 H10    2s         0.1368    0.4106   -0.7449   -1.1115   -0.0000   -0.0000    0.0000   -0.0000   -1.2971   -0.0000
   48 H10    2px        0.0000    0.0000    0.0000   -0.0000    0.0938    0.1904    0.0098    0.0124    0.0000    0.2876
   49 H10    2py        0.0000    0.0000    0.0000   -0.0000   -0.0048   -0.0098    0.1904    0.2410    0.0000   -0.0148
   50 H10    2pz        0.0094   -0.0068    0.0512    0.0982   -0.0000    0.0000    0.0000    0.0000    0.1274    0.0000
 
 
      Orbital               21        22        23        24        25        26        27        28        29        30
      Energy            0.8060    0.8415    0.8415    0.9540    0.9679    1.0279    1.2217    1.2648    1.2648    1.4944
      Occ. No.          0.0000    0.0000    0.0000    0.0000    0.0000    0.0000    0.0000    0.0000    0.0000    0.0000
 
    1 H1     1s        -0.7820   -0.0000    0.0000   -0.0018    1.2006    0.0000    1.3173   -0.0000   -0.0000    0.7654
    2 H1     2s        -0.4419   -0.0000    0.0000   -0.0017    1.1869    0.0000    1.0072   -0.0000   -0.0000    0.5001
    3 H1     2px       -0.0000   -0.0194   -0.3763    0.0231    0.0000    0.4450   -0.0000   -0.0251   -0.4888    0.0000
    4 H1     2py       -0.0001   -0.3763    0.0194    0.4496    0.0006   -0.0229   -0.0000   -0.4888    0.0251    0.0003
    5 H1     2pz        0.0586    0.0000   -0.0000   -0.0002    0.1386    0.0000   -0.0444   -0.0000    0.0000   -0.2756
    6 H2     1s         1.8379    0.0000   -0.0000    0.0025   -1.4586   -0.0000   -2.8627    0.0000    0.0000   -2.4250
    7 H2     2s         1.5117    0.0000   -0.0000    0.0029   -1.8487   -0.0000   -2.8772    0.0000    0.0000   -2.3970
    8 H2     2px       -0.0000   -0.0126   -0.2444    0.0074    0.0000    0.0518    0.0000    0.0116    0.2255   -0.0000
    9 H2     2py       -0.0001   -0.2444    0.0126    0.1431    0.0002   -0.0027    0.0000    0.2255   -0.0116   -0.0003
   10 H2     2pz       -0.0121   -0.0000    0.0000   -0.0001    0.0851    0.0000   -0.0244    0.0000   -0.0000   -0.0551
   11 H3     1s        -2.3025   -0.0000    0.0000    0.0004   -0.8166   -0.0000    1.8285    0.0000   -0.0000    3.0446
   12 H3     2s        -1.5466   -0.0000    0.0000    0.0003   -0.5820   -0.0000    1.8834    0.0000   -0.0000    3.1595
   13 H3     2px        0.0000    0.0072    0.1406   -0.0181   -0.0000   -0.4121    0.0000    0.0223    0.4339   -0.0000
   14 H3     2py        0.0000    0.1406   -0.0072   -0.3520   -0.0005    0.0212    0.0000    0.4339   -0.0223   -0.0001
   15 H3     2pz        0.1634    0.0000   -0.0000    0.0004   -0.2489   -0.0000   -0.3414    0.0000    0.0000   -0.2003
   16 H4     1s         2.8009    0.0000   -0.0000   -0.0021    2.1753    0.0000    1.1128   -0.0000   -0.0000   -0.2633
   17 H4     2s         1.5304    0.0000   -0.0000   -0.0022    1.9791    0.0000    1.3355   -0.0000   -0.0000   -0.5507
   18 H4     2px        0.0000    0.0191    0.3721   -0.0174   -0.0000   -0.2089   -0.0000   -0.0158   -0.3064    0.0000
   19 H4     2py        0.0001    0.3721   -0.0191   -0.3378   -0.0004    0.0107   -0.0000   -0.3063    0.0158    0.0004
   20 H4     2pz       -0.0107    0.0000   -0.0000    0.0001   -0.0962   -0.0000    0.2624   -0.0000   -0.0000    0.3654
   21 H5     1s        -3.9651   -0.0000    0.0000    0.0002   -0.9692   -0.0000   -1.2091    0.0000    0.0000   -3.1820
   22 H5     2s        -2.7039   -0.0000    0.0000   -0.0006   -0.1511   -0.0000   -1.4014    0.0000    0.0000   -2.8087
   23 H5     2px        0.0000    0.0100    0.1947    0.0072    0.0000    0.3348   -0.0000   -0.0194   -0.3768   -0.0000
   24 H5     2py        0.0001    0.1948   -0.0100    0.1404    0.0002   -0.0172   -0.0000   -0.3768    0.0194   -0.0001
   25 H5     2pz       -0.0603   -0.0000    0.0000   -0.0003    0.1855    0.0000    0.1528   -0.0000   -0.0000   -0.2010
   26 H6     1s         3.9651   -0.0000   -0.0000   -0.0002    0.9692    0.0000   -1.2091    0.0000    0.0000    3.1820
   27 H6     2s         2.7039   -0.0000   -0.0000    0.0006    0.1511    0.0000   -1.4014    0.0000    0.0000    2.8087
   28 H6     2px        0.0000   -0.0100   -0.1947    0.0072    0.0000    0.3348    0.0000    0.0194    0.3768   -0.0000
   29 H6     2py        0.0001   -0.1948    0.0100    0.1404    0.0002   -0.0172    0.0000    0.3768   -0.0194   -0.0001
   30 H6     2pz       -0.0603    0.0000    0.0000   -0.0003    0.1855    0.0000   -0.1528    0.0000    0.0000   -0.2010
   31 H7     1s        -2.8009    0.0000    0.0000    0.0021   -2.1753   -0.0000    1.1128   -0.0000   -0.0000    0.2633
   32 H7     2s        -1.5305    0.0000    0.0000    0.0022   -1.9791   -0.0000    1.3355   -0.0000   -0.0000    0.5507
   33 H7     2px        0.0000   -0.0191   -0.3721   -0.0174   -0.0000   -0.2089    0.0000    0.0158    0.3064    0.0000
   34 H7     2py        0.0001   -0.3721    0.0191   -0.3378   -0.0004    0.0107    0.0000    0.3063   -0.0158    0.0004
   35 H7     2pz       -0.0107   -0.0000    0.0000    0.0001   -0.0962   -0.0000   -0.2624    0.0000    0.0000    0.3654
   36 H8     1s         2.3025   -0.0000   -0.0000   -0.0004    0.8166    0.0000    1.8285    0.0000   -0.0000   -3.0446
   37 H8     2s         1.5466   -0.0000   -0.0000   -0.0003    0.5820    0.0000    1.8834    0.0000   -0.0000   -3.1595
   38 H8     2px        0.0000   -0.0072   -0.1406   -0.0181   -0.0000   -0.4121   -0.0000   -0.0223   -0.4339   -0.0000
   39 H8     2py        0.0000   -0.1406    0.0072   -0.3520   -0.0005    0.0212   -0.0000   -0.4339    0.0223   -0.0001
   40 H8     2pz        0.1634   -0.0000   -0.0000    0.0004   -0.2489   -0.0000    0.3414   -0.0000   -0.0000   -0.2003
   41 H9     1s        -1.8379    0.0000    0.0000   -0.0025    1.4586    0.0000   -2.8627    0.0000    0.0000    2.4250
   42 H9     2s        -1.5118    0.0000    0.0000   -0.0029    1.8487    0.0000   -2.8772    0.0000    0.0000    2.3970
   43 H9     2px       -0.0000    0.0126    0.2444    0.0074    0.0000    0.0518   -0.0000   -0.0116   -0.2255   -0.0000
   44 H9     2py       -0.0001    0.2444   -0.0126    0.1431    0.0002   -0.0027   -0.0000   -0.2255    0.0116   -0.0003
   45 H9     2pz       -0.0121    0.0000   -0.0000   -0.0001    0.0851    0.0000    0.0244   -0.0000    0.0000   -0.0551
   46 H10    1s         0.7820   -0.0000   -0.0000    0.0018   -1.2006   -0.0000    1.3173   -0.0000   -0.0000   -0.7654
   47 H10    2s         0.4419   -0.0000   -0.0000    0.0017   -1.1869   -0.0000    1.0072   -0.0000   -0.0000   -0.5001
   48 H10    2px       -0.0000    0.0194    0.3763    0.0231    0.0000    0.4450    0.0000    0.0251    0.4888    0.0000
   49 H10    2py       -0.0001    0.3763   -0.0194    0.4496    0.0006   -0.0229    0.0000    0.4888   -0.0251    0.0003
   50 H10    2pz        0.0586   -0.0000   -0.0000   -0.0002    0.1386    0.0000    0.0444    0.0000   -0.0000   -0.2756
 
 
      Orbital               31        32        33        34        35        36        37        38        39        40
      Energy            1.5048    1.5161    1.5495    1.7391    1.8493    1.8815    1.8815    2.0982    2.2183    2.2316
      Occ. No.          0.0000    0.0000    0.0000    0.0000    0.0000    0.0000    0.0000    0.0000    0.0000    0.0000
 
    1 H1     1s        -0.0005   -0.6316    0.0000    1.4136   -0.4010    0.0000   -0.0000   -1.8139   -0.0001    0.0000
    2 H1     2s        -0.0004   -0.7307    0.0000    1.2477   -0.3207    0.0000   -0.0000   -1.3684   -0.0000    0.0000
    3 H1     2px        0.0267    0.0000    0.4979    0.0000   -0.0000   -0.0236   -0.4589    0.0000    0.0192    0.3617
    4 H1     2py        0.5191    0.0000   -0.0256    0.0000   -0.0000   -0.4589    0.0236    0.0000    0.3722   -0.0186
    5 H1     2pz        0.0001   -0.5358    0.0000    0.6983    0.2651   -0.0000    0.0000   -0.7628   -0.0000    0.0000
    6 H2     1s         0.0016    0.8959   -0.0000   -3.3259    1.9042   -0.0000    0.0000    4.8746    0.0002   -0.0000
    7 H2     2s         0.0016    0.9022   -0.0000   -2.8017    1.9618   -0.0000    0.0000    3.7218    0.0002   -0.0000
    8 H2     2px       -0.0253   -0.0000   -0.5109   -0.0000    0.0000    0.0362    0.7044   -0.0000   -0.0369   -0.7009
    9 H2     2py       -0.4908   -0.0000    0.0263   -0.0000    0.0000    0.7045   -0.0362   -0.0000   -0.7165    0.0361
   10 H2     2pz        0.0000    0.1788   -0.0000   -0.3253    0.1739   -0.0000    0.0000    0.3115    0.0000    0.0000
   11 H3     1s        -0.0018    0.4975    0.0000    3.0287   -3.9920    0.0000   -0.0000   -6.2789   -0.0003    0.0000
   12 H3     2s        -0.0019    0.3975    0.0000    2.4921   -3.9082    0.0000   -0.0000   -5.0024   -0.0003    0.0000
   13 H3     2px       -0.0092   -0.0000   -0.1044    0.0000   -0.0000   -0.0223   -0.4334    0.0000    0.0417    0.8043
   14 H3     2py       -0.1793   -0.0000    0.0054    0.0000   -0.0000   -0.4333    0.0223    0.0000    0.8107   -0.0414
   15 H3     2pz        0.0001   -0.1800   -0.0000    0.1701   -0.2132    0.0000   -0.0000   -0.0328   -0.0000    0.0000
   16 H4     1s        -0.0002   -1.5744    0.0000   -0.9689    4.1547   -0.0000    0.0000    5.2869    0.0004   -0.0000
   17 H4     2s         0.0001   -1.5326    0.0000   -0.3750    4.0392   -0.0000    0.0000    4.2000    0.0003   -0.0000
   18 H4     2px        0.0308    0.0000    0.5869    0.0000   -0.0000   -0.0082   -0.1599   -0.0000   -0.0313   -0.6299
   19 H4     2py        0.5992    0.0000   -0.0302    0.0000   -0.0000   -0.1599    0.0082   -0.0000   -0.6088    0.0324
   20 H4     2pz       -0.0002    0.2501    0.0000    0.0348    0.1872   -0.0000    0.0000   -0.3899    0.0000    0.0000
   21 H5     1s         0.0025    0.8873   -0.0000   -1.0131   -1.7759    0.0000   -0.0000   -2.0394   -0.0005    0.0000
   22 H5     2s         0.0021    0.8636   -0.0000   -1.5489   -1.7160    0.0000   -0.0000   -1.6337   -0.0004    0.0000
   23 H5     2px       -0.0103    0.0000   -0.3352   -0.0000    0.0000    0.0326    0.6339   -0.0000    0.0089    0.2373
   24 H5     2py       -0.2008    0.0000    0.0172   -0.0000    0.0000    0.6339   -0.0326   -0.0000    0.1736   -0.0122
   25 H5     2pz        0.0001   -0.4118    0.0000   -0.0357   -0.1004    0.0000   -0.0000    0.6191    0.0000    0.0000
   26 H6     1s        -0.0025    0.8873    0.0000    1.0131   -1.7759    0.0000   -0.0000   -2.0394    0.0005   -0.0000
   27 H6     2s        -0.0021    0.8637    0.0000    1.5489   -1.7160    0.0000   -0.0000   -1.6337    0.0004   -0.0000
   28 H6     2px       -0.0103   -0.0000   -0.3352   -0.0000   -0.0000   -0.0326   -0.6339    0.0000    0.0089    0.2373
   29 H6     2py       -0.2008   -0.0000    0.0172   -0.0000   -0.0000   -0.6339    0.0326    0.0000    0.1736   -0.0122
   30 H6     2pz        0.0001    0.4118   -0.0000   -0.0357    0.1004   -0.0000    0.0000   -0.6191    0.0000   -0.0000
   31 H7     1s         0.0002   -1.5744    0.0000    0.9689    4.1547   -0.0000    0.0000    5.2869   -0.0004    0.0000
   32 H7     2s        -0.0001   -1.5326    0.0000    0.3750    4.0392   -0.0000    0.0000    4.2000   -0.0003    0.0000
   33 H7     2px        0.0308   -0.0000    0.5869    0.0000    0.0000    0.0082    0.1598    0.0000   -0.0313   -0.6299
   34 H7     2py        0.5992   -0.0000   -0.0302    0.0000    0.0000    0.1599   -0.0082    0.0000   -0.6088    0.0324
   35 H7     2pz       -0.0002   -0.2501    0.0000    0.0348   -0.1872    0.0000   -0.0000    0.3899    0.0000    0.0000
   36 H8     1s         0.0018    0.4975   -0.0000   -3.0287   -3.9920    0.0000   -0.0000   -6.2789    0.0003   -0.0000
   37 H8     2s         0.0019    0.3974   -0.0000   -2.4921   -3.9082    0.0000   -0.0000   -5.0024    0.0003   -0.0000
   38 H8     2px       -0.0092    0.0000   -0.1044    0.0000    0.0000    0.0223    0.4334   -0.0000    0.0417    0.8043
   39 H8     2py       -0.1793    0.0000    0.0054    0.0000    0.0000    0.4333   -0.0223   -0.0000    0.8107   -0.0414
   40 H8     2pz        0.0001    0.1800   -0.0000    0.1701    0.2132   -0.0000    0.0000    0.0328   -0.0000   -0.0000
   41 H9     1s        -0.0016    0.8959    0.0000    3.3259    1.9042   -0.0000    0.0000    4.8746   -0.0002    0.0000
   42 H9     2s        -0.0016    0.9023    0.0000    2.8017    1.9618   -0.0000    0.0000    3.7218   -0.0002    0.0000
   43 H9     2px       -0.0253    0.0000   -0.5109   -0.0000   -0.0000   -0.0362   -0.7044    0.0000   -0.0369   -0.7009
   44 H9     2py       -0.4908    0.0000    0.0263   -0.0000   -0.0000   -0.7045    0.0362    0.0000   -0.7165    0.0361
   45 H9     2pz        0.0000   -0.1788    0.0000   -0.3253   -0.1739    0.0000   -0.0000   -0.3115    0.0000   -0.0000
   46 H10    1s         0.0005   -0.6317   -0.0000   -1.4136   -0.4010    0.0000   -0.0000   -1.8139    0.0001   -0.0000
   47 H10    2s         0.0004   -0.7307   -0.0000   -1.2477   -0.3208    0.0000   -0.0000   -1.3684    0.0000   -0.0000
   48 H10    2px        0.0267   -0.0000    0.4979    0.0000    0.0000    0.0236    0.4589   -0.0000    0.0192    0.3617
   49 H10    2py        0.5191   -0.0000   -0.0256    0.0000    0.0000    0.4589   -0.0236   -0.0000    0.3722   -0.0186
   50 H10    2pz        0.0001    0.5357   -0.0000    0.6983   -0.2651    0.0000   -0.0000    0.7628   -0.0000    0.0000
 
 
      Orbital               41        42        43        44        45        46        47        48        49        50
      Energy            2.3735    2.4945    2.5240    2.5240    2.7873    3.2335    3.7213    4.2598    4.8918    5.6228
      Occ. No.          0.0000    0.0000    0.0000    0.0000    0.0000    0.0000    0.0000    0.0000    0.0000    0.0000
 
    1 H1     1s        -0.9773    1.4232   -0.0000    0.0000   -1.3437    1.3068   -1.1770    0.9946   -0.8151    0.5336
    2 H1     2s        -0.5244    1.0248   -0.0000    0.0000   -0.6171    0.4642   -0.2949    0.1465   -0.0682    0.0443
    3 H1     2px        0.0000    0.0000   -0.0104   -0.2024   -0.0000   -0.0000   -0.0000    0.0000    0.0000   -0.0000
    4 H1     2py        0.0000    0.0000   -0.2024    0.0104   -0.0000   -0.0000   -0.0000    0.0000    0.0000   -0.0000
    5 H1     2pz       -0.6901    0.4486    0.0000    0.0000   -0.7651    0.7156   -0.6353    0.5321   -0.4230    0.2660
    6 H2     1s         1.5090   -4.3320    0.0000   -0.0000    2.0187   -1.1839    0.2049    0.4916   -0.7755    0.5846
    7 H2     2s         0.5502   -3.3691    0.0000   -0.0000    0.9280   -0.4959    0.0962    0.0665   -0.0341   -0.0263
    8 H2     2px       -0.0000   -0.0000    0.0229    0.4447    0.0000    0.0000    0.0000   -0.0000   -0.0000    0.0000
    9 H2     2py       -0.0000   -0.0000    0.4447   -0.0229    0.0000    0.0000    0.0000   -0.0000   -0.0000    0.0000
   10 H2     2pz       -0.2311   -0.2448    0.0000   -0.0000   -0.5559    0.9701   -1.3046    1.4489   -1.3634    0.9104
   11 H3     1s         0.4035    7.1135   -0.0000    0.0000    0.0051   -1.1769    1.5368   -0.7714   -0.2172    0.6037
   12 H3     2s         0.6955    5.9093   -0.0000    0.0000   -0.2381   -0.0997    0.2258   -0.0094   -0.0989    0.0831
   13 H3     2px        0.0000    0.0000   -0.0335   -0.6513   -0.0000   -0.0000   -0.0000    0.0000    0.0000   -0.0000
   14 H3     2py        0.0000    0.0000   -0.6513    0.0335   -0.0000   -0.0000   -0.0000    0.0000    0.0000   -0.0000
   15 H3     2pz        0.6063    0.1080   -0.0000    0.0000    0.7662   -0.4883   -0.2912    1.2658   -1.8938    1.5388
   16 H4     1s        -3.0739   -9.0619    0.0000   -0.0000   -1.5566    0.7154    0.8528   -1.6461    0.6938    0.2845
   17 H4     2s        -2.4281   -7.7810    0.0000   -0.0000   -0.4468    0.0304    0.2418   -0.3095    0.0831   -0.0359
   18 H4     2px       -0.0000   -0.0000    0.0412    0.8005    0.0000    0.0000    0.0000   -0.0000   -0.0000    0.0000
   19 H4     2py       -0.0000   -0.0000    0.8005   -0.0412    0.0000    0.0000    0.0000   -0.0000   -0.0000    0.0000
   20 H4     2pz       -0.7041    0.0392   -0.0000    0.0000   -0.1691   -0.7758    1.0851   -0.0748   -1.6248    2.0069
   21 H5     1s         5.0032    9.9596   -0.0000    0.0000    0.9481    1.6482   -1.3657   -0.6629    1.1571    0.1611
   22 H5     2s         3.5818    8.7561   -0.0000    0.0000    0.2981    0.6556   -0.3285   -0.0373    0.0759    0.0347
   23 H5     2px        0.0000    0.0000   -0.0452   -0.8790   -0.0000   -0.0000   -0.0000    0.0000    0.0000   -0.0000
   24 H5     2py        0.0000    0.0000   -0.8789    0.0452   -0.0000   -0.0000   -0.0000    0.0000    0.0000   -0.0000
   25 H5     2pz        0.2949   -0.0281    0.0000   -0.0000   -0.6598    0.6554    0.7624   -1.3506   -0.6311    2.2488
   26 H6     1s        -5.0032   -9.9596   -0.0000   -0.0000    0.9481   -1.6482   -1.3657    0.6629    1.1571   -0.1611
   27 H6     2s        -3.5818   -8.7561   -0.0000   -0.0000    0.2981   -0.6556   -0.3285    0.0373    0.0759   -0.0347
   28 H6     2px        0.0000    0.0000    0.0452    0.8790    0.0000   -0.0000    0.0000    0.0000   -0.0000   -0.0000
   29 H6     2py        0.0000    0.0000    0.8790   -0.0452    0.0000   -0.0000    0.0000    0.0000   -0.0000   -0.0000
   30 H6     2pz        0.2949   -0.0281   -0.0000    0.0000    0.6598    0.6554   -0.7624   -1.3506    0.6311    2.2488
   31 H7     1s         3.0739    9.0619    0.0000    0.0000   -1.5566   -0.7154    0.8528    1.6461    0.6938   -0.2845
   32 H7     2s         2.4281    7.7810    0.0000    0.0000   -0.4468   -0.0304    0.2418    0.3095    0.0831    0.0359
   33 H7     2px       -0.0000   -0.0000   -0.0412   -0.8005   -0.0000    0.0000   -0.0000   -0.0000    0.0000    0.0000
   34 H7     2py       -0.0000   -0.0000   -0.8005    0.0412   -0.0000    0.0000   -0.0000   -0.0000    0.0000    0.0000
   35 H7     2pz       -0.7041    0.0392    0.0000    0.0000    0.1691   -0.7758   -1.0851   -0.0748    1.6248    2.0069
   36 H8     1s        -0.4035   -7.1135   -0.0000   -0.0000    0.0051    1.1770    1.5368    0.7713   -0.2172   -0.6037
   37 H8     2s        -0.6955   -5.9093   -0.0000   -0.0000   -0.2381    0.0997    0.2258    0.0094   -0.0989   -0.0831
   38 H8     2px        0.0000    0.0000    0.0335    0.6513    0.0000   -0.0000    0.0000    0.0000   -0.0000   -0.0000
   39 H8     2py        0.0000    0.0000    0.6513   -0.0335    0.0000   -0.0000    0.0000    0.0000   -0.0000   -0.0000
   40 H8     2pz        0.6063    0.1080    0.0000   -0.0000   -0.7662   -0.4883    0.2912    1.2658    1.8938    1.5388
   41 H9     1s        -1.5090    4.3320    0.0000    0.0000    2.0187    1.1839    0.2049   -0.4915   -0.7755   -0.5846
   42 H9     2s        -0.5502    3.3691    0.0000    0.0000    0.9280    0.4959    0.0962   -0.0665   -0.0341    0.0263
   43 H9     2px       -0.0000   -0.0000   -0.0229   -0.4447   -0.0000    0.0000   -0.0000   -0.0000    0.0000    0.0000
   44 H9     2py       -0.0000   -0.0000   -0.4447    0.0229   -0.0000    0.0000   -0.0000   -0.0000    0.0000    0.0000
   45 H9     2pz       -0.2311   -0.2448   -0.0000   -0.0000    0.5559    0.9701    1.3046    1.4489    1.3634    0.9104
   46 H10    1s         0.9773   -1.4232   -0.0000   -0.0000   -1.3437   -1.3068   -1.1770   -0.9946   -0.8151   -0.5336
   47 H10    2s         0.5244   -1.0248   -0.0000   -0.0000   -0.6171   -0.4642   -0.2949   -0.1465   -0.0682   -0.0443
   48 H10    2px        0.0000    0.0000    0.0104    0.2024    0.0000   -0.0000    0.0000    0.0000   -0.0000   -0.0000
   49 H10    2py        0.0000    0.0000    0.2024   -0.0104    0.0000   -0.0000    0.0000    0.0000   -0.0000   -0.0000
   50 H10    2pz       -0.6901    0.4486   -0.0000    0.0000    0.7651    0.7156    0.6354    0.5321    0.4230    0.2660
--
 
      Von Neumann Entropy (Root  1) =  0.79608
 

      Mulliken population analysis for root number:  1
      -----------------------------------------------
 
 
++    Molecular charges:
      ------------------
 
      Mulliken charges per centre and basis function type
      ---------------------------------------------------
 
                H1      H2      H3      H4      H5      H6      H7      H8      H9      H10   
      1s       1.0200  0.9618  1.0171  0.9753  0.9974  0.9974  0.9753  1.0171  0.9618  1.0200
      2s      -0.0006 -0.0258 -0.0683 -0.0463 -0.0393 -0.0393 -0.0463 -0.0683 -0.0258 -0.0006
      2px      0.0000 -0.0000 -0.0000 -0.0000  0.0000  0.0000 -0.0000 -0.0000 -0.0000  0.0000
      2pz      0.0173  0.0465  0.0472  0.0458  0.0498  0.0498  0.0458  0.0472  0.0465  0.0173
      2py      0.0000 -0.0000 -0.0000 -0.0001  0.0022  0.0022 -0.0001 -0.0000 -0.0000  0.0000
      Total    1.0367  0.9825  0.9959  0.9748  1.0101  1.0101  0.9748  0.9959  0.9825  1.0367
 
      N-E     -0.0367  0.0175  0.0041  0.0252 -0.0101 -0.0101  0.0252  0.0041  0.0175 -0.0367
 
      Total electronic charge=   10.000000
 
      Total            charge=   -0.000000
--
 
 

      Expectation values of various properties for root number:  1
      -----------------------------------------------------------
 
 
++    Molecular properties:
      ---------------------
 
      Charge (e):
                      =   -0.0000
      Dipole Moment (Debye):
      Origin of the operator (Ang)=    0.0000    0.0000    0.0000
                   X= -2.8626E-13               Y= -7.0198E-12               Z=  7.4587E-07           Total=  7.4587E-07
      Quadrupole Moment (Debye*Ang):
      Origin of the operator (Ang)=    0.0000    0.0000    4.5545
                  XX= -1.1043E+01              XY= -4.3067E-04              XZ=  3.8387E-07              YY= -1.1052E+01
                  YZ=  7.4605E-06              ZZ= -1.2681E+01
      In traceless form (Debye*Ang)
                  XX=  8.2298E-01              XY= -6.4600E-04              XZ=  5.7580E-07              YY=  8.1046E-01
                  YZ=  1.1191E-05              ZZ= -1.6334E+00
--
 

      LoProp population analysis for root number:  1
      -----------------------------------------------
 
 
++    LoProp analysis:
      ----------------
 
 
 
  Input file to MOLDEN was generated!
 
 
++    Static properties:
      ------------------
 
 
      LoProp Charges per center
 

                   H1       H2       H3       H4       H5       H6       H7       H8       H9       H10   
      Nuclear      1.0000   1.0000   1.0000   1.0000   1.0000   1.0000   1.0000   1.0000   1.0000   1.0000
      Electronic  -1.0261  -0.9867  -0.9944  -0.9919  -1.0008  -1.0008  -0.9919  -0.9944  -0.9867  -1.0261
 
      Total       -0.0261   0.0133   0.0056   0.0081  -0.0008  -0.0008   0.0081   0.0056   0.0133  -0.0261
--
 
 
      Natural Bond Order analysis for root number:  1
 
++    Natural Bond Order analysis
      ---------------------------
      Based on LoProp computed density
      -------------------------------------------------------------------------------------
      Atom A       Atom B       Bond Order | Atom A       Atom B       Bond Order
        H1           H2             0.945  |   H5           H6             0.918
        H3           H4             0.905  |   H7           H8             0.905
        H9           H10            0.945  |
      -------------------------------------------------------------------------------------
      NBO located      9.235 electrons involved in    5 bonds.
      The remaining    0.765 electrons are to be considered as diffuse
--
 
--
 
 
  Input file to MOLDEN was generated!
 
      Average orbitals are written to the RASORB file
      Natural orbitals for root   1 are written to the RASORB.1 file
      Spin density orbitals for root   1 are written to the SPDORB.1 file
 
--- Stop Module: rasscf at Fri Aug  9 15:42:16 2024 /rc=_RC_ALL_IS_WELL_ ---
*** files: H10_1.01.LprOrb H10_1.01.rasscf.molden H10_1.01.LoProp.molden H10_1.01.RasOrb H10_1.01.RasOrb.1 H10_1.01.rasscf.h5 H10_1.01.SpdOrb.1 xmldump
    saved to directory /home/grierjones/DDCASPT2/hydrogen_comps/minimal_2e_2o/chains/even/H10_chain/H10_1.01
--- Module rasscf spent 3 seconds ---

>>> COPY /tmp/H10_1.01/H10_1.01.rasscf.h5 /home/grierjones/DDCASPT2/hydrogen_comps/minimal_2e_2o/chains/even/H10_chain/H10_1.01/

>>> COPY /tmp/H10_1.01/GMJ_Fock_MO.csv /home/grierjones/DDCASPT2/hydrogen_comps/minimal_2e_2o/chains/even/H10_chain/H10_1.01/H10_1.01.GMJ_Fock_MO.csv

*** symbolic link created: INPORB -> H10_1.01.RasOrb
--- Start Module: caspt2 at Fri Aug  9 15:42:16 2024 ---
 
()()()()()()()()()()()()()()()()()()()()()()()()()()()()()()()()()()()()()()()()()()()()()()()()()()

                                              &CASPT2

                                   only a single process is used
                       available to each process: 2.0 GB of memory, 1 thread?
()()()()()()()()()()()()()()()()()()()()()()()()()()()()()()()()()()()()()()()()()()()()()()()()()()
 
 Cholesky algorithm in CASPT2 =    1
 
 ###############################################################################
 ###############################################################################
 ###                                                                         ###
 ###                                                                         ###
 ###    User changed nr of frozen orbitals.                                  ###
 ###                                                                         ###
 ###                                                                         ###
 ###############################################################################
 ###############################################################################
 
++    Wave function specifications:
      -----------------------------
 
      Number of closed shell electrons           0
      Number of electrons in active shells      10
      Max number of holes in RAS1 space          0
      Max number of electrons in RAS3 space      0
      Number of inactive orbitals                0
      Number of active orbitals                 10
      Number of secondary orbitals              40
      Spin quantum number                      0.0
      State symmetry                             1
      Number of CSFs                         19404
      Number of root(s) available                1
      Root passed to geometry opt.               1
      A file JOBMIX will be created.
      This is a CASSCF or RASSCF reference function
--
 
++    Orbital specifications:
      -----------------------
 
      Symmetry species                           1
                                                 a
      Frozen orbitals                            0
      Inactive orbitals                          0
      Active orbitals                           10
      Secondary orbitals                        40
      Deleted orbitals                           0
      Number of basis functions                 50
--
 
      Type of Fock operator: STANDARD
      Type of 0-order Hamiltonian: STANDARD WITH DEFAULT IPEA
        "IP-EA" denominator shift =      0.25
      The input orbitals and the CI vector will be transformed.
 
--------------------------------------------------------------------------------
 Estimated memory requirements:
  POLY3 :                  3551880
  RHS:                      835500
  SIGMA :                   430400
  PRPCTL:                        0
 Available workspace:    230354915
 
++ CASPT2 computation for group   1
 
********************************************************************************
 Multi-State initialization phase begins for group   1
--------------------------------------------------------------------------------
********************************************************************************
 Compute H0 matrices for state    1
--------------------------------------------------------------------------------
--------------------------------------------------------------------------------
 H0 matrices have been computed.
 
********************************************************************************
  CASPT2 EQUATION SOLUTION
--------------------------------------------------------------------------------
 
  Total nr of CASPT2 parameters:
   Before reduction:      120200
   After  reduction:      119400
 
 The contributions to the second order correlation energy in atomic units.
-----------------------------------------------------------------------------------------------------------------------------
  IT.      VJTU        VJTI        ATVX        AIVX        VJAI        BVAT        BJAT        BJAI        TOTAL       RNORM  
-----------------------------------------------------------------------------------------------------------------------------
   1     0.000000    0.000000   -0.036050    0.000000    0.000000   -0.059352    0.000000    0.000000   -0.095402    0.004552
   2     0.000000    0.000000   -0.036438    0.000000    0.000000   -0.059465    0.000000    0.000000   -0.095903    0.000449
   3     0.000000    0.000000   -0.036443    0.000000    0.000000   -0.059467    0.000000    0.000000   -0.095910    0.000073
   4     0.000000    0.000000   -0.036439    0.000000    0.000000   -0.059467    0.000000    0.000000   -0.095905    0.000008
   5     0.000000    0.000000   -0.036439    0.000000    0.000000   -0.059467    0.000000    0.000000   -0.095905    0.000001
-------------------------------------------------------------------------------------------------------------------
 
  FINAL CASPT2 RESULT:
 
  Correlation energy /Case, /Symm, and sums:
 VJTU      0.00000000  0.00000000
 VJTIP     0.00000000  0.00000000
 VJTIM     0.00000000  0.00000000
 ATVX     -0.03643877 -0.03643877
 AIVX      0.00000000  0.00000000
 VJAIP     0.00000000  0.00000000
 VJAIM     0.00000000  0.00000000
 BVATP    -0.05470346 -0.05470346
 BVATM    -0.00476311 -0.00476311
 BJATP     0.00000000  0.00000000
 BJATM     0.00000000  0.00000000
 BJAIP     0.00000000  0.00000000
 BJAIM     0.00000000  0.00000000
 Summed:  -0.09590534 -0.09590534
 
      Reference energy:          -5.4966165076
      E2 (Non-variational):      -0.0959053409
      E2 (Variational):          -0.0959053411
      Total energy:              -5.5925218487
      Residual norm:              0.0000001390
      Reference weight:           0.96433
 
      Contributions to the CASPT2 correlation energy
      Active & Virtual Only:         -0.0959053409
      One Inactive Excited:           0.0000000000
      Two Inactive Excited:           0.0000000000
 
 
++ Denominators, etc.
----------------------------------------------------------------------------------------------------
 Report on small energy denominators, large coefficients, and large energy contributions.
CASE  SYMM ACTIVE-MIX  NON-ACTIVE INDICES          DENOMINATOR     RHS VALUE       COEFFICIENT     CONTRIBUTION
ATVX     1  Mu1.0020  Se1.021                       1.81416579      0.06481881     -0.03579084     -0.00231992
--
 
   (Skipping property calculation,
    use PROP keyword to activate)
--
 
  Total CASPT2 energies:
::    CASPT2 Root  1     Total energy:     -5.59252185
 
  A NEW JOBIPH FILE NAMED 'JOBMIX' IS PREPARED.
********************************************************************************
--- Stop Module: caspt2 at Fri Aug  9 15:42:18 2024 /rc=_RC_ALL_IS_WELL_ ---
*** files: xmldump
    saved to directory /home/grierjones/DDCASPT2/hydrogen_comps/minimal_2e_2o/chains/even/H10_chain/H10_1.01
--- Module caspt2 spent 2 seconds ---

>>> EXPORT i = B

>>> EXPORT j = P

>>> IF (-FILE GMJ_e2_${i}_${j}.csv)
(Skipped)

>>> END FOREACH

>>> EXPORT j = M

>>> IF (-FILE GMJ_e2_${i}_${j}.csv)
(Skipped)

>>> END FOREACH

>>> END FOREACH

>>> EXPORT i = E

>>> EXPORT j = P

>>> IF (-FILE GMJ_e2_${i}_${j}.csv)
(Skipped)

>>> END FOREACH

>>> EXPORT j = M

>>> IF (-FILE GMJ_e2_${i}_${j}.csv)
(Skipped)

>>> END FOREACH

>>> END FOREACH

>>> EXPORT i = F

>>> EXPORT j = P

>>> IF (-FILE GMJ_e2_${i}_${j}.csv)

>>> COPY /tmp/H10_1.01/GMJ_RHS_F_P.csv /home/grierjones/DDCASPT2/hydrogen_comps/minimal_2e_2o/chains/even/H10_chain/H10_1.01/GMJ_RHS_F_P.csv

>>> COPY /tmp/H10_1.01/GMJ_IVECW_F_P.csv /home/grierjones/DDCASPT2/hydrogen_comps/minimal_2e_2o/chains/even/H10_chain/H10_1.01/GMJ_IVECW_F_P.csv

>>> COPY /tmp/H10_1.01/GMJ_e2_F_P.csv /home/grierjones/DDCASPT2/hydrogen_comps/minimal_2e_2o/chains/even/H10_chain/H10_1.01/GMJ_e2_F_P.csv

>>> END FOREACH

>>> EXPORT j = M

>>> IF (-FILE GMJ_e2_${i}_${j}.csv)

>>> COPY /tmp/H10_1.01/GMJ_RHS_F_M.csv /home/grierjones/DDCASPT2/hydrogen_comps/minimal_2e_2o/chains/even/H10_chain/H10_1.01/GMJ_RHS_F_M.csv

>>> COPY /tmp/H10_1.01/GMJ_IVECW_F_M.csv /home/grierjones/DDCASPT2/hydrogen_comps/minimal_2e_2o/chains/even/H10_chain/H10_1.01/GMJ_IVECW_F_M.csv

>>> COPY /tmp/H10_1.01/GMJ_e2_F_M.csv /home/grierjones/DDCASPT2/hydrogen_comps/minimal_2e_2o/chains/even/H10_chain/H10_1.01/GMJ_e2_F_M.csv

>>> END FOREACH

>>> END FOREACH

>>> EXPORT i = G

>>> EXPORT j = P

>>> IF (-FILE GMJ_e2_${i}_${j}.csv)
(Skipped)

>>> END FOREACH

>>> EXPORT j = M

>>> IF (-FILE GMJ_e2_${i}_${j}.csv)
(Skipped)

>>> END FOREACH

>>> END FOREACH

>>> EXPORT i = H

>>> EXPORT j = P

>>> IF (-FILE GMJ_e2_${i}_${j}.csv)
(Skipped)

>>> END FOREACH

>>> EXPORT j = M

>>> IF (-FILE GMJ_e2_${i}_${j}.csv)
(Skipped)

>>> END FOREACH

>>> END FOREACH

>>> EXPORT i = A

>>> IF (-FILE GMJ_e2_$i.csv)
(Skipped)

>>> END FOREACH

>>> EXPORT i = C

>>> IF (-FILE GMJ_e2_$i.csv)

>>> COPY /tmp/H10_1.01/GMJ_RHS_C.csv /home/grierjones/DDCASPT2/hydrogen_comps/minimal_2e_2o/chains/even/H10_chain/H10_1.01/GMJ_RHS_C.csv

>>> COPY /tmp/H10_1.01/GMJ_IVECW_C.csv /home/grierjones/DDCASPT2/hydrogen_comps/minimal_2e_2o/chains/even/H10_chain/H10_1.01/GMJ_IVECW_C.csv

>>> COPY /tmp/H10_1.01/GMJ_e2_C.csv /home/grierjones/DDCASPT2/hydrogen_comps/minimal_2e_2o/chains/even/H10_chain/H10_1.01/GMJ_e2_C.csv

>>> END FOREACH

>>> EXPORT i = D

>>> IF (-FILE GMJ_e2_$i.csv)
(Skipped)

>>> END FOREACH

.########################.
.# Non-zero return code #.
.########################.

    Timing: Wall=20.96 User=15.06 System=5.75
****************************************
*** WorkDir at /tmp/H10_1.01 cleaned ***
****************************************
