[Molden Format]
[N_Atoms]
                     2
[Atoms] (AU)
B1          1      5           0.00000000      0.00000000      0.00000000
BE2         2      4           0.00000000      0.00000000      4.34637009
[Charge] (Mulliken)
 -0.111106978751084     
  0.111106978751045     
[GTO] (AU)
   1
   s  14
  3.336021700E+04  1.039699991E-04
  4.972095200E+03  5.254399956E-04
  1.125641700E+03  2.509059979E-03
  3.164913600E+02  1.031887991E-02
  1.020072600E+02  3.636632969E-02
  3.629587300E+01  1.064607991E-01
  1.397141000E+01  2.403999880E-01
  5.741156000E+00  3.748581168E-01
  2.494268000E+00  3.100066974E-01
  1.114202000E+00  7.922455933E-02
  4.215490000E-01 -4.947589958E-03
  1.696330000E-01 -7.737119935E-03
  6.853500000E-02 -1.501079987E-03
  2.398700000E-02 -1.333299989E-04
   s  14
  3.336021700E+04 -2.030000008E-05
  4.972095200E+03 -1.025700004E-04
  1.125641700E+03 -4.911300020E-04
  3.164913600E+02 -2.026570008E-03
  1.020072600E+02 -7.261010030E-03
  3.629587300E+01 -2.197722009E-02
  1.397141000E+01 -5.408428022E-02
  5.741156000E+00 -1.022402604E-01
  2.494268000E+00 -1.423595206E-01
  1.114202000E+00 -4.658690019E-02
  4.215490000E-01  3.799402916E-01
  1.696330000E-01  5.890463624E-01
  6.853500000E-02  1.749075107E-01
  2.398700000E-02 -1.142030005E-03
   p   9
  5.500000000E+01  1.229800005E-03
  1.336610100E+01  8.827380035E-03
  4.135394000E+00  3.843340015E-02
  1.481256000E+00  1.150031805E-01
  6.021360000E-01  2.733674011E-01
  2.556360000E-01  4.061972116E-01
  1.111510000E-01  3.014967912E-01
  4.764800000E-02  7.684809030E-02
  1.667700000E-02 -8.170000032E-06
 
   2
   s  14
  2.262859900E+04  8.443999941E-05
  3.372318100E+03  4.601499968E-04
  7.603504000E+02  2.285389984E-03
  2.117404800E+02  9.648129932E-03
  6.722346800E+01  3.494469975E-02
  2.337217700E+01  1.061099893E-01
  8.721373000E+00  2.458240383E-01
  3.468091000E+00  3.862428773E-01
  1.452144000E+00  3.105526078E-01
  6.086150000E-01  6.415933955E-02
  2.576860000E-01 -2.265049984E-03
  1.041760000E-01 -5.217499963E-04
  4.242700000E-02 -8.757499938E-04
  1.484900000E-02  1.242199991E-04
   s  14
  2.262859900E+04 -1.586999994E-05
  3.372318100E+03 -8.656999968E-05
  7.603504000E+02 -4.302199984E-04
  2.117404800E+02 -1.825079993E-03
  6.722346800E+01 -6.682749976E-03
  2.337217700E+01 -2.095119992E-02
  8.721373000E+00 -5.200308981E-02
  3.468091000E+00 -9.849176964E-02
  1.452144000E+00 -1.355800695E-01
  6.086150000E-01 -6.429875976E-02
  2.576860000E-01  3.125414989E-01
  1.041760000E-01  6.270468577E-01
  4.242700000E-02  2.110231492E-01
  1.484900000E-02 -4.104669985E-03
   p   9
  3.371018400E+01  1.069960000E-03
  8.057649500E+00  6.828550001E-03
  2.836471400E+00  2.119065000E-02
  1.099965700E+00  5.843696001E-02
  4.433964000E-01  2.020920800E-01
  1.822264000E-01  4.582953101E-01
  7.572410000E-02  3.691239601E-01
  3.168540000E-02  6.611471001E-02
  1.108990000E-02  1.405160000E-03
 
[MO]
Sym=     1a  
Ene=    -7.6269
Spin= Alpha
Occup=    1.00000
   1         0.99990744
   2         0.01688281
   3        -0.00000000
   4         0.00000000
   5         0.00023296
   6        -0.00010100
   7        -0.00057133
   8         0.00000000
   9        -0.00000000
  10         0.00062382
Sym=     1a  
Ene=    -7.6002
Spin= Beta
Occup=    1.00000
   1         0.99993271
   2         0.01342580
   3        -0.00000000
   4        -0.00000000
   5         0.00072468
   6        -0.00006811
   7        -0.00034985
   8         0.00000000
   9        -0.00000000
  10         0.00025283
Sym=     2a  
Ene=    -4.7394
Spin= Alpha
Occup=    1.00000
   1        -0.00009275
   2        -0.00002873
   3         0.00000000
   4         0.00000000
   5         0.00018121
   6         0.99998740
   7         0.00273098
   8        -0.00000000
   9         0.00000000
  10        -0.00085354
Sym=     2a  
Ene=    -4.7487
Spin= Beta
Occup=    1.00000
   1         0.00000148
   2         0.00063445
   3         0.00000000
   4         0.00000000
   5         0.00037290
   6         0.99996451
   7         0.00248513
   8        -0.00000000
   9        -0.00000000
  10         0.00065448
Sym=     3a  
Ene=    -0.5671
Spin= Alpha
Occup=    1.00000
   1        -0.02744765
   2         0.86446051
   3        -0.00000000
   4        -0.00000000
   5        -0.11564414
   6        -0.01371598
   7         0.21201142
   8        -0.00000000
   9         0.00000000
  10        -0.13426994
Sym=     3a  
Ene=    -0.4436
Spin= Beta
Occup=    1.00000
   1        -0.02435954
   2         0.69364360
   3         0.00000000
   4        -0.00000000
   5         0.22425354
   6        -0.02750059
   7         0.42935298
   8         0.00000000
   9        -0.00000000
  10        -0.06076899
Sym=     4a  
Ene=    -0.3319
Spin= Alpha
Occup=    1.00000
   1        -0.02535467
   2        -0.38675422
   3         0.00000000
   4         0.00000000
   5         0.56066200
   6        -0.02176031
   7         0.61154835
   8         0.00000000
   9         0.00000000
  10        -0.27047295
Sym=     4a  
Ene=    -0.3182
Spin= Beta
Occup=    1.00000
   1         0.00976599
   2        -0.39213593
   3         0.00000000
   4         0.00000000
   5        -0.07544126
   6         0.00994040
   7         0.79519662
   8         0.00000000
   9        -0.00000000
  10         0.50204747
Sym=     5a  
Ene=    -0.2890
Spin= Alpha
Occup=    1.00000
   1         0.00000000
   2         0.00000000
   3         0.42922826
   4         0.85359933
   5        -0.00000000
   6         0.00000000
   7        -0.00000000
   8         0.07014443
   9         0.13949510
  10         0.00000000
Sym=     5a  
Ene=     0.0612
Spin= Beta
Occup=    0.00000
   1         0.00000000
   2         0.00000000
   3         0.32544167
   4        -0.16364676
   5        -0.00000000
   6        -0.00000000
   7        -0.00000000
   8         0.76638819
   9        -0.38537457
  10         0.00000000
Sym=     6a  
Ene=     0.0606
Spin= Alpha
Occup=    0.00000
   1         0.00000000
   2        -0.00000000
   3         0.55504134
   4        -0.27909984
   5        -0.00000000
   6         0.00000000
   7         0.00000000
   8         0.59300521
   9        -0.29818978
  10         0.00000000
Sym=     6a  
Ene=     0.0733
Spin= Beta
Occup=    0.00000
   1         0.00000000
   2         0.00000000
   3         0.11953151
   4         0.23771039
   5        -0.00000000
   6        -0.00000000
   7        -0.00000000
   8         0.40864107
   9         0.81265791
  10         0.00000000
Sym=     7a  
Ene=     0.0719
Spin= Alpha
Occup=    0.00000
   1        -0.00687234
   2         0.11575911
   3         0.00000000
   4        -0.00000000
   5         0.48016497
   6        -0.02497822
   7        -0.78236662
   8         0.00000000
   9        -0.00000000
  10        -0.50579128
Sym=     7a  
Ene=     0.1149
Spin= Beta
Occup=    0.00000
   1         0.02912813
   2         0.70589780
   3         0.00000000
   4         0.00000000
   5        -0.51354370
   6         0.01076869
   7        -0.21728783
   8        -0.00000000
   9        -0.00000000
  10         0.60958175
Sym=     8a  
Ene=     0.1247
Spin= Alpha
Occup=    0.00000
   1         0.00000000
   2         0.00000000
   3        -0.16409111
   4        -0.32632535
   5        -0.00000000
   6         0.00000000
   7        -0.00000000
   8         0.45413936
   9         0.90313961
  10         0.00000000
Sym=     8a  
Ene=     0.1979
Spin= Beta
Occup=    0.00000
   1        -0.00000000
   2        -0.00000000
   3        -0.85393663
   4         0.42939787
   5        -0.00000000
   6         0.00000000
   7         0.00000000
   8         0.49776419
   9        -0.25029830
  10        -0.00000000
Sym=     9a  
Ene=     0.1751
Spin= Alpha
Occup=    0.00000
   1        -0.00000000
   2        -0.00000000
   3        -0.72598151
   4         0.36505627
   5        -0.00000000
   6         0.00000000
   7         0.00000000
   8         0.69531638
   9        -0.34963645
  10        -0.00000000
Sym=     9a  
Ene=     0.2387
Spin= Beta
Occup=    0.00000
   1         0.00000000
   2         0.00000000
   3        -0.44370600
   4        -0.88239097
   5         0.00000000
   6         0.00000000
   7        -0.00000000
   8         0.21017914
   9         0.41797986
  10         0.00000000
Sym=    10a  
Ene=     0.3302
Spin= Alpha
Occup=    0.00000
   1         0.06025588
   2         0.73068379
   3        -0.00000000
   4         0.00000000
   5         0.88905668
   6        -0.05816391
   7        -0.56393981
   8         0.00000000
   9        -0.00000000
  10         1.04752690
Sym=    10a  
Ene=     0.3572
Spin= Beta
Occup=    0.00000
   1         0.05904645
   2         0.55773686
   3        -0.00000000
   4         0.00000000
   5         1.01438991
   6        -0.06118271
   7        -0.69654267
   8         0.00000000
   9        -0.00000000
  10         0.90387369
