   This run of MOLCAS is using the pymolcas driver

                             OPE
                             OPE          NMOL  CASOP  ENMOLC A   SO
                 OPE        NMOLC        AS  OP EN  MO LC     AS  OP
                OPENM       OL CA        SO  PE NM  OL CA     SOP EN
                OP EN      MO   LC       AS  OP ENMOL  CASO   PENMOL
                OP  EN     MO   LC       AS  OP EN     MO     LC ASO
               OP   E  NMOL  C  AS       OP  EN MO     LC     AS  OP
               OP  E   NMO   LC AS        OPEN  MO     LCASOP EN   M
               O  PEN   MO  LCA  SO
            OPE   NMO   L   CAS    OP
        OPENMOL  CASOP     ENMOL   CASOPE
     OPENMOLCA   SOPENMOLCASOPEN   MOLCASOPE
    OPENMOLCAS   OP           EN   MOL    CAS
    OPENMOLCAS       OP  ENM        O     LCA
    OPENMOLCAS    OPEN  MOLCASO     P  E  NMO
    OPENMOLCAS     OP               E  N  MOL
    OPENMOLCA   SO           PENM   O  L  CAS    OPEN    MO    LCAS
    OPENMOLCA   SOP           ENM   O  L  CAS   OP  EN  MOLC  AS   O
    OPENMOLCA   SOPE           NM      O  LCA   S      OP  EN MO
    OPENMOLC                AS         O  PEN   M      OL  CA  SOPE
    OPENMO        LCASOPE  NMOL        C  ASO   P      ENMOLC     AS
    OPE     NMO      LCA  SO     P     E   NM   OL  CA SO  PE N   MO
          OPENMOLCA            SOPE   NMO        LCAS  O    P  ENMO
     OPENMOLCASOPENMOLCASOPENMOLCASOPENMOLCA
        OPENMOLCASOPENMOLCASOPENMOLCASOPE
            OPENMOLCASOPENMOLCASOPENM
               OPENMOLCASOPENMOLCA        version: 24.02
                   OPENMOLCASO
                       OPE                tag: 126-g611b04c8f

 OpenMolcas is free software; you can redistribute it and/or modify it
 under the terms of the GNU Lesser General Public License version 2.1.
 OpenMolcas is distributed in the hope that it will be useful, but it
 is provided "as is" and without any express or implied warranties.
 For more details see the full text of the license in the file
 LICENSE or in <http://www.gnu.org/licenses/>.

                 Copyright (C) The OpenMolcas Authors
           For the author list and the recommended citation,
                   consult the file CONTRIBUTORS.md

           *************************************************
           * pymolcas version py2.28                       *
           *   build c4a6d18ded8cb6cad61d2372a9abd97c      *
           *   (after the EMIL interpreter by V. Veryazov) *
           *************************************************

configuration info
------------------
Host name: debian (Linux)
C Compiler ID: GNU
C flags: -std=gnu99
Fortran Compiler ID: Intel
Fortran flags: -fpp -i8 -heap-arrays
Definitions: _MOLCAS_;_I8_;_LINUX_
Parallel: OFF (GA=OFF)


   -----------------------------------------------------------------
  |
  |              Project: 2.50
  |       Submitted from: /home/grierjones/DDCASPT2/delta_ML/FN/2.50
  |         Scratch area: /tmp/2.50
  |      Save outputs to: /home/grierjones/DDCASPT2/delta_ML/FN/2.50
  |               Molcas: /usr/local
  |
  | Scratch area is empty
  |
  |       MOLCAS_DRIVER = /usr/local/pymolcas
  | MOLCAS_KEEP_WORKDIR = NO
  |  MOLCAS_NEW_WORKDIR = YES
  |       MOLCAS_NPROCS = 1
  |       MOLCAS_SOURCE = /usr/local
  |    MOLCAS_STRUCTURE = 0
  |
   -----------------------------------------------------------------

++ ---------   Input file   ---------

&GATEWAY
coord=2.50.xyz
Basis = ANO-RCC-MB
Group = nosymm
End of Input

&SEWARD
End of Input

&SCF
UHF

&MBPT2
Frozen
0

&RASSCF
Title= RASSCF
FileOrb
/home/grierjones/DDCASPT2/delta_ML/FN/2.40/2.40.RasOrb

NACTEL
2 0 0
Inactive
7
RAS2
2
Symmetry
1
Spin
1
orblisting
all
ITERation
200 100
CIMX
200
SDAV
500

&CASPT2
Imaginary Shift
0.0
Frozen
0

-- ----------------------------------

--- Start Module: gateway at Thu Apr 25 13:56:32 2024 ---
 
()()()()()()()()()()()()()()()()()()()()()()()()()()()()()()()()()()()()()()()()()()()()()()()()()()

                                              &GATEWAY

                                   only a single process is used
                       available to each process: 2.0 GB of memory, 1 thread?
                                            pid: 109661
()()()()()()()()()()()()()()()()()()()()()()()()()()()()()()()()()()()()()()()()()()()()()()()()()()
 
 
++    Symmetry information:
      ---------------------
 
                    Character Table for C1 
 
                             E  
                    a        1  x, y, xy, Rz, z, xz, Ry, yz, Rx, I
--
 
 
++    Basis set information:
      ----------------------
 
 
      Basis set label: F.ANO-RCC...2S1P.
 
      Electronic valence basis set:
      ------------------
      Associated Effective Charge   9.000000 au
      Associated Actual Charge      9.000000 au
      Nuclear Model: Point charge
 
      Shell  nPrim  nBasis  Cartesian Spherical Contaminant
         s      14       2        X                  
         p       9       1        X                  
 
 
      Basis set label: N.ANO-RCC...2S1P.
 
      Electronic valence basis set:
      ------------------
      Associated Effective Charge   7.000000 au
      Associated Actual Charge      7.000000 au
      Nuclear Model: Point charge
 
      Shell  nPrim  nBasis  Cartesian Spherical Contaminant
         s      14       2        X                  
         p       9       1        X                  
--
 
 
++    Molecular structure info:
      -------------------------
 
                    ************************************************ 
                    **** Cartesian Coordinates / Bohr, Angstrom **** 
                    ************************************************ 
 
     Center  Label                x              y              z                     x              y              z
        1      F1               0.000000       0.000000       0.000000              0.000000       0.000000       0.000000
        2      N2               0.000000       0.000000       4.724315              0.000000       0.000000       2.500000
--
 
 
            Nuclear Potential Energy             13.33526571 au
 
--- Stop Module: gateway at Thu Apr 25 13:56:32 2024 /rc=_RC_ALL_IS_WELL_ ---
*** files: xmldump
    saved to directory /home/grierjones/DDCASPT2/delta_ML/FN/2.50

--- Start Module: seward at Thu Apr 25 13:56:32 2024 ---
 
()()()()()()()()()()()()()()()()()()()()()()()()()()()()()()()()()()()()()()()()()()()()()()()()()()

                                              &SEWARD

                                   only a single process is used
                       available to each process: 2.0 GB of memory, 1 thread?
                                            pid: 109664
()()()()()()()()()()()()()()()()()()()()()()()()()()()()()()()()()()()()()()()()()()()()()()()()()()
 
               SEWARD will generate:
                  Multipole Moment integrals up to order  2
                  Kinetic Energy integrals
                  Nuclear Attraction integrals (point charge)
                  One-Electron Hamiltonian integrals
                  Velocity integrals
                  Relativistic Douglas-Kroll-Hess integrals:
                    - Parametrization         : EXP
                    - DKH order of Hamiltonian: 2
                    - DKH order of Properties : 0
                         - multipole moment operators
                         - electric potential operators
                         - contact operators
                  Orbital angular momentum around ( 0.0000  0.0000  2.0046 )
                  Velocity quadrupole around ( 0.0000  0.0000  2.0046 )
                  Atomic mean-field integrals
                  Two-Electron Repulsion integrals
 
                   Integrals are discarded if absolute value <: 1.00E-14
                   Integral cutoff threshold is set to       <: 1.00E-16
 
            Nuclear Potential Energy             13.33526571 au
 
 
      Basis set specifications :
      Symmetry species         a  
      Basis functions           10
 
 
      Input file to MOLDEN was generated!
 
--- Stop Module: seward at Thu Apr 25 13:56:33 2024 /rc=_RC_ALL_IS_WELL_ ---
*** files: 2.50.GssOrb 2.50.guessorb.h5 2.50.guessorb.molden xmldump
    saved to directory /home/grierjones/DDCASPT2/delta_ML/FN/2.50

*** symbolic link created: INPORB -> 2.50.GssOrb
--- Start Module: scf at Thu Apr 25 13:56:33 2024 ---
 
()()()()()()()()()()()()()()()()()()()()()()()()()()()()()()()()()()()()()()()()()()()()()()()()()()

                                                &SCF

                                   only a single process is used
                       available to each process: 2.0 GB of memory, 1 thread?
                                            pid: 109668
()()()()()()()()()()()()()()()()()()()()()()()()()()()()()()()()()()()()()()()()()()()()()()()()()()
 
++    Input section:
      --------------
 
      Header of the integral files:
      
       Integrals generated by Gateway/Seward, Thu Apr 25 13:56:32 2024
 
 
      Cartesian coordinates in Angstrom:
      -----------------------------------------------------
      No.  Label        X            Y            Z        
      -----------------------------------------------------
       1   F1         0.00000000   0.00000000   0.00000000
       2   N2         0.00000000   0.00000000   2.50000000
      -----------------------------------------------------
      Nuclear repulsion energy =   13.33526571
--
 
++    Orbital specifications:
      -----------------------
 
      Symmetry species               1
                                     a
      Frozen orbitals                0
      Occupied orbitals alpha        8
      Occupied orbitals beta         8
      Secondary orbitals alpha       2
      Secondary orbitals beta        2
      Deleted orbitals               0
      Total number of orbitals      10
      Number of basis functions     10
--
 
      Molecular charge                           0.000
 
++    Optimization specifications:
      ----------------------------
 
      SCF Algorithm: Conventional USCF
      D(i)-D(i-1) density differences are used
      Number of density matrices in core                 5
      Maximum number of NDDO SCF iterations            400
      Maximum number of HF SCF iterations              400
      Threshold for SCF energy change             1.00E-09
      Threshold for density matrix                1.00E-04
      Threshold for Fock matrix                   1.50E-04
      Threshold for linear dependence             1.00E-09
      Threshold at which DIIS is turned on        1.50E-01
      Maximum depth in the DIIS procedure                5
      Maximum depth in the BFGS Hessian update          30
      Threshold at which QNR/C2DIIS is turned on  7.50E-02
      Threshold for Norm(delta) (QNR/C2DIIS)      1.00E-03
      All orbitals punched on: UHFORB
--
 
      Input vectors read from INPORB
      Orbital file label: *Guess orbitals
 
 
++ Convergence information
                               UHF SCF        iterations: Energy and convergence statistics
 
Iter     Tot. SCF        One-elec.       Two-elec.     Energy      Max Dij or  Max Fij      DNorm      TNorm      AccCon     Time
         Energy          Energy          Energy        Change      Delta Norm                                                in Sec.
   1  -153.506471994  -242.094993577    75.253255868   0.00E+00    9.43E-01*   9.96E-02*    5.85E+00   2.96E+01   None         0.
   2  -152.788899596  -237.368755714    71.244590403   7.18E-01*   5.88E-01*   5.76E-02*    2.56E+00   2.86E+01   EDIIS        0.
   3  -153.543815042  -240.103732118    73.224651362  -7.55E-01*   1.73E-01*   6.16E-02*    1.14E+00   2.91E+01   EDIIS        0.
   4  -153.578833677  -241.166723769    74.252624377  -3.50E-02*   2.93E-01*   4.18E-02*    3.80E-01   2.94E+01   EDIIS        0.
   5  -153.580250283  -240.416733217    73.501217220  -1.42E-03*   6.64E-02*   2.47E-02*    4.60E-01   2.92E+01   EDIIS        0.
   6  -153.587069454  -240.854473079    73.932137910  -6.82E-03*   2.69E-02*   6.62E-03*    1.39E-01   2.93E+01   c2DIIS       0.
   7  -153.587560704  -240.751793092    73.828966673  -4.91E-04*   2.94E-02*   3.75E-03*    6.74E-02   2.93E+01   QNRc2DIIS    0.
   8  -153.587623386  -240.794364906    73.871475805  -6.27E-05*   1.67E-02*   2.71E-03*    3.71E-02   2.93E+01   QNRc2DIIS    0.
   9  -153.587658419  -240.772568933    73.849644799  -3.50E-05*   2.11E-03*   1.75E-04*    2.04E-02   2.93E+01   QNRc2DIIS    0.
  10  -153.587658767  -240.771053849    73.848129368  -3.48E-07*   5.29E-05    6.38E-06     2.83E-03   2.93E+01   QNRc2DIIS    0.
  11  -153.587658767  -240.771133852    73.848209370  -2.73E-10    1.54E-05    1.86E-06     6.78E-05   2.93E+01   QNRc2DIIS    0.
 
       Convergence after  11 Macro Iterations
--
 
 *****************************************************************************************************************************
 *                                                                                                                           *
 *                                             SCF/KS-DFT Program, Final results                                             *
 *                                                                                                                           *
 *                                                                                                                           *
 *                                                                                                                           *
 *                                                       Final Results                                                       *
 *                                                                                                                           *
 *****************************************************************************************************************************
 
::    Total SCF energy                               -153.5876587671
      One-electron energy                            -240.7711338521
      Two-electron energy                              73.8482093702
      Nuclear repulsion energy                         13.3352657148
      Kinetic energy (interpolated)                   155.1857163281
      Virial theorem                                    0.9897022896
      Total spin, S(S+1)                               -0.0000000000
      Total spin, S                                    -0.0000000000
      Max non-diagonal density matrix element           0.0000087608
      Max non-diagonal Fock matrix element              0.0000011089
 
 
      All orbitals with orbital energies smaller than  E(LUMO)+0.5 are printed
 
++    Molecular orbitals:
      -------------------
 
      Title: UHF orbitals (alpha)

      Molecular orbitals for symmetry species 1: a  
 
          Orbital            1         2         3         4         5         6         7         8         9        10    
          Energy          -26.1278  -15.8442   -1.4186   -1.0709   -0.5823   -0.5402   -0.5383   -0.4149   -0.1014   -0.0367
          Occ. No.          1.0000    1.0000    1.0000    1.0000    1.0000    1.0000    1.0000    1.0000    0.0000    0.0000
 
        1 F1     1s         1.0000   -0.0000    0.0028   -0.0012    0.0000   -0.0000    0.0000    0.0019    0.0029   -0.0000
        2 F1     2s        -0.0029   -0.0002    0.9976   -0.0550   -0.0000   -0.0000    0.0000    0.0416    0.0554   -0.0000
        3 F1     2px       -0.0000    0.0000   -0.0000    0.0000   -0.1158    0.7476    0.6535   -0.0000    0.0000   -0.0323
        4 F1     2py       -0.0000   -0.0000    0.0000    0.0000    0.1306    0.6631   -0.7368    0.0000   -0.0000   -0.0287
        5 F1     2pz        0.0002   -0.0001    0.0073    0.0340    0.0000    0.0000   -0.0000   -0.8035    0.6027   -0.0000
        6 N2     1s        -0.0000    1.0000   -0.0002    0.0064   -0.0000   -0.0000    0.0000    0.0038   -0.0027    0.0000
        7 N2     2s        -0.0000   -0.0065    0.0321    0.9969   -0.0000   -0.0000    0.0000    0.0669   -0.0718    0.0000
        8 N2     2px       -0.0000   -0.0000   -0.0000   -0.0000   -0.6508    0.0154   -0.1306    0.0000    0.0000    0.7482
        9 N2     2py       -0.0000   -0.0000    0.0000   -0.0000    0.7337    0.0137    0.1472   -0.0000    0.0000    0.6636
       10 N2     2pz        0.0000   -0.0003   -0.0188    0.0194    0.0000   -0.0000    0.0000    0.5384    0.8473   -0.0000
--
 
 
      Input file to MOLDEN was generated!
 
 
++    Static properties:
      ------------------
 
 
      LoProp Charges per center
 

                   F1       N2    
      Nuclear      9.0000   7.0000
      Electronic  -9.3533  -6.6467
 
      Total       -0.3533   0.3533
--
 
 
      All orbitals with orbital energies smaller than  E(LUMO)+0.5 are printed
 
++    Molecular orbitals:
      -------------------
 
      Title: UHF orbitals (beta)

      Molecular orbitals for symmetry species 1: a  
 
          Orbital            1         2         3         4         5         6         7         8         9        10    
          Energy          -26.1278  -15.8442   -1.4186   -1.0709   -0.5823   -0.5402   -0.5383   -0.4149   -0.1014   -0.0367
          Occ. No.          1.0000    1.0000    1.0000    1.0000    1.0000    1.0000    1.0000    1.0000    0.0000    0.0000
 
        1 F1     1s         1.0000   -0.0000    0.0028   -0.0012    0.0000   -0.0000    0.0000    0.0019    0.0029   -0.0000
        2 F1     2s        -0.0029   -0.0002    0.9976   -0.0550   -0.0000   -0.0000    0.0000    0.0416    0.0554   -0.0000
        3 F1     2px       -0.0000    0.0000   -0.0000    0.0000   -0.1158    0.7476    0.6535   -0.0000    0.0000   -0.0323
        4 F1     2py       -0.0000   -0.0000    0.0000    0.0000    0.1306    0.6631   -0.7368    0.0000   -0.0000   -0.0287
        5 F1     2pz        0.0002   -0.0001    0.0073    0.0340    0.0000    0.0000   -0.0000   -0.8035    0.6027   -0.0000
        6 N2     1s        -0.0000    1.0000   -0.0002    0.0064   -0.0000   -0.0000    0.0000    0.0038   -0.0027    0.0000
        7 N2     2s        -0.0000   -0.0065    0.0321    0.9969   -0.0000   -0.0000    0.0000    0.0669   -0.0718    0.0000
        8 N2     2px       -0.0000   -0.0000   -0.0000   -0.0000   -0.6508    0.0154   -0.1306    0.0000    0.0000    0.7482
        9 N2     2py       -0.0000   -0.0000    0.0000   -0.0000    0.7337    0.0137    0.1472   -0.0000    0.0000    0.6636
       10 N2     2pz        0.0000   -0.0003   -0.0188    0.0194    0.0000   -0.0000    0.0000    0.5384    0.8473   -0.0000
--
 
 
++    Molecular charges:
      ------------------
 
      Mulliken charges per centre and basis function type
      ---------------------------------------------------
 
                            F1                      N2    
                     alpha        beta       alpha        beta
      1s           1.0000      1.0000      1.0000      1.0000
      2s           0.9993      0.9993      0.9976      0.9976
      2px          0.9995      0.9995      0.4408      0.4408
      2pz          0.6791      0.6791      0.3240      0.3240
      2py          0.9996      0.9996      0.5601      0.5601
      Total        4.6775      4.6775      3.3225      3.3225
      Total              9.3550                  6.6450
 
      Charge           -0.3550                  0.3550
 
      Total electronic charge=   16.000000
 
      Total            charge=   -0.000000
--
 
 
      Input file to MOLDEN was generated!
 
 
++    Static properties:
      ------------------
 
 
      LoProp Charges per center
 

                   F1       N2    
      Nuclear      9.0000   7.0000
      Electronic  -9.3533  -6.6467
 
      Total       -0.3533   0.3533
--
 
 
++    Natural Bond Order analysis
      ---------------------------
      Based on LoProp computed density
      -------------------------------------------------------------------------------------
      Atom A       Atom B       Bond Order
      -------------------------------------------------------------------------------------
      NBO located      1.000 non-bonded electrons on atom F1        
      NBO located      1.002 non-bonded electrons on atom F1        
      NBO located      0.999 non-bonded electrons on atom F1        
      NBO located      1.000 non-bonded electrons on atom F1        
      The remaining    4.063 electrons are to be considered as diffuse
--
 
 
++    Molecular orbitals:
      -------------------
 
      Title: Natural orbitals

      Molecular orbitals for symmetry species 1: a  
 
          Orbital            1         2         3         4         5         6         7         8         9        10    
          Energy          -26.1278  -15.8442   -1.4186   -1.0709   -0.5823   -0.5402   -0.5383   -0.4149   -0.1014   -0.0367
          Occ. No.          2.0000    2.0000    2.0000    2.0000    2.0000    2.0000    2.0000    2.0000    0.0000    0.0000
 
        1 F1     1s         1.0000   -0.0000    0.0028   -0.0012    0.0000   -0.0000    0.0000   -0.0019    0.0029   -0.0000
        2 F1     2s        -0.0029   -0.0002    0.9976   -0.0550    0.0000    0.0000    0.0000   -0.0416    0.0554   -0.0000
        3 F1     2px       -0.0000    0.0000    0.0000   -0.0000   -0.1157    0.7476    0.6535    0.0000    0.0000   -0.0323
        4 F1     2py        0.0000   -0.0000   -0.0000    0.0000    0.1306    0.6631   -0.7368   -0.0000   -0.0000   -0.0287
        5 F1     2pz        0.0002   -0.0001    0.0073    0.0340   -0.0000    0.0000   -0.0000    0.8035    0.6027   -0.0000
        6 N2     1s        -0.0000    1.0000   -0.0002    0.0064   -0.0000   -0.0000    0.0000   -0.0038   -0.0027    0.0000
        7 N2     2s        -0.0000   -0.0065    0.0321    0.9969    0.0000   -0.0000    0.0000   -0.0669   -0.0718    0.0000
        8 N2     2px       -0.0000   -0.0000    0.0000    0.0000   -0.6508    0.0155   -0.1306   -0.0000    0.0000    0.7482
        9 N2     2py       -0.0000    0.0000   -0.0000   -0.0000    0.7337    0.0136    0.1472    0.0000    0.0000    0.6636
       10 N2     2pz        0.0000   -0.0003   -0.0188    0.0194    0.0000   -0.0000    0.0000   -0.5384    0.8473   -0.0000
--
 
 
++    Molecular properties:
      ---------------------
 
      Charge (e):
                      =   -0.0000
      Dipole Moment (Debye):
      Origin of the operator (Ang)=    0.0000    0.0000    0.0000
                   X= -1.9265E-15               Y=  4.9282E-14               Z=  4.0482E+00           Total=  4.0482E+00
      Quadrupole Moment (Debye*Ang):
      Origin of the operator (Ang)=    0.0000    0.0000    1.0608
                  XX= -1.0187E+01              XY=  1.2641E+00              XZ=  7.3338E-14              YY= -1.0491E+01
                  YZ= -2.4641E-13              ZZ= -7.9887E+00
      In traceless form (Debye*Ang)
                  XX= -9.4733E-01              XY=  1.8961E+00              XZ=  1.1001E-13              YY= -1.4033E+00
                  YZ= -3.6961E-13              ZZ=  2.3507E+00
--
 
 
      Input file to MOLDEN was generated!
 
 ###############################################################################
 ###############################################################################
 ###                                                                         ###
 ###                                                                         ###
 ###    WARNING: RunFile label nBas                                          ###
 ###    was used       87 times                                              ###
 ###                                                                         ###
 ###                                                                         ###
 ###############################################################################
 ###############################################################################
--- Stop Module: scf at Thu Apr 25 13:56:33 2024 /rc=_RC_ALL_IS_WELL_ ---
*** files: 2.50.LprOrb 2.50.LoProp.molden 2.50.scf.molden 2.50.scf.h5 2.50.UhfOrb 2.50.UnaOrb xmldump
    saved to directory /home/grierjones/DDCASPT2/delta_ML/FN/2.50

*** symbolic link created: INPORB -> 2.50.UnaOrb
--- Start Module: mbpt2 at Thu Apr 25 13:56:33 2024 ---
 
()()()()()()()()()()()()()()()()()()()()()()()()()()()()()()()()()()()()()()()()()()()()()()()()()()

                                               &MBPT2

                                   only a single process is used
                       available to each process: 2.0 GB of memory, 1 thread?
                                            pid: 109672
()()()()()()()()()()()()()()()()()()()()()()()()()()()()()()()()()()()()()()()()()()()()()()()()()()
 
 
 ###############################################################################
 ###############################################################################
 ###                                                                         ###
 ###                                                                         ###
 ###    WARNING: MP2 implementation intended for RHF references only         ###
 ###                                                                         ###
 ###                                                                         ###
 ###############################################################################
 ###############################################################################
MBPT2 WARNING: Reference function according to RunFile:UHF-SCF 
I'll assume you know what you're doing and continue
 
 
WARNING!
Default frozen orbitals as non valence orbitals is overwritten by user input.
Default values:   2
 
 
      Cartesian coordinates in Angstrom:
      -----------------------------------------------------
      No.  Label        X            Y            Z        
      -----------------------------------------------------
       1   F1         0.00000000   0.00000000   0.00000000
       2   N2         0.00000000   0.00000000   2.50000000
      -----------------------------------------------------
      Nuclear repulsion energy =   13.33526571
 
      Contents of RUNFILE file:
      -------------------------
 
      Symmetry species                           1
                                                 a
      Number of basis functions                 10
      Frozen occupied orbitals                   0
      Active occupied orbitals                   8
      Active external orbitals                   2
      Deleted external orbitals                  0
 
 
      Energies of the active occupied orbitals
 
      symmetry species 1                   -26.127842    -15.844229     -1.418648     -1.070926     -0.582298
                                            -0.540175     -0.538312     -0.414929
 
 
      Energies of the active external orbitals
 
      symmetry species 1                    -0.101413     -0.036675
 
 
      ********************************************************************************************************
      *                                               Results                                                *
      ********************************************************************************************************
 
 Conventional algorithm used...

       SCF energy                           =     -153.5876587671 a.u.
       Second-order correlation energy      =       -0.1282107964 a.u.

       Total energy                         =     -153.7158695636 a.u.
       Reference weight ( Cref**2 )         =        0.84400
 
::    Total MBPT2 energy                             -153.7158695636
 
 
       Zeroth-order energy (E0)             =      -79.7394493970 a.u.
 
       Shanks-type energy S1(E)             =     -153.7160925425 a.u.
 
 


       Data processing and timing information:

       Section                                              time(sec)
                                                          CPU  Elapsed

      Input data processing                              0.03      0.03
      Transformation of integrals                        0.00      0.00
      MBPT2 calculations (BJAI)                          0.00      0.00
      Total MBPT2 calculations                           0.03      0.03
 
 
--- Stop Module: mbpt2 at Thu Apr 25 13:56:33 2024 /rc=_RC_ALL_IS_WELL_ ---
*** files: xmldump
    saved to directory /home/grierjones/DDCASPT2/delta_ML/FN/2.50

*** symbolic link created: INPORB -> 2.50.UnaOrb
--- Start Module: rasscf at Thu Apr 25 13:56:33 2024 ---
 
()()()()()()()()()()()()()()()()()()()()()()()()()()()()()()()()()()()()()()()()()()()()()()()()()()

                                              &RASSCF

                                   only a single process is used
                       available to each process: 2.0 GB of memory, 1 thread?
                                            pid: 109675
()()()()()()()()()()()()()()()()()()()()()()()()()()()()()()()()()()()()()()()()()()()()()()()()()()
 
 
      Header of the ONEINT file:
      --------------------------
      
      Integrals generated by Gateway/Seward, Thu Apr 25 13:56:32 2024
 
 
      OrdInt status: non-squared
 
 
      Cartesian coordinates in Angstrom:
      -----------------------------------------------------
      No.  Label        X            Y            Z        
      -----------------------------------------------------
       1   F1         0.00000000   0.00000000   0.00000000
       2   N2         0.00000000   0.00000000   2.50000000
      -----------------------------------------------------
      Nuclear repulsion energy =   13.33526571
 
++    Wave function specifications:
      -----------------------------
 
      Number of closed shell electrons          14
      Number of electrons in active shells       2
      Max number of holes in RAS1 space          0
      Max nr of electrons in RAS3 space          0
      Number of inactive orbitals                7
      Number of active orbitals                  2
      Number of secondary orbitals               1
      Spin quantum number                      0.0
      State symmetry                             1
--
 
++    Orbital specifications:
      -----------------------
 
      Symmetry species                           1
                                                 a
      Frozen orbitals                            0
      Inactive orbitals                          7
      Active orbitals                            2
      RAS1 orbitals                              0
      RAS2 orbitals                              2
      RAS3 orbitals                              0
      Secondary orbitals                         1
      Deleted orbitals                           0
      Number of basis functions                 10
--
 
++    CI expansion specifications:
      ----------------------------
 
      Number of CSFs                             3
      Number of determinants                     3
      Number of root(s) required                 1
      Root chosen for geometry opt.              1
      CI root used                               1
         
      highest root included in the CI            1
      max. size of the explicit Hamiltonian      3
--
 
++    Optimization specifications:
      ----------------------------
 
      RASSCF algorithm: Conventional
      Maximum number of macro iterations       200
      Maximum number of SX iterations          100
      Threshold for RASSCF energy            1.000E-08
      Threshold for max MO rotation          1.000E-01
      Threshold for max BLB element          1.000E-04
      Level shift parameter                  5.000E-01
      Make Quasi-Newton update
--
 
      The MO-coefficients are taken from the file:
      /home/grierjones/DDCASPT2/delta_ML/FN/2.40/2.40.RasOrb                                                                                                                                                                                                          
      Title: RASSCF average (pseudo-natural) orbitals                                      
 
      Total molecular charge    0.00
 
      ************************************************************************************************************************
      *                                                                                                                      *
      *                                            Wave function control section                                             *
      *                                                                                                                      *
      ************************************************************************************************************************
 
 
                                         RASSCF iterations: Energy and convergence statistics
                                         ----------------------------------------------------
 
      Iter CI   SX   CI       RASSCF       Energy    max ROT     max BLB   max BLB  Level Ln srch  Step   QN   Walltime
          iter iter root      energy       change     param      element    value   shift minimum  type update hh:mm:ss
 Nr of preliminary CI iterations:   1
        1   1    3    1  -153.62441597    0.00E+00  -2.07E-03    4  10 1 -5.47E-03*  0.39   0.00    SX    NO    0:00:00
        2   1    3    1  -153.62444644   -3.05E-05*  9.86E-04    4  10 1 -2.58E-03*  0.39   0.00    SX    NO    0:00:00
        3   1    3    1  -153.62445288   -6.44E-06*  4.79E-04    4  10 1 -1.22E-03*  0.39   0.00    SX    NO    0:00:00
        4   1    3    1  -153.62445428   -1.40E-06*  2.33E-04    4  10 1 -5.75E-04*  0.39   0.00    SX    NO    0:00:00
        5   1    3    1  -153.62445459   -3.10E-07*  2.08E-04    4  10 1 -2.72E-04*  0.39   1.89    LS   YES    0:00:00
        6   1    2    1  -153.62445468   -8.90E-08*  1.11E-05    3  10 1 -3.86E-05   0.39   1.00    QN   YES    0:00:00
        7   1    2    1  -153.62445468   -6.82E-10   7.26E-06    3  10 1 -1.52E-05   0.39   1.65    QN   YES    0:00:00
      Convergence after  7 iterations
        8   1    2    1  -153.62445468   -1.27E-10   7.26E-06    4  10 1  2.68E-07   0.39   1.65    QN   YES    0:00:00
 
      ************************************************************************************************************************
                                                      Wave function printout:
                       occupation of active orbitals, and spin coupling of open shells (u,d: Spin up or down)
      ************************************************************************************************************************
 
      Note: transformation to natural orbitals
      has been made, which may change the order of the CSFs.
 
      printout of CI-coefficients larger than  0.05 for root  1
      energy=    -153.624455
      conf/sym  11     Coeff  Weight
             2  ud   1.00000 1.00000
 
      Natural orbitals and occupation numbers for root  1
      sym 1:   1.000000   1.000000
 
      ************************************************************************************************************************
      *                                                                                                                      *
      *                                                    Final results                                                     *
      *                                                                                                                      *
      ************************************************************************************************************************
 
 
++    Wave function specifications:
      -----------------------------
 
      Number of closed shell electrons          14
      Number of electrons in active shells       2
      Max number of holes in RAS1 space          0
      Max nr of electrons in RAS3 space          0
      Number of inactive orbitals                7
      Number of active orbitals                  2
      Number of secondary orbitals               1
      Spin quantum number                      0.0
      State symmetry                             1
--
 
++    Orbital specifications:
      -----------------------
 
      Symmetry species                           1
                                                 a
      Frozen orbitals                            0
      Inactive orbitals                          7
      Active orbitals                            2
      RAS1 orbitals                              0
      RAS2 orbitals                              2
      RAS3 orbitals                              0
      Secondary orbitals                         1
      Deleted orbitals                           0
      Number of basis functions                 10
--
 
++    CI expansion specifications:
      ----------------------------
 
      Number of CSFs                             3
      Number of determinants                     3
      Number of root(s) required                 1
      CI root used                               1
      highest root included in the CI            1
      Root passed to geometry opt.               1
--
 
++    Final optimization conditions:
      ------------------------------
 
      Average CI energy                            -153.62445468
      RASSCF energy for state  1                   -153.62445468
      Super-CI energy                                -0.00000000
      RASSCF energy change                           -0.00000000
      Max change in MO coefficients               6.155E-06
      Max non-diagonal density matrix element     7.265E-06
      Maximum BLB matrix element                  2.685E-07
      (orbital pair   4,  10 in symmetry   1)
      Norm of electronic gradient            3.323E-07
--
 
 
      Final state energy(ies):
      ------------------------
 
::    RASSCF root number  1 Total energy:   -153.62445468
 
++    Molecular orbitals:
      -------------------
 
      Pseudonatural active orbitals and approximate occupation numbers
 
 
 
 
      Molecular orbitals for symmetry species 1: a  
 
 
      Orbital                 1         2         3         4         5         6         7         8         9        10
      Energy           -26.1279  -15.8440   -1.4187   -1.0708   -0.5404   -0.5404   -0.4149   -0.3084    0.0000   -0.1014
      Occ. No.           2.0000    2.0000    2.0000    2.0000    2.0000    2.0000    2.0000    1.0000    1.0000    0.0000
 
     1 F1     1s         1.0000   -0.0000   -0.0028    0.0012    0.0000   -0.0000    0.0019    0.0000    0.0000    0.0029
     2 F1     2s        -0.0029   -0.0002   -0.9976    0.0549    0.0000    0.0000    0.0416    0.0000   -0.0000    0.0554
     3 F1     2px        0.0000    0.0000    0.0000   -0.0000    0.1808    0.9830    0.0000    0.0134   -0.0381   -0.0000
     4 F1     2py       -0.0000   -0.0000   -0.0000   -0.0000   -0.9830    0.1808    0.0000   -0.0381   -0.0134    0.0000
     5 F1     2pz        0.0002   -0.0001   -0.0073   -0.0340   -0.0000    0.0000   -0.8033   -0.0000   -0.0000    0.6029
     6 N2     1s        -0.0000    1.0000    0.0002   -0.0064   -0.0000   -0.0000    0.0038    0.0000    0.0000   -0.0027
     7 N2     2s        -0.0000   -0.0065   -0.0321   -0.9969    0.0000   -0.0000    0.0669    0.0000    0.0000   -0.0718
     8 N2     2px        0.0000    0.0000   -0.0000    0.0000    0.0032    0.0174   -0.0000   -0.3310    0.9437   -0.0000
     9 N2     2py       -0.0000   -0.0000    0.0000    0.0000   -0.0174    0.0032   -0.0000    0.9437    0.3310    0.0000
    10 N2     2pz        0.0000   -0.0003    0.0188   -0.0194    0.0000   -0.0000    0.5386    0.0000    0.0000    0.8472
--
 
      Von Neumann Entropy (Root   1) =  1.00000
 

      Mulliken population analysis for root number:  1
      -----------------------------------------------
 
 
++    Molecular charges:
      ------------------
 
      Mulliken charges per centre and basis function type
      ---------------------------------------------------
 
                F1      N2    
      1s       2.0000  2.0000
      2s       1.9986  1.9953
      2px      1.9993  1.0007
      2pz      1.3576  0.6485
      2py      1.9993  1.0007
      Total    9.3548  6.6452
 
      N-E     -0.3548  0.3548
 
      Total electronic charge=   16.000000
 
      Total            charge=   -0.000000
--
 
 

      Expectation values of various properties for root number:  1
      -----------------------------------------------------------
 
 
++    Molecular properties:
      ---------------------
 
      Charge (e):
                      =   -0.0000
      Dipole Moment (Debye):
      Origin of the operator (Ang)=    0.0000    0.0000    0.0000
                   X=  4.3440E-14               Y=  5.2949E-14               Z=  4.0461E+00           Total=  4.0461E+00
      Quadrupole Moment (Debye*Ang):
      Origin of the operator (Ang)=    0.0000    0.0000    1.0608
                  XX= -1.0339E+01              XY=  1.8176E-13              XZ=  6.2961E-14              YY= -1.0339E+01
                  YZ=  1.2448E-13              ZZ= -7.9907E+00
      In traceless form (Debye*Ang)
                  XX= -1.1741E+00              XY=  2.7264E-13              XZ=  9.4441E-14              YY= -1.1741E+00
                  YZ=  1.8672E-13              ZZ=  2.3482E+00
--
 

      LoProp population analysis for root number:  1
      -----------------------------------------------
 
 
++    LoProp analysis:
      ----------------
 
 
 
      Input file to MOLDEN was generated!
 
 
++    Static properties:
      ------------------
 
 
      LoProp Charges per center
 

                   F1       N2    
      Nuclear      9.0000   7.0000
      Electronic  -9.3532  -6.6468
 
      Total       -0.3532   0.3532
--
 
 
      Natural Bond Order analysis for root number:  1
 
++    Natural Bond Order analysis
      ---------------------------
      Based on LoProp computed density
      -------------------------------------------------------------------------------------
      Atom A       Atom B       Bond Order
      -------------------------------------------------------------------------------------
      NBO located      1.000 non-bonded electrons on atom F1        
      NBO located      1.002 non-bonded electrons on atom F1        
      NBO located      1.000 non-bonded electrons on atom F1        
      NBO located      1.000 non-bonded electrons on atom F1        
      The remaining    4.062 electrons are to be considered as diffuse
--
 
--
 
 
      Input file to MOLDEN was generated!
 
      Average orbitals are written to the RASORB file
      Natural orbitals for root   1 are written to the RASORB.1 file
      Spin density orbitals for root   1 are written to the SPDORB.1 file
 
--- Stop Module: rasscf at Thu Apr 25 13:56:34 2024 /rc=_RC_ALL_IS_WELL_ ---
*** files: 2.50.LprOrb 2.50.rasscf.molden 2.50.LoProp.molden 2.50.RasOrb.1 2.50.RasOrb 2.50.rasscf.h5 2.50.SpdOrb.1 xmldump
    saved to directory /home/grierjones/DDCASPT2/delta_ML/FN/2.50

*** symbolic link created: INPORB -> 2.50.RasOrb
--- Start Module: caspt2 at Thu Apr 25 13:56:34 2024 ---
 
()()()()()()()()()()()()()()()()()()()()()()()()()()()()()()()()()()()()()()()()()()()()()()()()()()

                                              &CASPT2

                                   only a single process is used
                       available to each process: 2.0 GB of memory, 1 thread?
                                            pid: 109678
()()()()()()()()()()()()()()()()()()()()()()()()()()()()()()()()()()()()()()()()()()()()()()()()()()
 
 ###############################################################################
 ###############################################################################
 ###                                                                         ###
 ###                                                                         ###
 ###    WARNING: User changed nr of frozen orbitals.                         ###
 ###                                                                         ###
 ###                                                                         ###
 ###############################################################################
 ###############################################################################
 
++    Wave function specifications:
      -----------------------------
 
      Number of closed shell electrons          14
      Number of electrons in active shells       2
      Max number of holes in RAS1 space          0
      Max number of electrons in RAS3 space      0
      Number of inactive orbitals                7
      Number of active orbitals                  2
      Number of secondary orbitals               1
      Spin quantum number                      0.0
      State symmetry                             1
      Number of CSFs                             3
      Number of CASSCF root(s) available         1
      CASPT2 state passed to geometry opt.       1
      A file JOBMIX will be created
      This is a CASSCF or RASSCF reference function
--
 
++    Orbital specifications:
      -----------------------
 
      Symmetry species                           1
                                                 a
      Frozen orbitals                            0
      Inactive orbitals                          7
      Active orbitals                            2
      Secondary orbitals                         1
      Deleted orbitals                           0
      Number of basis functions                 10
--
 
++    CASPT2 specifications:
      ----------------------
 
      Type of calculation                        SS-CASPT2
      Fock operator                              state-specific
      IPEA shift                                 0.25
      Real shift                                 0.00
      Imaginary shift                            0.00
      The input orbitals will be transformed to quasi-canonical
--
 
--------------------------------------------------------------------------------
 Estimated memory requirements:
  POLY3 :                   250070
  RHS:                      250374
  SIGMA :                   250336
  PRPCTL:                        0
 Available workspace:    230392690
 
++ CASPT2 computation for group   1
 
********************************************************************************
 Multi-State initialization phase begins for group   1
--------------------------------------------------------------------------------
********************************************************************************
 Compute H0 matrices for state    1
--------------------------------------------------------------------------------
--------------------------------------------------------------------------------
 H0 matrices have been computed.
 
********************************************************************************
  CASPT2 EQUATION SOLUTION
--------------------------------------------------------------------------------
 
  Total nr of CASPT2 parameters:
   Before reduction:         368
   After  reduction:         213
 
 Variance of |WF0>:       0.0844821327
 
 The contributions to the second order correlation energy in atomic units.
-----------------------------------------------------------------------------------------------------------------------------
  IT.      VJTU        VJTI        ATVX        AIVX        VJAI        BVAT        BJAT        BJAI        TOTAL       RNORM  
-----------------------------------------------------------------------------------------------------------------------------
   1    -0.000000   -0.000002   -0.000000    0.000000   -0.001262   -0.000000   -0.000000   -0.115366   -0.116631    0.000005
-----------------------------------------------------------------------------------------------------------------------------
 
  FINAL CASPT2 RESULT:
 
      Reference energy:        -153.6244546759
      E2 (Non-variational):      -0.1166312731
      E2 (Variational):          -0.1166312731
      Total energy:            -153.7410859490
      Residual norm:              0.0000000160
      Reference weight:           0.84841
 
      Contributions to the CASPT2 correlation energy
      Active & Virtual Only:         -0.0000000000
      One Inactive Excited:          -0.0000000348
      Two Inactive Excited:          -0.1166312383
 
 
++ Denominators, etc.
--------------------------------------------------------------------------------------------------------------
 Report on small energy denominators, large coefficients, and large energy contributions.
CASE  SYMM ACTIVE-MIX  NON-ACTIVE INDICES          DENOMINATOR     RHS VALUE       COEFFICIENT     CONTRIBUTION
VJTU     1  Mu1.0001  In1.007                       0.20027955     -0.00000000      0.00000000     -0.00000000
VJTU     1  Mu1.0002  In1.007                       0.20027955      0.00000000     -0.00000000     -0.00000000
VJTIP    1  Mu1.0001  In1.007 In1.007               0.29639243     -0.00000000      0.00000000     -0.00000000
BJAIP    1  Se1.010 In1.004 Se1.010 In1.004         1.93889608      0.09517589     -0.04908767     -0.00467196
BJAIP    1  Se1.010 In1.007 Se1.010 In1.007         0.62699557      0.26090589     -0.41612080     -0.10856837
--
 
   (Skipping property calculation,
    use PROP keyword to activate)
--
 
  Total CASPT2 energies:
::    CASPT2 Root  1     Total energy:   -153.74108595
 
  A NEW JOBIPH FILE NAMED 'JOBMIX' IS PREPARED.
********************************************************************************
--- Stop Module: caspt2 at Thu Apr 25 13:56:34 2024 /rc=_RC_ALL_IS_WELL_ ---
*** files: xmldump
    saved to directory /home/grierjones/DDCASPT2/delta_ML/FN/2.50

.##################.
.# Happy landing! #.
.##################.

    Timing: Wall=2.27 User=1.54 System=0.22
************************************
*** WorkDir at /tmp/2.50 removed ***
************************************
