[Molden Format]
[N_Atoms]
                     2
[Atoms] (AU)
C1          1      6           0.00000000      0.00000000      0.00000000
LI2         2      3           0.00000000      0.00000000      3.77945225
[Charge] (Mulliken)
 -0.300382765682177     
  0.300382765682131     
[GTO] (AU)
   1
   s  14
  5.055750100E+04  1.128874000E-04
  7.524785600E+03  5.295373000E-04
  1.694327600E+03  2.450038300E-03
  4.728227900E+02  1.005398470E-02
  1.517107500E+02  3.545398060E-02
  5.391874600E+01  1.044071086E-01
  2.065931100E+01  2.412894918E-01
  8.383976000E+00  3.834225483E-01
  3.577015000E+00  3.078514393E-01
  1.547118000E+00  6.872442990E-02
  6.130130000E-01  2.224445000E-04
  2.460680000E-01  1.976748900E-03
  9.908700000E-02  2.057859400E-03
  3.468000000E-02  4.182020000E-04
   s  14
  5.055750100E+04 -2.507420000E-05
  7.524785600E+03 -1.175945000E-04
  1.694327600E+03 -5.456275000E-04
  4.728227900E+02 -2.245077100E-03
  1.517107500E+02 -8.043471800E-03
  5.391874600E+01 -2.442588710E-02
  2.065931100E+01 -6.136791180E-02
  8.383976000E+00 -1.177767835E-01
  3.577015000E+00 -1.550487783E-01
  1.547118000E+00 -1.933316860E-02
  6.130130000E-01  3.996930678E-01
  2.460680000E-01  5.589420949E-01
  9.908700000E-02  1.711195023E-01
  3.468000000E-02  7.456244600E-03
   p   9
  8.333315500E+01  1.344656000E-03
  1.955761100E+01  1.023555500E-02
  6.080365000E+00  4.520067100E-02
  2.179317000E+00  1.410756198E-01
  8.651500000E-01  3.047388085E-01
  3.619440000E-01  3.995281011E-01
  1.547400000E-01  2.719163432E-01
  6.542900000E-02  5.857669330E-02
  2.290000000E-02 -1.263813000E-04
 
   2
   s  14
  9.497934400E+03  9.668999974E-05
  1.416811200E+03  6.087099984E-04
  3.214599400E+02  3.101519992E-03
  9.112416300E+01  1.266904997E-02
  2.999989100E+01  4.248012989E-02
  1.101763100E+01  1.150183297E-01
  4.372801000E+00  2.398650094E-01
  1.831256000E+00  3.584300090E-01
  8.022610000E-01  3.048527792E-01
  3.626480000E-01  8.824261976E-02
  1.139950000E-01 -8.445899977E-04
  5.123700000E-02 -7.943959979E-03
  2.246800000E-02 -3.764419990E-03
  7.860000000E-03 -8.868999976E-05
   s  14
  9.497934400E+03 -1.244999993E-05
  1.416811200E+03 -7.838999954E-05
  3.214599400E+02 -4.007099976E-04
  9.112416300E+01 -1.645249990E-03
  2.999989100E+01 -5.634599967E-03
  1.101763100E+01 -1.590780991E-02
  4.372801000E+00 -3.612581979E-02
  1.831256000E+00 -6.459927962E-02
  8.022610000E-01 -1.008321794E-01
  3.626480000E-01 -9.757613942E-02
  1.139950000E-01  2.301215886E-01
  5.123700000E-02  6.102389764E-01
  2.246800000E-02  2.849406083E-01
  7.860000000E-03  4.026899976E-03
   p   9
  1.311950400E+01  1.524940000E-03
  3.077424200E+00  8.314830000E-03
  1.098800500E+00  1.933203000E-02
  4.357784000E-01  4.934293000E-02
  1.802432000E-01  1.623554000E-01
  7.613330000E-02  3.847505400E-01
  3.254650000E-02  4.336100400E-01
  1.401820000E-02  1.287005900E-01
  4.906400000E-03 -1.018520000E-03
 
[MO]
Sym=     1a  
Ene=   -11.1160
Spin= Alpha
Occup=    1.00000
   1         1.00018995
   2         0.00062970
   3         0.00000000
   4        -0.00000000
   5         0.00168205
   6        -0.00045685
   7        -0.00180351
   8         0.00000000
   9         0.00000000
  10         0.00175152
Sym=     1a  
Ene=   -11.0970
Spin= Beta
Occup=    1.00000
   1         1.00014043
   2        -0.00160428
   3         0.00000000
   4        -0.00000000
   5         0.00150325
   6        -0.00035993
   7        -0.00141940
   8         0.00000000
   9         0.00000000
  10         0.00128936
Sym=     2a  
Ene=    -2.4680
Spin= Alpha
Occup=    1.00000
   1        -0.00022679
   2         0.00375152
   3         0.00000000
   4        -0.00000000
   5         0.00224231
   6         0.99955909
   7         0.01258973
   8         0.00000000
   9         0.00000000
  10         0.00183190
Sym=     2a  
Ene=    -2.4662
Spin= Beta
Occup=    1.00000
   1        -0.00019734
   2         0.00339064
   3         0.00000000
   4        -0.00000000
   5         0.00241924
   6         0.99956184
   7         0.01243817
   8         0.00000000
   9         0.00000000
  10         0.00197991
Sym=     3a  
Ene=    -0.6679
Spin= Alpha
Occup=    1.00000
   1        -0.00734713
   2         0.92805184
   3         0.00000000
   4        -0.00000000
   5         0.07278404
   6        -0.04983819
   7         0.08243937
   8        -0.00000000
   9         0.00000000
  10        -0.07184554
Sym=     3a  
Ene=    -0.5675
Spin= Beta
Occup=    1.00000
   1        -0.00898655
   2         0.89584971
   3         0.00000000
   4        -0.00000000
   5         0.08103632
   6        -0.04905246
   7         0.11206871
   8         0.00000000
   9        -0.00000000
  10        -0.10529621
Sym=     4a  
Ene=    -0.2910
Spin= Alpha
Occup=    1.00000
   1         0.00000000
   2         0.00000000
   3         0.20255480
   4         0.89582384
   5        -0.00000000
   6         0.00000000
   7         0.00000000
   8         0.05142373
   9         0.22742786
  10         0.00000000
Sym=     4a  
Ene=    -0.2200
Spin= Beta
Occup=    1.00000
   1        -0.02160323
   2        -0.30479404
   3        -0.00000000
   4        -0.00000000
   5         0.86243386
   6        -0.06813360
   7         0.36666406
   8        -0.00000000
   9        -0.00000000
  10        -0.07424225
Sym=     5a  
Ene=    -0.2144
Spin= Alpha
Occup=    1.00000
   1        -0.02573657
   2        -0.32297470
   3        -0.00000000
   4         0.00000000
   5         0.79341391
   6        -0.06287297
   7         0.49515719
   8        -0.00000000
   9         0.00000000
  10        -0.06138235
Sym=     5a  
Ene=     0.0236
Spin= Beta
Occup=    0.00000
   1         0.00940174
   2         0.03123525
   3         0.00000000
   4         0.00000000
   5        -0.32443495
   6         0.01674712
   7         0.75115463
   8         0.00000000
   9        -0.00000000
  10         0.62007405
Sym=     6a  
Ene=     0.0182
Spin= Alpha
Occup=    0.00000
   1         0.01266314
   2         0.06795380
   3         0.00000000
   4        -0.00000000
   5        -0.41744593
   6         0.02405498
   7         0.69711289
   8         0.00000000
   9        -0.00000000
  10         0.63362237
Sym=     6a  
Ene=     0.0489
Spin= Beta
Occup=    0.00000
   1        -0.00000000
   2        -0.00000000
   3         0.20705579
   4        -0.04681740
   5         0.00000000
   6        -0.00000000
   7        -0.00000000
   8         0.90506390
   9        -0.20464407
  10        -0.00000000
Sym=     7a  
Ene=     0.0403
Spin= Alpha
Occup=    0.00000
   1        -0.00000000
   2        -0.00000000
   3         0.23723601
   4        -0.05364145
   5         0.00000000
   6        -0.00000000
   7        -0.00000000
   8         0.89122071
   9        -0.20151398
  10        -0.00000000
Sym=     7a  
Ene=     0.0594
Spin= Beta
Occup=    0.00000
   1        -0.00000000
   2        -0.00000000
   3         0.03373294
   4         0.14918813
   5         0.00000000
   6        -0.00000000
   7         0.00000000
   8         0.21005427
   9         0.92899118
  10         0.00000000
Sym=     8a  
Ene=     0.0900
Spin= Alpha
Occup=    0.00000
   1         0.00000000
   2         0.00000000
   3        -0.10267095
   4        -0.45407510
   5        -0.00000000
   6         0.00000000
   7        -0.00000000
   8         0.22119080
   9         0.97824390
  10         0.00000000
Sym=     8a  
Ene=     0.2368
Spin= Beta
Occup=    0.00000
   1         0.09747299
   2         0.85033281
   3        -0.00000000
   4         0.00000000
   5         0.47333109
   6        -0.06977515
   7        -0.75814528
   8         0.00000000
   9        -0.00000000
  10         1.00548138
Sym=     9a  
Ene=     0.2230
Spin= Alpha
Occup=    0.00000
   1         0.09571343
   2         0.80577705
   3        -0.00000000
   4         0.00000000
   5         0.52018785
   6        -0.07202282
   7        -0.74031830
   8         0.00000000
   9        -0.00000000
  10         1.00083770
Sym=     9a  
Ene=     0.2661
Spin= Beta
Occup=    0.00000
   1        -0.00000000
   2        -0.00000000
   3        -0.98275758
   4         0.22221139
   5        -0.00000000
   6         0.00000000
   7         0.00000000
   8         0.43536638
   9        -0.09844073
  10        -0.00000000
Sym=    10a  
Ene=     0.2411
Spin= Alpha
Occup=    0.00000
   1        -0.00000000
   2        -0.00000000
   3        -0.97591169
   4         0.22066347
   5        -0.00000000
   6         0.00000000
   7         0.00000000
   8         0.46304449
   9        -0.10469903
  10        -0.00000000
Sym=    10a  
Ene=     0.3186
Spin= Beta
Occup=    0.00000
   1         0.00000000
   2         0.00000000
   3         0.22457039
   4         0.99319054
   5         0.00000000
   6        -0.00000000
   7        -0.00000000
   8        -0.08629586
   9        -0.38165421
  10         0.00000000
