[Molden Format]
[N_Atoms]
                     2
[Atoms] (AU)
B1          1      5           0.00000000      0.00000000      0.00000000
O2          2      8           0.00000000      0.00000000      1.51178090
[Charge] (Mulliken)
  0.913587275095467     
 -0.913587275095500     
[GTO] (AU)
   1
   s  14
  3.336021700E+04  1.039699991E-04
  4.972095200E+03  5.254399956E-04
  1.125641700E+03  2.509059979E-03
  3.164913600E+02  1.031887991E-02
  1.020072600E+02  3.636632969E-02
  3.629587300E+01  1.064607991E-01
  1.397141000E+01  2.403999880E-01
  5.741156000E+00  3.748581168E-01
  2.494268000E+00  3.100066974E-01
  1.114202000E+00  7.922455933E-02
  4.215490000E-01 -4.947589958E-03
  1.696330000E-01 -7.737119935E-03
  6.853500000E-02 -1.501079987E-03
  2.398700000E-02 -1.333299989E-04
   s  14
  3.336021700E+04 -2.030000008E-05
  4.972095200E+03 -1.025700004E-04
  1.125641700E+03 -4.911300020E-04
  3.164913600E+02 -2.026570008E-03
  1.020072600E+02 -7.261010030E-03
  3.629587300E+01 -2.197722009E-02
  1.397141000E+01 -5.408428022E-02
  5.741156000E+00 -1.022402604E-01
  2.494268000E+00 -1.423595206E-01
  1.114202000E+00 -4.658690019E-02
  4.215490000E-01  3.799402916E-01
  1.696330000E-01  5.890463624E-01
  6.853500000E-02  1.749075107E-01
  2.398700000E-02 -1.142030005E-03
   p   9
  5.500000000E+01  1.229800005E-03
  1.336610100E+01  8.827380035E-03
  4.135394000E+00  3.843340015E-02
  1.481256000E+00  1.150031805E-01
  6.021360000E-01  2.733674011E-01
  2.556360000E-01  4.061972116E-01
  1.111510000E-01  3.014967912E-01
  4.764800000E-02  7.684809030E-02
  1.667700000E-02 -8.170000032E-06
 
   2
   s  14
  1.053749500E+05  1.238600013E-04
  1.567924000E+04  5.120100053E-04
  3.534544700E+03  2.152910022E-03
  9.873651600E+02  8.528440089E-03
  3.159787500E+02  3.018049031E-02
  1.116542800E+02  9.099702095E-02
  4.269945100E+01  2.177936423E-01
  1.739559600E+01  3.686245738E-01
  7.438309000E+00  3.366707335E-01
  3.222862000E+00  9.657630101E-02
  1.253877000E+00  2.144520022E-03
  4.951550000E-01  1.194350012E-03
  1.916650000E-01  5.390200056E-04
  6.708300000E-02  2.103400022E-04
   s  14
  1.053749500E+05 -2.815000008E-05
  1.567924000E+04 -1.163000003E-04
  3.534544700E+03 -4.909200013E-04
  9.873651600E+02 -1.946160005E-03
  3.159787500E+02 -7.005300019E-03
  1.116542800E+02 -2.167814006E-02
  4.269945100E+01 -5.641213015E-02
  1.739559600E+01 -1.127053003E-01
  7.438309000E+00 -1.589119704E-01
  3.222862000E+00 -3.355083009E-02
  1.253877000E+00  3.531902810E-01
  4.951550000E-01  5.534199315E-01
  1.916650000E-01  2.301839106E-01
  6.708300000E-02  1.127267003E-02
   p   9
  2.000000000E+02  9.173000030E-04
  4.653336700E+01  7.377140024E-03
  1.462180900E+01  3.483515011E-02
  5.313064000E+00  1.144397004E-01
  2.102525000E+00  2.554966408E-01
  8.502230000E-01  3.722557412E-01
  3.375970000E-01  3.323314911E-01
  1.288920000E-01  1.400847905E-01
  4.511200000E-02  2.395784008E-02
 
[MO]
Sym=     1a  
Ene=   -20.7650
Spin= Alpha
Occup=    1.00000
   1        -0.00142971
   2        -0.00389755
   3         0.00000000
   4         0.00000000
   5        -0.00121505
   6         1.00054534
   7         0.00471922
   8         0.00000000
   9         0.00000000
  10        -0.00460339
Sym=     1a  
Ene=   -20.7690
Spin= Beta
Occup=    1.00000
   1        -0.00157161
   2        -0.00415492
   3         0.00000000
   4         0.00000000
   5        -0.00143431
   6         1.00060147
   7         0.00534300
   8         0.00000000
   9         0.00000000
  10        -0.00467303
Sym=     2a  
Ene=    -8.0068
Spin= Alpha
Occup=    1.00000
   1         0.99081555
   2         0.00242800
   3        -0.00000000
   4         0.00000000
   5         0.00132729
   6        -0.00740201
   7         0.02020585
   8         0.00000000
   9        -0.00000000
  10        -0.02043655
Sym=     2a  
Ene=    -7.9807
Spin= Beta
Occup=    1.00000
   1         0.99106784
   2         0.00196972
   3        -0.00000000
   4         0.00000000
   5         0.00271882
   6        -0.00754687
   7         0.01927476
   8         0.00000000
   9        -0.00000000
  10        -0.02014403
Sym=     3a  
Ene=    -1.6086
Spin= Alpha
Occup=    1.00000
   1        -0.28441871
   2        -0.05015488
   3        -0.00000000
   4         0.00000000
   5         0.14022199
   6        -0.01604818
   7         0.90143470
   8         0.00000000
   9         0.00000000
  10        -0.40404762
Sym=     3a  
Ene=    -1.6144
Spin= Beta
Occup=    1.00000
   1        -0.28423758
   2        -0.06652010
   3        -0.00000000
   4         0.00000000
   5         0.13663920
   6        -0.01425703
   7         0.91809462
   8         0.00000000
   9         0.00000000
  10        -0.39480716
Sym=     4a  
Ene=    -0.7672
Spin= Alpha
Occup=    1.00000
   1         0.00000000
   2        -0.00000000
   3         0.15974038
   4         0.33096587
   5         0.00000000
   6         0.00000000
   7         0.00000000
   8         0.32655959
   9         0.67659837
  10         0.00000000
Sym=     4a  
Ene=    -0.7727
Spin= Beta
Occup=    1.00000
   1         0.00000000
   2        -0.00000000
   3         0.09378820
   4         0.27030090
   5        -0.00000000
   6         0.00000000
   7         0.00000000
   8         0.26717969
   9         0.77002133
  10         0.00000000
Sym=     5a  
Ene=    -0.7672
Spin= Alpha
Occup=    1.00000
   1        -0.00000000
   2        -0.00000000
   3         0.33096587
   4        -0.15974038
   5         0.00000000
   6        -0.00000000
   7        -0.00000000
   8         0.67659837
   9        -0.32655959
  10        -0.00000000
Sym=     5a  
Ene=    -0.7727
Spin= Beta
Occup=    1.00000
   1        -0.00000000
   2        -0.00000000
   3         0.27030090
   4        -0.09378820
   5         0.00000000
   6        -0.00000000
   7         0.00000000
   8         0.77002133
   9        -0.26717969
  10        -0.00000000
Sym=     6a  
Ene=    -0.7062
Spin= Alpha
Occup=    1.00000
   1         0.21247423
   2         0.14218363
   3         0.00000000
   4        -0.00000000
   5        -0.17107423
   6         0.01233142
   7         0.35693773
   8        -0.00000000
   9        -0.00000000
  10         0.99540084
Sym=     6a  
Ene=    -0.7117
Spin= Beta
Occup=    1.00000
   1         0.21503980
   2         0.11677308
   3         0.00000000
   4        -0.00000000
   5        -0.15272041
   6         0.01197587
   7         0.34780033
   8        -0.00000000
   9        -0.00000000
  10         0.99758798
Sym=     7a  
Ene=    -0.5786
Spin= Alpha
Occup=    1.00000
   1        -0.05021355
   2        -0.87831203
   3        -0.00000000
   4        -0.00000000
   5         0.57380072
   6         0.00062104
   7         0.17603440
   8        -0.00000000
   9        -0.00000000
  10        -0.10325274
Sym=     7a  
Ene=    -0.0158
Spin= Beta
Occup=    0.00000
   1        -0.08090967
   2        -0.96983869
   3         0.00000000
   4         0.00000000
   5         0.49395153
   6         0.02082625
   7         0.26241337
   8        -0.00000000
   9        -0.00000000
  10        -0.15902272
Sym=     8a  
Ene=     0.3180
Spin= Alpha
Occup=    0.00000
   1        -0.00000000
   2        -0.00000000
   3         0.14441422
   4        -1.12468458
   5        -0.00000000
   6         0.00000000
   7         0.00000000
   8        -0.11786000
   9         0.91788276
  10        -0.00000000
Sym=     8a  
Ene=     0.3736
Spin= Beta
Occup=    0.00000
   1        -0.00000000
   2        -0.00000000
   3         0.12165912
   4        -1.15072435
   5        -0.00000000
   6         0.00000000
   7         0.00000000
   8        -0.09144639
   9         0.86495432
  10        -0.00000000
Sym=     9a  
Ene=     0.3180
Spin= Alpha
Occup=    0.00000
   1         0.00000000
   2        -0.00000000
   3        -1.12468458
   4        -0.14441422
   5         0.00000000
   6         0.00000000
   7         0.00000000
   8         0.91788276
   9         0.11786000
  10         0.00000000
Sym=     9a  
Ene=     0.3736
Spin= Beta
Occup=    0.00000
   1        -0.00000000
   2        -0.00000000
   3        -1.15072435
   4        -0.12165912
   5        -0.00000000
   6         0.00000000
   7         0.00000000
   8         0.86495432
   9         0.09144639
  10         0.00000000
Sym=    10a  
Ene=     0.8149
Spin= Alpha
Occup=    0.00000
   1         0.47421255
   2         1.64043393
   3        -0.00000000
   4        -0.00000000
   5         1.51614309
   6        -0.37485993
   7        -1.98512167
   8        -0.00000000
   9         0.00000000
  10         0.52712827
Sym=    10a  
Ene=     0.8515
Spin= Beta
Occup=    0.00000
   1         0.46835704
   2         1.58950910
   3        -0.00000000
   4        -0.00000000
   5         1.54624630
   6        -0.37421257
   7        -1.96951571
   8         0.00000000
   9         0.00000000
  10         0.51601471
