   This run of MOLCAS is using the pymolcas driver

                             OPE
                             OPE          NMOL  CASOP  ENMOLC A   SO
                 OPE        NMOLC        AS  OP EN  MO LC     AS  OP
                OPENM       OL CA        SO  PE NM  OL CA     SOP EN
                OP EN      MO   LC       AS  OP ENMOL  CASO   PENMOL
                OP  EN     MO   LC       AS  OP EN     MO     LC ASO
               OP   E  NMOL  C  AS       OP  EN MO     LC     AS  OP
               OP  E   NMO   LC AS        OPEN  MO     LCASOP EN   M
               O  PEN   MO  LCA  SO
            OPE   NMO   L   CAS    OP
        OPENMOL  CASOP     ENMOL   CASOPE
     OPENMOLCA   SOPENMOLCASOPEN   MOLCASOPE
    OPENMOLCAS   OP           EN   MOL    CAS
    OPENMOLCAS       OP  ENM        O     LCA
    OPENMOLCAS    OPEN  MOLCASO     P  E  NMO
    OPENMOLCAS     OP               E  N  MOL
    OPENMOLCA   SO           PENM   O  L  CAS    OPEN    MO    LCAS
    OPENMOLCA   SOP           ENM   O  L  CAS   OP  EN  MOLC  AS   O
    OPENMOLCA   SOPE           NM      O  LCA   S      OP  EN MO
    OPENMOLC                AS         O  PEN   M      OL  CA  SOPE
    OPENMO        LCASOPE  NMOL        C  ASO   P      ENMOLC     AS
    OPE     NMO      LCA  SO     P     E   NM   OL  CA SO  PE N   MO
          OPENMOLCA            SOPE   NMO        LCAS  O    P  ENMO
     OPENMOLCASOPENMOLCASOPENMOLCASOPENMOLCA
        OPENMOLCASOPENMOLCASOPENMOLCASOPE
            OPENMOLCASOPENMOLCASOPENM
               OPENMOLCASOPENMOLCA        version: 24.02
                   OPENMOLCASO
                       OPE                tag: 126-g611b04c8f

 OpenMolcas is free software; you can redistribute it and/or modify it
 under the terms of the GNU Lesser General Public License version 2.1.
 OpenMolcas is distributed in the hope that it will be useful, but it
 is provided "as is" and without any express or implied warranties.
 For more details see the full text of the license in the file
 LICENSE or in <http://www.gnu.org/licenses/>.

                 Copyright (C) The OpenMolcas Authors
           For the author list and the recommended citation,
                   consult the file CONTRIBUTORS.md

           *************************************************
           * pymolcas version py2.28                       *
           *   build c4a6d18ded8cb6cad61d2372a9abd97c      *
           *   (after the EMIL interpreter by V. Veryazov) *
           *************************************************

configuration info
------------------
Host name: debian (Linux)
C Compiler ID: GNU
C flags: -std=gnu99
Fortran Compiler ID: Intel
Fortran flags: -fpp -i8 -heap-arrays
Definitions: _MOLCAS_;_I8_;_LINUX_
Parallel: OFF (GA=OFF)


   -----------------------------------------------------------------
  |
  |              Project: 0.80
  |       Submitted from: /home/grierjones/DDCASPT2/delta_ML/BO/0.80
  |         Scratch area: /tmp/0.80
  |      Save outputs to: /home/grierjones/DDCASPT2/delta_ML/BO/0.80
  |               Molcas: /usr/local
  |
  | Scratch area is empty
  |
  |       MOLCAS_DRIVER = /usr/local/pymolcas
  | MOLCAS_KEEP_WORKDIR = NO
  |  MOLCAS_NEW_WORKDIR = YES
  |       MOLCAS_NPROCS = 1
  |       MOLCAS_SOURCE = /usr/local
  |    MOLCAS_STRUCTURE = 0
  |
   -----------------------------------------------------------------

++ ---------   Input file   ---------

&GATEWAY
coord=0.80.xyz
Basis = ANO-RCC-MB
Group = nosymm
End of Input

&SEWARD
End of Input

&SCF
UHF

&MBPT2
Frozen
0

&RASSCF
Title= RASSCF
FileOrb
/home/grierjones/DDCASPT2/delta_ML/BO/0.70/0.70.RasOrb

NACTEL
1 0 0
Inactive
6
RAS2
2
Symmetry
1
Spin
2
orblisting
all
ITERation
200 100
CIMX
200
SDAV
500

&CASPT2
Imaginary Shift
0.0
Frozen
0

-- ----------------------------------

--- Start Module: gateway at Thu Apr 25 13:38:11 2024 ---
 
()()()()()()()()()()()()()()()()()()()()()()()()()()()()()()()()()()()()()()()()()()()()()()()()()()

                                              &GATEWAY

                                   only a single process is used
                       available to each process: 2.0 GB of memory, 1 thread?
                                             pid: 97921
()()()()()()()()()()()()()()()()()()()()()()()()()()()()()()()()()()()()()()()()()()()()()()()()()()
 
 
++    Symmetry information:
      ---------------------
 
                    Character Table for C1 
 
                             E  
                    a        1  x, y, xy, Rz, z, xz, Ry, yz, Rx, I
--
 
 
++    Basis set information:
      ----------------------
 
 
      Basis set label: B.ANO-RCC...2S1P.
 
      Electronic valence basis set:
      ------------------
      Associated Effective Charge   5.000000 au
      Associated Actual Charge      5.000000 au
      Nuclear Model: Point charge
 
      Shell  nPrim  nBasis  Cartesian Spherical Contaminant
         s      14       2        X                  
         p       9       1        X                  
 
 
      Basis set label: O.ANO-RCC...2S1P.
 
      Electronic valence basis set:
      ------------------
      Associated Effective Charge   8.000000 au
      Associated Actual Charge      8.000000 au
      Nuclear Model: Point charge
 
      Shell  nPrim  nBasis  Cartesian Spherical Contaminant
         s      14       2        X                  
         p       9       1        X                  
--
 
 
++    Molecular structure info:
      -------------------------
 
                    ************************************************ 
                    **** Cartesian Coordinates / Bohr, Angstrom **** 
                    ************************************************ 
 
     Center  Label                x              y              z                     x              y              z
        1      B1               0.000000       0.000000       0.000000              0.000000       0.000000       0.000000
        2      O2               0.000000       0.000000       1.511781              0.000000       0.000000       0.800000
--
 
 
            Nuclear Potential Energy             26.45886055 au
 
--- Stop Module: gateway at Thu Apr 25 13:38:11 2024 /rc=_RC_ALL_IS_WELL_ ---
*** files: xmldump
    saved to directory /home/grierjones/DDCASPT2/delta_ML/BO/0.80

--- Start Module: seward at Thu Apr 25 13:38:11 2024 ---
 
()()()()()()()()()()()()()()()()()()()()()()()()()()()()()()()()()()()()()()()()()()()()()()()()()()

                                              &SEWARD

                                   only a single process is used
                       available to each process: 2.0 GB of memory, 1 thread?
                                             pid: 97925
()()()()()()()()()()()()()()()()()()()()()()()()()()()()()()()()()()()()()()()()()()()()()()()()()()
 
               SEWARD will generate:
                  Multipole Moment integrals up to order  2
                  Kinetic Energy integrals
                  Nuclear Attraction integrals (point charge)
                  One-Electron Hamiltonian integrals
                  Velocity integrals
                  Relativistic Douglas-Kroll-Hess integrals:
                    - Parametrization         : EXP
                    - DKH order of Hamiltonian: 2
                    - DKH order of Properties : 0
                         - multipole moment operators
                         - electric potential operators
                         - contact operators
                  Orbital angular momentum around ( 0.0000  0.0000  0.8954 )
                  Velocity quadrupole around ( 0.0000  0.0000  0.8954 )
                  Atomic mean-field integrals
                  Two-Electron Repulsion integrals
 
                   Integrals are discarded if absolute value <: 1.00E-14
                   Integral cutoff threshold is set to       <: 1.00E-16
 
            Nuclear Potential Energy             26.45886055 au
 
 
      Basis set specifications :
      Symmetry species         a  
      Basis functions           10
 
 
      Input file to MOLDEN was generated!
 
--- Stop Module: seward at Thu Apr 25 13:38:11 2024 /rc=_RC_ALL_IS_WELL_ ---
*** files: 0.80.GssOrb 0.80.guessorb.h5 0.80.guessorb.molden xmldump
    saved to directory /home/grierjones/DDCASPT2/delta_ML/BO/0.80

*** symbolic link created: INPORB -> 0.80.GssOrb
--- Start Module: scf at Thu Apr 25 13:38:11 2024 ---
 
()()()()()()()()()()()()()()()()()()()()()()()()()()()()()()()()()()()()()()()()()()()()()()()()()()

                                                &SCF

                                   only a single process is used
                       available to each process: 2.0 GB of memory, 1 thread?
                                             pid: 97928
()()()()()()()()()()()()()()()()()()()()()()()()()()()()()()()()()()()()()()()()()()()()()()()()()()
 
++    Input section:
      --------------
 
      Header of the integral files:
      
       Integrals generated by Gateway/Seward, Thu Apr 25 13:38:11 2024
 
 
      Cartesian coordinates in Angstrom:
      -----------------------------------------------------
      No.  Label        X            Y            Z        
      -----------------------------------------------------
       1   B1         0.00000000   0.00000000   0.00000000
       2   O2         0.00000000   0.00000000   0.80000000
      -----------------------------------------------------
      Nuclear repulsion energy =   26.45886055
--
 
++    Orbital specifications:
      -----------------------
 
      Symmetry species               1
                                     a
      Frozen orbitals                0
      Occupied orbitals alpha        7
      Occupied orbitals beta         6
      Secondary orbitals alpha       3
      Secondary orbitals beta        4
      Deleted orbitals               0
      Total number of orbitals      10
      Number of basis functions     10
--
 
      Molecular charge                           0.000
 
++    Optimization specifications:
      ----------------------------
 
      SCF Algorithm: Conventional USCF
      D(i)-D(i-1) density differences are used
      Number of density matrices in core                 5
      Maximum number of NDDO SCF iterations            400
      Maximum number of HF SCF iterations              400
      Threshold for SCF energy change             1.00E-09
      Threshold for density matrix                1.00E-04
      Threshold for Fock matrix                   1.50E-04
      Threshold for linear dependence             1.00E-09
      Threshold at which DIIS is turned on        1.50E-01
      Maximum depth in the DIIS procedure                5
      Maximum depth in the BFGS Hessian update          30
      Threshold at which QNR/C2DIIS is turned on  7.50E-02
      Threshold for Norm(delta) (QNR/C2DIIS)      1.00E-03
      All orbitals punched on: UHFORB
--
 
      Input vectors read from INPORB
      Orbital file label: *Guess orbitals
 
 
++ Convergence information
                               UHF SCF        iterations: Energy and convergence statistics
 
Iter     Tot. SCF        One-elec.       Two-elec.     Energy      Max Dij or  Max Fij      DNorm      TNorm      AccCon     Time
         Energy          Energy          Energy        Change      Delta Norm                                                in Sec.
   1   -98.349945669  -182.240740302    57.431934088   0.00E+00    5.02E-01*   2.34E-01*    5.16E+00   2.82E+01   None         0.
   2   -98.502292867  -184.776051217    59.814897806  -1.52E-01*   1.80E-01*   6.56E-02*    1.63E+00   2.87E+01   EDIIS        0.
   3   -98.537800006  -183.980933302    58.984272751  -3.55E-02*   1.55E-01*   5.34E-02*    6.02E-01   2.85E+01   EDIIS        0.
   4   -98.545596739  -184.274622531    59.270165247  -7.80E-03*   7.20E-02*   2.44E-02*    3.49E-01   2.86E+01   EDIIS        0.
   5   -98.547692060  -184.171293604    59.164740999  -2.10E-03*   1.82E-02*   2.13E-02*    1.65E-01   2.86E+01   c2DIIS       0.
   6   -98.548397172  -184.222464018    59.215206301  -7.05E-04*   1.41E-02*   3.42E-03*    8.01E-02   2.86E+01   QNRc2DIIS    0.
   7   -98.548457548  -184.186065906    59.178747813  -6.04E-05*   1.03E-02*   1.93E-03*    2.75E-02   2.86E+01   QNRc2DIIS    0.
   8   -98.548479995  -184.188674356    59.181333816  -2.24E-05*   5.55E-03*   9.63E-04*    1.97E-02   2.86E+01   QNRc2DIIS    0.
   9   -98.548484172  -184.193838798    59.186494080  -4.18E-06*   1.39E-03*   2.01E-04*    1.00E-02   2.86E+01   QNRc2DIIS    0.
  10   -98.548484373  -184.193741892    59.186396974  -2.01E-07*   4.30E-05    1.08E-05     2.83E-03   2.86E+01   QNRc2DIIS    0.
  11   -98.548484373  -184.193714203    59.186369285  -3.03E-10    6.15E-06    1.03E-06     1.01E-04   2.86E+01   QNRc2DIIS    0.
 
       Convergence after  11 Macro Iterations
--
 
 *****************************************************************************************************************************
 *                                                                                                                           *
 *                                             SCF/KS-DFT Program, Final results                                             *
 *                                                                                                                           *
 *                                                                                                                           *
 *                                                                                                                           *
 *                                                       Final Results                                                       *
 *                                                                                                                           *
 *****************************************************************************************************************************
 
::    Total SCF energy                                -98.5484843732
      One-electron energy                            -184.1937142030
      Two-electron energy                              59.1863692846
      Nuclear repulsion energy                         26.4588605451
      Kinetic energy (interpolated)                   103.0388482793
      Virial theorem                                    0.9564206706
      Total spin, S(S+1)                                0.7600984539
      Total spin, S                                     0.5050365436
      Max non-diagonal density matrix element           0.0000057577
      Max non-diagonal Fock matrix element              0.0000009802
 
 
      All orbitals with orbital energies smaller than  E(LUMO)+0.5 are printed
 
++    Molecular orbitals:
      -------------------
 
      Title: UHF orbitals (alpha)

      Molecular orbitals for symmetry species 1: a  
 
          Orbital            1         2         3         4         5         6         7         8         9        10    
          Energy          -20.7647   -8.0068   -1.6086   -0.7672   -0.7672   -0.7062   -0.5786    0.3180    0.3180    0.8149
          Occ. No.          1.0000    1.0000    1.0000    1.0000    1.0000    1.0000    1.0000    0.0000    0.0000    0.0000
 
        1 B1     1s        -0.0014    0.9908   -0.2844    0.0000   -0.0000    0.2125   -0.0502   -0.0000    0.0000    0.4742
        2 B1     2s        -0.0039    0.0024   -0.0502   -0.0000   -0.0000    0.1422   -0.8783   -0.0000   -0.0000    1.6404
        3 B1     2px        0.0000   -0.0000   -0.0000    0.1597    0.3310    0.0000   -0.0000    0.1444   -1.1247   -0.0000
        4 B1     2py        0.0000    0.0000    0.0000    0.3310   -0.1597   -0.0000   -0.0000   -1.1247   -0.1444   -0.0000
        5 B1     2pz       -0.0012    0.0013    0.1402    0.0000    0.0000   -0.1711    0.5738   -0.0000    0.0000    1.5161
        6 O2     1s         1.0005   -0.0074   -0.0160    0.0000   -0.0000    0.0123    0.0006    0.0000    0.0000   -0.3749
        7 O2     2s         0.0047    0.0202    0.9014    0.0000   -0.0000    0.3569    0.1760    0.0000    0.0000   -1.9851
        8 O2     2px        0.0000    0.0000    0.0000    0.3266    0.6766   -0.0000   -0.0000   -0.1179    0.9179   -0.0000
        9 O2     2py        0.0000   -0.0000    0.0000    0.6766   -0.3266   -0.0000   -0.0000    0.9179    0.1179    0.0000
       10 O2     2pz       -0.0046   -0.0204   -0.4040    0.0000   -0.0000    0.9954   -0.1033   -0.0000    0.0000    0.5271
--
 
 
      Input file to MOLDEN was generated!
 
 
++    Static properties:
      ------------------
 
 
      LoProp Charges per center
 

                   B1       O2    
      Nuclear      5.0000   8.0000
      Electronic  -4.7635  -8.2365
 
      Total        0.2365  -0.2365
--
 
 
      All orbitals with orbital energies smaller than  E(LUMO)+0.5 are printed
 
++    Molecular orbitals:
      -------------------
 
      Title: UHF orbitals (beta)

      Molecular orbitals for symmetry species 1: a  
 
          Orbital            1         2         3         4         5         6         7         8         9    
          Energy          -20.7694   -7.9807   -1.6144   -0.7727   -0.7727   -0.7117   -0.0158    0.3736    0.3736
          Occ. No.          1.0000    1.0000    1.0000    1.0000    1.0000    1.0000    0.0000    0.0000    0.0000
 
        1 B1     1s        -0.0016    0.9911   -0.2842    0.0000   -0.0000    0.2150   -0.0809   -0.0000   -0.0000
        2 B1     2s        -0.0042    0.0020   -0.0665   -0.0000   -0.0000    0.1168   -0.9698   -0.0000   -0.0000
        3 B1     2px        0.0000   -0.0000   -0.0000    0.0938    0.2703    0.0000    0.0000    0.1217   -1.1507
        4 B1     2py        0.0000    0.0000    0.0000    0.2703   -0.0938   -0.0000    0.0000   -1.1507   -0.1217
        5 B1     2pz       -0.0014    0.0027    0.1366   -0.0000    0.0000   -0.1527    0.4940   -0.0000   -0.0000
        6 O2     1s         1.0006   -0.0075   -0.0143    0.0000   -0.0000    0.0120    0.0208    0.0000    0.0000
        7 O2     2s         0.0053    0.0193    0.9181    0.0000    0.0000    0.3478    0.2624    0.0000    0.0000
        8 O2     2px        0.0000    0.0000    0.0000    0.2672    0.7700   -0.0000   -0.0000   -0.0914    0.8650
        9 O2     2py        0.0000   -0.0000    0.0000    0.7700   -0.2672   -0.0000   -0.0000    0.8650    0.0914
       10 O2     2pz       -0.0047   -0.0201   -0.3948    0.0000   -0.0000    0.9976   -0.1590   -0.0000    0.0000
--
 
 
++    Molecular charges:
      ------------------
 
      Mulliken charges per centre and basis function type
      ---------------------------------------------------
 
                            B1                      O2    
                     alpha        beta       alpha        beta
      1s           0.9999      1.0004      1.0006      1.0007
      2s           0.6254     -0.0384      0.9479      0.9656
      2px          0.2853      0.2088      0.7147      0.7912
      2pz          0.4470      0.0640      0.9792      1.0078
      2py          0.2853      0.2088      0.7147      0.7912
      Total        2.6429      1.4435      4.3571      4.5565
      Total              4.0864                  8.9136
 
      Charge            0.9136                 -0.9136
 
      Total electronic charge=   13.000000
 
      Total            charge=   -0.000000
--
 
 
      Input file to MOLDEN was generated!
 
 
++    Static properties:
      ------------------
 
 
      LoProp Charges per center
 

                   B1       O2    
      Nuclear      5.0000   8.0000
      Electronic  -4.7635  -8.2365
 
      Total        0.2365  -0.2365
--
 
 
++    Natural Bond Order analysis
      ---------------------------
      Based on LoProp computed density
      -------------------------------------------------------------------------------------
      Atom A       Atom B       Bond Order
      -------------------------------------------------------------------------------------
      NBO located      0.997 non-bonded electrons on atom O2        
      NBO located      0.963 non-bonded electrons on atom O2        
      The remaining    4.740 electrons are to be considered as diffuse
--
 
 
++    Molecular orbitals:
      -------------------
 
      Title: Natural orbitals

      Molecular orbitals for symmetry species 1: a  
 
          Orbital            1         2         3         4         5         6         7         8         9        10    
          Energy          -20.7518   -7.9508   -0.7562   -1.6224   -0.7686   -0.7686   -0.2960    0.3444    0.3444    0.8319
          Occ. No.          2.0000    2.0000    2.0000    2.0000    1.9975    1.9975    1.0000    0.0025    0.0025    0.0000
 
        1 B1     1s         0.0109    0.9622    0.1341    0.4052   -0.0000   -0.0000    0.0553    0.0000   -0.0000    0.4731
        2 B1     2s        -0.0017   -0.0047    0.0980    0.0877   -0.0000   -0.0000    0.8818    0.0000   -0.0000    1.6402
        3 B1     2px        0.0000   -0.0000    0.0000    0.0000    0.1421    0.2945   -0.0000    0.1356   -1.1382   -0.0000
        4 B1     2py        0.0000   -0.0000    0.0000    0.0000    0.2945   -0.1421   -0.0000   -1.1382   -0.1356   -0.0000
        5 B1     2pz       -0.0060    0.0155   -0.1165   -0.1718    0.0000    0.0000   -0.5774    0.0000   -0.0000    1.5166
        6 O2     1s         1.0006   -0.0100    0.0100   -0.0114   -0.0000   -0.0000   -0.0004   -0.0000    0.0000   -0.3748
        7 O2     2s        -0.0184    0.0902    0.5527   -0.8012    0.0000    0.0000   -0.1548   -0.0000    0.0000   -1.9830
        8 O2     2px        0.0000   -0.0000   -0.0000    0.0000    0.3406    0.7058    0.0000   -0.1062    0.8919    0.0000
        9 O2     2py        0.0000   -0.0000   -0.0000    0.0000    0.7058   -0.3406    0.0000    0.8919    0.1062    0.0000
       10 O2     2pz        0.0112   -0.0630    0.8777    0.6126    0.0000   -0.0000    0.1307    0.0000   -0.0000    0.5255
--
 
 
++    Molecular properties:
      ---------------------
 
      Charge (e):
                      =   -0.0000
      Dipole Moment (Debye):
      Origin of the operator (Ang)=    0.0000    0.0000    0.0000
                   X=  8.6927E-14               Y=  5.8622E-14               Z= -2.2759E+00           Total=  2.2759E+00
      Quadrupole Moment (Debye*Ang):
      Origin of the operator (Ang)=    0.0000    0.0000    0.4738
                  XX= -1.0851E+01              XY= -1.9017E-14              XZ= -6.5891E-14              YY= -1.0851E+01
                  YZ= -2.8053E-14              ZZ= -1.2039E+01
      In traceless form (Debye*Ang)
                  XX=  5.9386E-01              XY= -2.8526E-14              XZ= -9.8837E-14              YY=  5.9386E-01
                  YZ= -4.2080E-14              ZZ= -1.1877E+00
--
 
 
      Input file to MOLDEN was generated!
 
 ###############################################################################
 ###############################################################################
 ###                                                                         ###
 ###                                                                         ###
 ###    WARNING: RunFile label nBas                                          ###
 ###    was used       87 times                                              ###
 ###                                                                         ###
 ###                                                                         ###
 ###############################################################################
 ###############################################################################
--- Stop Module: scf at Thu Apr 25 13:38:12 2024 /rc=_RC_ALL_IS_WELL_ ---
*** files: 0.80.LprOrb 0.80.LoProp.molden 0.80.scf.molden 0.80.scf.h5 0.80.UhfOrb 0.80.UnaOrb xmldump
    saved to directory /home/grierjones/DDCASPT2/delta_ML/BO/0.80

*** symbolic link created: INPORB -> 0.80.UnaOrb
--- Start Module: mbpt2 at Thu Apr 25 13:38:12 2024 ---
 
()()()()()()()()()()()()()()()()()()()()()()()()()()()()()()()()()()()()()()()()()()()()()()()()()()

                                               &MBPT2

                                   only a single process is used
                       available to each process: 2.0 GB of memory, 1 thread?
                                             pid: 97931
()()()()()()()()()()()()()()()()()()()()()()()()()()()()()()()()()()()()()()()()()()()()()()()()()()
 
 
 ###############################################################################
 ###############################################################################
 ###                                                                         ###
 ###                                                                         ###
 ###    WARNING: MP2 implementation intended for RHF references only         ###
 ###                                                                         ###
 ###                                                                         ###
 ###############################################################################
 ###############################################################################
MBPT2 WARNING: Reference function according to RunFile:UHF-SCF 
I'll assume you know what you're doing and continue
 
 
WARNING!
Default frozen orbitals as non valence orbitals is overwritten by user input.
Default values:   2
 
 
      Cartesian coordinates in Angstrom:
      -----------------------------------------------------
      No.  Label        X            Y            Z        
      -----------------------------------------------------
       1   B1         0.00000000   0.00000000   0.00000000
       2   O2         0.00000000   0.00000000   0.80000000
      -----------------------------------------------------
      Nuclear repulsion energy =   26.45886055
 
      Contents of RUNFILE file:
      -------------------------
 
      Symmetry species                           1
                                                 a
      Number of basis functions                 10
      Frozen occupied orbitals                   0
      Active occupied orbitals                   7
      Active external orbitals                   3
      Deleted external orbitals                  0
 
 
      Energies of the active occupied orbitals
 
      symmetry species 1                   -20.764726     -8.006769     -1.608591     -0.767212     -0.767212
                                            -0.706232     -0.578590
 
 
      Energies of the active external orbitals
 
      symmetry species 1                     0.317964      0.317964      0.814932
 
 
      ********************************************************************************************************
      *                                               Results                                                *
      ********************************************************************************************************
 
 Conventional algorithm used...

       SCF energy                           =      -98.5484843732 a.u.
       Second-order correlation energy      =       -0.0612322422 a.u.

       Total energy                         =      -98.6097166153 a.u.
       Reference weight ( Cref**2 )         =        0.97506
 
::    Total MBPT2 energy                              -98.6097166153
 
 
       Zeroth-order energy (E0)             =      -39.9398039153 a.u.
 
       Shanks-type energy S1(E)             =      -98.6097806555 a.u.
 
 


       Data processing and timing information:

       Section                                              time(sec)
                                                          CPU  Elapsed

      Input data processing                              0.01      0.06
      Transformation of integrals                        0.00      0.00
      MBPT2 calculations (BJAI)                          0.00      0.00
      Total MBPT2 calculations                           0.01      0.06
 
 
--- Stop Module: mbpt2 at Thu Apr 25 13:38:12 2024 /rc=_RC_ALL_IS_WELL_ ---
*** files: xmldump
    saved to directory /home/grierjones/DDCASPT2/delta_ML/BO/0.80

*** symbolic link created: INPORB -> 0.80.UnaOrb
--- Start Module: rasscf at Thu Apr 25 13:38:12 2024 ---
 
()()()()()()()()()()()()()()()()()()()()()()()()()()()()()()()()()()()()()()()()()()()()()()()()()()

                                              &RASSCF

                                   only a single process is used
                       available to each process: 2.0 GB of memory, 1 thread?
                                             pid: 97934
()()()()()()()()()()()()()()()()()()()()()()()()()()()()()()()()()()()()()()()()()()()()()()()()()()
 
 
      Header of the ONEINT file:
      --------------------------
      
      Integrals generated by Gateway/Seward, Thu Apr 25 13:38:11 2024
 
 
      OrdInt status: non-squared
 
 
      Cartesian coordinates in Angstrom:
      -----------------------------------------------------
      No.  Label        X            Y            Z        
      -----------------------------------------------------
       1   B1         0.00000000   0.00000000   0.00000000
       2   O2         0.00000000   0.00000000   0.80000000
      -----------------------------------------------------
      Nuclear repulsion energy =   26.45886055
 
++    Wave function specifications:
      -----------------------------
 
      Number of closed shell electrons          12
      Number of electrons in active shells       1
      Max number of holes in RAS1 space          0
      Max nr of electrons in RAS3 space          0
      Number of inactive orbitals                6
      Number of active orbitals                  2
      Number of secondary orbitals               2
      Spin quantum number                      0.5
      State symmetry                             1
--
 
++    Orbital specifications:
      -----------------------
 
      Symmetry species                           1
                                                 a
      Frozen orbitals                            0
      Inactive orbitals                          6
      Active orbitals                            2
      RAS1 orbitals                              0
      RAS2 orbitals                              2
      RAS3 orbitals                              0
      Secondary orbitals                         2
      Deleted orbitals                           0
      Number of basis functions                 10
--
 
++    CI expansion specifications:
      ----------------------------
 
      Number of CSFs                             2
      Number of determinants                     2
      Number of root(s) required                 1
      Root chosen for geometry opt.              1
      CI root used                               1
         
      highest root included in the CI            1
      max. size of the explicit Hamiltonian      2
--
 
++    Optimization specifications:
      ----------------------------
 
      RASSCF algorithm: Conventional
      Maximum number of macro iterations       200
      Maximum number of SX iterations          100
      Threshold for RASSCF energy            1.000E-08
      Threshold for max MO rotation          1.000E-01
      Threshold for max BLB element          1.000E-04
      Level shift parameter                  5.000E-01
      Make Quasi-Newton update
--
 
      The MO-coefficients are taken from the file:
      /home/grierjones/DDCASPT2/delta_ML/BO/0.70/0.70.RasOrb                                                                                                                                                                                                          
      Title: RASSCF average (pseudo-natural) orbitals                                      
 
      Total molecular charge    0.00
 
      ************************************************************************************************************************
      *                                                                                                                      *
      *                                            Wave function control section                                             *
      *                                                                                                                      *
      ************************************************************************************************************************
 
 
                                         RASSCF iterations: Energy and convergence statistics
                                         ----------------------------------------------------
 
      Iter CI   SX   CI       RASSCF       Energy    max ROT     max BLB   max BLB  Level Ln srch  Step   QN   Walltime
          iter iter root      energy       change     param      element    value   shift minimum  type update hh:mm:ss
 Nr of preliminary CI iterations:   1
 ###############################################################################
 ###############################################################################
 ###                                                                         ###
 ###                                                                         ###
 ###    WARNING: Problems in orbital optimization.                           ###
 ###                                                                         ###
 ###                                                                         ###
 ###############################################################################
 ###############################################################################
  Warning: In symmetry  1, orbital p=   8 has diagonal density matrix element D(p,p) close to zero. D(p,p)=  2.455428E-29
        1   1    5    1   -98.53917453    0.00E+00   2.37E-02    4   9 1 -6.04E-02*  0.50   0.00    SX    NO    0:00:00
 ###############################################################################
 ###############################################################################
 ###                                                                         ###
 ###                                                                         ###
 ###    WARNING: Problems in orbital optimization.                           ###
 ###                                                                         ###
 ###                                                                         ###
 ###############################################################################
 ###############################################################################
  Warning: In symmetry  1, orbital p=   8 has diagonal density matrix element D(p,p) close to zero. D(p,p)=  2.465421E-29
        2   1    5    1   -98.54545182   -6.28E-03*  1.59E-02    3  10 1 -1.48E-02*  0.50   0.00    SX    NO    0:00:00
 ###############################################################################
 ###############################################################################
 ###                                                                         ###
 ###                                                                         ###
 ###    WARNING: Problems in orbital optimization.                           ###
 ###                                                                         ###
 ###                                                                         ###
 ###############################################################################
 ###############################################################################
  Warning: In symmetry  1, orbital p=   8 has diagonal density matrix element D(p,p) close to zero. D(p,p)=  2.413066E-29
        3   1    4    1   -98.54612317   -6.71E-04*  9.69E-03    6   7 1 -8.91E-03*  0.50   0.00    SX    NO    0:00:00
 ###############################################################################
 ###############################################################################
 ###                                                                         ###
 ###                                                                         ###
 ###    WARNING: Problems in orbital optimization.                           ###
 ###                                                                         ###
 ###                                                                         ###
 ###############################################################################
 ###############################################################################
  Warning: In symmetry  1, orbital p=   8 has diagonal density matrix element D(p,p) close to zero. D(p,p)=  2.370096E-29
        4   1    4    1   -98.54630233   -1.79E-04*  5.85E-03    6   7 1 -5.36E-03*  0.50   0.00    SX    NO    0:00:00
 ###############################################################################
 ###############################################################################
 ###                                                                         ###
 ###                                                                         ###
 ###    WARNING: Problems in orbital optimization.                           ###
 ###                                                                         ###
 ###                                                                         ###
 ###############################################################################
 ###############################################################################
  Warning: In symmetry  1, orbital p=   8 has diagonal density matrix element D(p,p) close to zero. D(p,p)=  2.341537E-29
        5   1    4    1   -98.54635885   -5.65E-05*  7.85E-03    6   7 1 -3.22E-03*  0.50   2.36    LS   YES    0:00:00
 ###############################################################################
 ###############################################################################
 ###                                                                         ###
 ###                                                                         ###
 ###    WARNING: Problems in orbital optimization.                           ###
 ###                                                                         ###
 ###                                                                         ###
 ###############################################################################
 ###############################################################################
  Warning: In symmetry  1, orbital p=   8 has diagonal density matrix element D(p,p) close to zero. D(p,p)=  2.302784E-29
        6   1    4    1   -98.54638708   -2.82E-05*  6.39E-04    3  10 1  1.04E-03*  0.50   1.02    QN   YES    0:00:00
 ###############################################################################
 ###############################################################################
 ###                                                                         ###
 ###                                                                         ###
 ###    WARNING: Problems in orbital optimization.                           ###
 ###                                                                         ###
 ###                                                                         ###
 ###############################################################################
 ###############################################################################
  Warning: In symmetry  1, orbital p=   8 has diagonal density matrix element D(p,p) close to zero. D(p,p)=  2.298667E-29
        7   1    4    1   -98.54638860   -1.52E-06*  4.64E-04    3  10 1  5.12E-04*  0.50   1.73    LS   YES    0:00:00
 ###############################################################################
 ###############################################################################
 ###                                                                         ###
 ###                                                                         ###
 ###    WARNING: Problems in orbital optimization.                           ###
 ###                                                                         ###
 ###                                                                         ###
 ###############################################################################
 ###############################################################################
  Warning: In symmetry  1, orbital p=   8 has diagonal density matrix element D(p,p) close to zero. D(p,p)=  2.295676E-29
        8   1    3    1   -98.54638893   -3.28E-07*  8.97E-05    6  10 1 -1.36E-04*  0.50   1.00    QN   YES    0:00:00
 ###############################################################################
 ###############################################################################
 ###                                                                         ###
 ###                                                                         ###
 ###    WARNING: Problems in orbital optimization.                           ###
 ###                                                                         ###
 ###                                                                         ###
 ###############################################################################
 ###############################################################################
  Warning: In symmetry  1, orbital p=   8 has diagonal density matrix element D(p,p) close to zero. D(p,p)=  2.296462E-29
        9   1    3    1   -98.54638895   -2.15E-08* -2.21E-05    6  10 1 -4.81E-05   0.50   1.25    QN   YES    0:00:00
 ###############################################################################
 ###############################################################################
 ###                                                                         ###
 ###                                                                         ###
 ###    WARNING: Problems in orbital optimization.                           ###
 ###                                                                         ###
 ###                                                                         ###
 ###############################################################################
 ###############################################################################
  Warning: In symmetry  1, orbital p=   8 has diagonal density matrix element D(p,p) close to zero. D(p,p)=  2.296752E-29
       10   1    3    1   -98.54638895   -1.92E-09  -4.29E-06    3  10 1 -9.10E-06   0.50   1.14    QN   YES    0:00:00
      Convergence after 10 iterations
       11   1    3    1   -98.54638895   -7.46E-11  -4.29E-06    3  10 1 -1.94E-06   0.50   1.14    QN   YES    0:00:00
 
      ************************************************************************************************************************
                                                      Wave function printout:
                       occupation of active orbitals, and spin coupling of open shells (u,d: Spin up or down)
      ************************************************************************************************************************
 
      Note: transformation to natural orbitals
      has been made, which may change the order of the CSFs.
 
      printout of CI-coefficients larger than  0.05 for root  1
      energy=     -98.546389
      conf/sym  11     Coeff  Weight
             1  u0   1.00000 1.00000
 
      Natural orbitals and occupation numbers for root  1
      sym 1:   1.000000   0.000000
 
      ************************************************************************************************************************
      *                                                                                                                      *
      *                                                    Final results                                                     *
      *                                                                                                                      *
      ************************************************************************************************************************
 
 
++    Wave function specifications:
      -----------------------------
 
      Number of closed shell electrons          12
      Number of electrons in active shells       1
      Max number of holes in RAS1 space          0
      Max nr of electrons in RAS3 space          0
      Number of inactive orbitals                6
      Number of active orbitals                  2
      Number of secondary orbitals               2
      Spin quantum number                      0.5
      State symmetry                             1
--
 
++    Orbital specifications:
      -----------------------
 
      Symmetry species                           1
                                                 a
      Frozen orbitals                            0
      Inactive orbitals                          6
      Active orbitals                            2
      RAS1 orbitals                              0
      RAS2 orbitals                              2
      RAS3 orbitals                              0
      Secondary orbitals                         2
      Deleted orbitals                           0
      Number of basis functions                 10
--
 
++    CI expansion specifications:
      ----------------------------
 
      Number of CSFs                             2
      Number of determinants                     2
      Number of root(s) required                 1
      CI root used                               1
      highest root included in the CI            1
      Root passed to geometry opt.               1
--
 
++    Final optimization conditions:
      ------------------------------
 
      Average CI energy                             -98.54638895
      RASSCF energy for state  1                    -98.54638895
      Super-CI energy                                -0.00000000
      RASSCF energy change                           -0.00000000
      Max change in MO coefficients              -6.751E-06
      Max non-diagonal density matrix element    -4.291E-06
      Maximum BLB matrix element                 -1.939E-06
      (orbital pair   3,  10 in symmetry   1)
      Norm of electronic gradient            2.560E-06
--
 
 
      Final state energy(ies):
      ------------------------
 
::    RASSCF root number  1 Total energy:    -98.54638895
 
++    Molecular orbitals:
      -------------------
 
      Pseudonatural active orbitals and approximate occupation numbers
 
 
 
 
      Molecular orbitals for symmetry species 1: a  
 
 
      Orbital                 1         2         3         4         5         6         7         8         9        10
      Energy           -20.7653   -7.9941   -1.6106   -0.7686   -0.7686   -0.7077   -0.2963    0.0000    0.3450    0.8323
      Occ. No.           2.0000    2.0000    2.0000    2.0000    2.0000    2.0000    1.0000    0.0000    0.0000    0.0000
 
     1 B1     1s        -0.0015    0.9909   -0.2844   -0.0000    0.0000    0.2127   -0.0556   -0.0000    0.0000   -0.4733
     2 B1     2s        -0.0040    0.0017   -0.0599   -0.0000   -0.0000    0.1138   -0.8794   -0.0000   -0.0000   -1.6417
     3 B1     2px        0.0000    0.0000    0.0000   -0.1343   -0.2972    0.0000    0.0000    0.3014   -1.1062    0.0000
     4 B1     2py       -0.0000    0.0000    0.0000   -0.2972    0.1343   -0.0000    0.0000   -1.1062   -0.3014    0.0000
     5 B1     2pz       -0.0013    0.0023    0.1401    0.0000    0.0000   -0.1518    0.5807   -0.0000   -0.0000   -1.5156
     6 O2     1s         1.0006   -0.0075   -0.0153   -0.0000    0.0000    0.0122   -0.0003    0.0000    0.0000    0.3748
     7 O2     2s         0.0050    0.0198    0.9096   -0.0000    0.0000    0.3557    0.1536    0.0000    0.0000    1.9835
     8 O2     2px       -0.0000   -0.0000   -0.0000   -0.3230   -0.7148   -0.0000    0.0000   -0.2360    0.8660   -0.0000
     9 O2     2py        0.0000   -0.0000    0.0000   -0.7148    0.3230   -0.0000    0.0000    0.8660    0.2360   -0.0000
    10 O2     2pz       -0.0046   -0.0203   -0.3998   -0.0000    0.0000    0.9943   -0.1327   -0.0000    0.0000   -0.5259
--
 
      Von Neumann Entropy (Root   1) =  0.50000
 

      Mulliken population analysis for root number:  1
      -----------------------------------------------
 
 
++    Molecular charges:
      ------------------
 
      Mulliken charges per centre and basis function type
      ---------------------------------------------------
 
                B1      O2    
      1s       2.0003  2.0013
      2s       0.5865  1.9125
      2px      0.4911  1.5089
      2pz      0.5121  1.9874
      2py      0.4911  1.5089
      Total    4.0810  8.9190
 
      N-E      0.9190 -0.9190
 
      Total electronic charge=   13.000000
 
      Total            charge=   -0.000000
--
 
 

      Expectation values of various properties for root number:  1
      -----------------------------------------------------------
 
 
++    Molecular properties:
      ---------------------
 
      Charge (e):
                      =   -0.0000
      Dipole Moment (Debye):
      Origin of the operator (Ang)=    0.0000    0.0000    0.0000
                   X= -1.5455E-15               Y= -1.6218E-14               Z= -2.2954E+00           Total=  2.2954E+00
      Quadrupole Moment (Debye*Ang):
      Origin of the operator (Ang)=    0.0000    0.0000    0.4738
                  XX= -1.0842E+01              XY= -1.9998E-14              XZ=  7.8558E-14              YY= -1.0842E+01
                  YZ= -3.4596E-15              ZZ= -1.2034E+01
      In traceless form (Debye*Ang)
                  XX=  5.9594E-01              XY= -2.9997E-14              XZ=  1.1784E-13              YY=  5.9594E-01
                  YZ= -5.1894E-15              ZZ= -1.1919E+00
--
 

      Mulliken spin population analysis for root number:  1
      ---------------------------------------------------
 
 
++    Molecular charges:
      ------------------
 
      Mulliken spin population per centre and basis function type
      ---------------------------------------------------
 
                B1      O2    
      1s      -0.0003  0.0000
      2s       0.6549 -0.0090
      2px      0.0000  0.0000
      2pz      0.3816 -0.0272
      2py      0.0000  0.0000
      Total    1.0362 -0.0362
 
      Total electronic spin=    1.000000
--
 
 

      LoProp population analysis for root number:  1
      -----------------------------------------------
 
 
++    LoProp analysis:
      ----------------
 
 
 
      Input file to MOLDEN was generated!
 
 
++    Static properties:
      ------------------
 
 
      LoProp Charges per center
 

                   B1       O2    
      Nuclear      5.0000   8.0000
      Electronic  -4.7586  -8.2414
 
      Total        0.2414  -0.2414
--
 
 
      Natural Bond Order analysis for root number:  1
 
++    Natural Bond Order analysis
      ---------------------------
      Based on LoProp computed density
      -------------------------------------------------------------------------------------
      Atom A       Atom B       Bond Order
      -------------------------------------------------------------------------------------
      NBO located      0.997 non-bonded electrons on atom O2        
      NBO located      0.964 non-bonded electrons on atom O2        
      The remaining    4.746 electrons are to be considered as diffuse
--
 
--
 
 
      Input file to MOLDEN was generated!
 
 
      Input file to MOLDEN was generated!
 
      Average orbitals are written to the RASORB file
      Natural orbitals for root   1 are written to the RASORB.1 file
      Spin density orbitals for root   1 are written to the SPDORB.1 file
 
--- Stop Module: rasscf at Thu Apr 25 13:38:13 2024 /rc=_RC_ALL_IS_WELL_ ---
*** files: 0.80.LprOrb 0.80.rasscf.molden 0.80.rasscf.molden.1 0.80.LoProp.molden 0.80.RasOrb.1 0.80.RasOrb 0.80.rasscf.h5 0.80.SpdOrb.1 xmldump
    saved to directory /home/grierjones/DDCASPT2/delta_ML/BO/0.80

*** symbolic link created: INPORB -> 0.80.RasOrb
--- Start Module: caspt2 at Thu Apr 25 13:38:13 2024 ---
 
()()()()()()()()()()()()()()()()()()()()()()()()()()()()()()()()()()()()()()()()()()()()()()()()()()

                                              &CASPT2

                                   only a single process is used
                       available to each process: 2.0 GB of memory, 1 thread?
                                             pid: 97938
()()()()()()()()()()()()()()()()()()()()()()()()()()()()()()()()()()()()()()()()()()()()()()()()()()
 
 ###############################################################################
 ###############################################################################
 ###                                                                         ###
 ###                                                                         ###
 ###    WARNING: User changed nr of frozen orbitals.                         ###
 ###                                                                         ###
 ###                                                                         ###
 ###############################################################################
 ###############################################################################
 
++    Wave function specifications:
      -----------------------------
 
      Number of closed shell electrons          12
      Number of electrons in active shells       1
      Max number of holes in RAS1 space          0
      Max number of electrons in RAS3 space      0
      Number of inactive orbitals                6
      Number of active orbitals                  2
      Number of secondary orbitals               2
      Spin quantum number                      0.5
      State symmetry                             1
      Number of CSFs                             2
      Number of CASSCF root(s) available         1
      CASPT2 state passed to geometry opt.       1
      A file JOBMIX will be created
      This is a CASSCF or RASSCF reference function
--
 
++    Orbital specifications:
      -----------------------
 
      Symmetry species                           1
                                                 a
      Frozen orbitals                            0
      Inactive orbitals                          6
      Active orbitals                            2
      Secondary orbitals                         2
      Deleted orbitals                           0
      Number of basis functions                 10
--
 
++    CASPT2 specifications:
      ----------------------
 
      Type of calculation                        SS-CASPT2
      Fock operator                              state-specific
      IPEA shift                                 0.25
      Real shift                                 0.00
      Imaginary shift                            0.00
      The input orbitals will be transformed to quasi-canonical
--
 
--------------------------------------------------------------------------------
 Estimated memory requirements:
  POLY3 :                   250056
  RHS:                      250428
  SIGMA :                   250384
  PRPCTL:                        0
 Available workspace:    230392719
 
++ CASPT2 computation for group   1
 
********************************************************************************
 Multi-State initialization phase begins for group   1
--------------------------------------------------------------------------------
********************************************************************************
 Compute H0 matrices for state    1
--------------------------------------------------------------------------------
--------------------------------------------------------------------------------
 H0 matrices have been computed.
 
********************************************************************************
  CASPT2 EQUATION SOLUTION
--------------------------------------------------------------------------------
 
  Total nr of CASPT2 parameters:
   Before reduction:         518
   After  reduction:         377
 
 Variance of |WF0>:       0.1431797992
 
 The contributions to the second order correlation energy in atomic units.
-----------------------------------------------------------------------------------------------------------------------------
  IT.      VJTU        VJTI        ATVX        AIVX        VJAI        BVAT        BJAT        BJAI        TOTAL       RNORM  
-----------------------------------------------------------------------------------------------------------------------------
   1    -0.000960   -0.009054   -0.000000   -0.001785   -0.023458    0.000000   -0.001048   -0.016299   -0.052604    0.000016
-----------------------------------------------------------------------------------------------------------------------------
 
  FINAL CASPT2 RESULT:
 
      Reference energy:         -98.5463889550
      E2 (Non-variational):      -0.0526052375
      E2 (Variational):          -0.0526052335
      Total energy:             -98.5989941885
      Residual norm:              0.0000001495
      Reference weight:           0.97906
 
      Contributions to the CASPT2 correlation energy
      Active & Virtual Only:         -0.0000000000
      One Inactive Excited:          -0.0037935499
      Two Inactive Excited:          -0.0488116877
 
 
++ Denominators, etc.
--------------------------------------------------------------------------------------------------------------
 Report on small energy denominators, large coefficients, and large energy contributions.
CASE  SYMM ACTIVE-MIX  NON-ACTIVE INDICES          DENOMINATOR     RHS VALUE       COEFFICIENT     CONTRIBUTION
VJTIP    1  Mu1.0002  In1.004 In1.004               2.22723197      0.08606546     -0.03864234     -0.00332577
VJTIP    1  Mu1.0002  In1.005 In1.004               2.22723197     -0.07992075      0.03588344     -0.00286783
VJTIP    1  Mu1.0002  In1.005 In1.005               2.22723197      0.05701259     -0.02559796     -0.00145941
VJAIP    1  Mu1.0002  Se1.009 In1.004 In1.004       2.22723197      0.07992075     -0.03588344     -0.00286783
VJAIP    1  Mu1.0002  Se1.009 In1.005 In1.005       2.22723197     -0.07992075      0.03588344     -0.00286783
VJAIM    1  Mu1.0002  Se1.009 In1.005 In1.004       2.22723197      0.15643969     -0.07023952     -0.01098825
BJAIP    1  Se1.009 In1.004 Se1.009 In1.004         2.22723197      0.05701259     -0.02559796     -0.00145941
BJAIP    1  Se1.009 In1.004 Se1.009 In1.005         2.22723197      0.07992075     -0.03588344     -0.00286783
BJAIP    1  Se1.009 In1.005 Se1.009 In1.005         2.22723197      0.08606546     -0.03864234     -0.00332577
--
 
   (Skipping property calculation,
    use PROP keyword to activate)
--
 
  Total CASPT2 energies:
::    CASPT2 Root  1     Total energy:    -98.59899419
 
  A NEW JOBIPH FILE NAMED 'JOBMIX' IS PREPARED.
********************************************************************************
--- Stop Module: caspt2 at Thu Apr 25 13:38:13 2024 /rc=_RC_ALL_IS_WELL_ ---
*** files: xmldump
    saved to directory /home/grierjones/DDCASPT2/delta_ML/BO/0.80

.##################.
.# Happy landing! #.
.##################.

    Timing: Wall=2.33 User=1.64 System=0.22
************************************
*** WorkDir at /tmp/0.80 removed ***
************************************
