[Molden Format]
[N_Atoms]
                     2
[Atoms] (AU)
B1          1      5           0.00000000      0.00000000      0.00000000
O2          2      8           0.00000000      0.00000000      1.51178090
[Charge] (Mulliken)
  0.918981504777340     
 -0.918981504777344     
[GTO] (AU)
   1
   s  14
  3.336021700E+04  1.039699991E-04
  4.972095200E+03  5.254399956E-04
  1.125641700E+03  2.509059979E-03
  3.164913600E+02  1.031887991E-02
  1.020072600E+02  3.636632969E-02
  3.629587300E+01  1.064607991E-01
  1.397141000E+01  2.403999880E-01
  5.741156000E+00  3.748581168E-01
  2.494268000E+00  3.100066974E-01
  1.114202000E+00  7.922455933E-02
  4.215490000E-01 -4.947589958E-03
  1.696330000E-01 -7.737119935E-03
  6.853500000E-02 -1.501079987E-03
  2.398700000E-02 -1.333299989E-04
   s  14
  3.336021700E+04 -2.030000008E-05
  4.972095200E+03 -1.025700004E-04
  1.125641700E+03 -4.911300020E-04
  3.164913600E+02 -2.026570008E-03
  1.020072600E+02 -7.261010030E-03
  3.629587300E+01 -2.197722009E-02
  1.397141000E+01 -5.408428022E-02
  5.741156000E+00 -1.022402604E-01
  2.494268000E+00 -1.423595206E-01
  1.114202000E+00 -4.658690019E-02
  4.215490000E-01  3.799402916E-01
  1.696330000E-01  5.890463624E-01
  6.853500000E-02  1.749075107E-01
  2.398700000E-02 -1.142030005E-03
   p   9
  5.500000000E+01  1.229800005E-03
  1.336610100E+01  8.827380035E-03
  4.135394000E+00  3.843340015E-02
  1.481256000E+00  1.150031805E-01
  6.021360000E-01  2.733674011E-01
  2.556360000E-01  4.061972116E-01
  1.111510000E-01  3.014967912E-01
  4.764800000E-02  7.684809030E-02
  1.667700000E-02 -8.170000032E-06
 
   2
   s  14
  1.053749500E+05  1.238600013E-04
  1.567924000E+04  5.120100053E-04
  3.534544700E+03  2.152910022E-03
  9.873651600E+02  8.528440089E-03
  3.159787500E+02  3.018049031E-02
  1.116542800E+02  9.099702095E-02
  4.269945100E+01  2.177936423E-01
  1.739559600E+01  3.686245738E-01
  7.438309000E+00  3.366707335E-01
  3.222862000E+00  9.657630101E-02
  1.253877000E+00  2.144520022E-03
  4.951550000E-01  1.194350012E-03
  1.916650000E-01  5.390200056E-04
  6.708300000E-02  2.103400022E-04
   s  14
  1.053749500E+05 -2.815000008E-05
  1.567924000E+04 -1.163000003E-04
  3.534544700E+03 -4.909200013E-04
  9.873651600E+02 -1.946160005E-03
  3.159787500E+02 -7.005300019E-03
  1.116542800E+02 -2.167814006E-02
  4.269945100E+01 -5.641213015E-02
  1.739559600E+01 -1.127053003E-01
  7.438309000E+00 -1.589119704E-01
  3.222862000E+00 -3.355083009E-02
  1.253877000E+00  3.531902810E-01
  4.951550000E-01  5.534199315E-01
  1.916650000E-01  2.301839106E-01
  6.708300000E-02  1.127267003E-02
   p   9
  2.000000000E+02  9.173000030E-04
  4.653336700E+01  7.377140024E-03
  1.462180900E+01  3.483515011E-02
  5.313064000E+00  1.144397004E-01
  2.102525000E+00  2.554966408E-01
  8.502230000E-01  3.722557412E-01
  3.375970000E-01  3.323314911E-01
  1.288920000E-01  1.400847905E-01
  4.511200000E-02  2.395784008E-02
 
[MO]
Sym=     1a  
Ene=   -20.7650
Spin= Alpha
Occup=    1.00000
   1        -0.00150240
   2        -0.00401177
   3         0.00000000
   4        -0.00000000
   5        -0.00134083
   6         1.00057436
   7         0.00503863
   8        -0.00000000
   9         0.00000000
  10        -0.00464208
Sym=     1a  
Ene=   -20.7650
Spin= Beta
Occup=    1.00000
   1        -0.00150240
   2        -0.00401177
   3         0.00000000
   4        -0.00000000
   5        -0.00134083
   6         1.00057436
   7         0.00503863
   8        -0.00000000
   9         0.00000000
  10        -0.00464208
Sym=     2a  
Ene=    -7.9941
Spin= Alpha
Occup=    1.00000
   1         0.99092163
   2         0.00171880
   3         0.00000000
   4         0.00000000
   5         0.00234203
   6        -0.00747577
   7         0.01980453
   8        -0.00000000
   9        -0.00000000
  10        -0.02034082
Sym=     2a  
Ene=    -7.9941
Spin= Beta
Occup=    1.00000
   1         0.99092163
   2         0.00171880
   3         0.00000000
   4         0.00000000
   5         0.00234203
   6        -0.00747577
   7         0.01980453
   8        -0.00000000
   9        -0.00000000
  10        -0.02034082
Sym=     3a  
Ene=    -1.6106
Spin= Alpha
Occup=    1.00000
   1        -0.28435952
   2        -0.05991958
   3         0.00000000
   4         0.00000000
   5         0.14014854
   6        -0.01525696
   7         0.90958048
   8        -0.00000000
   9         0.00000000
  10        -0.39980368
Sym=     3a  
Ene=    -1.6106
Spin= Beta
Occup=    1.00000
   1        -0.28435952
   2        -0.05991958
   3         0.00000000
   4         0.00000000
   5         0.14014854
   6        -0.01525696
   7         0.90958048
   8        -0.00000000
   9         0.00000000
  10        -0.39980368
Sym=     4a  
Ene=    -0.7686
Spin= Alpha
Occup=    1.00000
   1        -0.00000000
   2        -0.00000000
   3        -0.13428660
   4        -0.29717191
   5         0.00000000
   6        -0.00000000
   7        -0.00000000
   8        -0.32299753
   9        -0.71478309
  10        -0.00000000
Sym=     4a  
Ene=    -0.7686
Spin= Beta
Occup=    1.00000
   1        -0.00000000
   2        -0.00000000
   3        -0.13428660
   4        -0.29717191
   5         0.00000000
   6        -0.00000000
   7        -0.00000000
   8        -0.32299753
   9        -0.71478309
  10        -0.00000000
Sym=     5a  
Ene=    -0.7686
Spin= Alpha
Occup=    1.00000
   1         0.00000000
   2        -0.00000000
   3        -0.29717191
   4         0.13428660
   5         0.00000000
   6         0.00000000
   7         0.00000000
   8        -0.71478309
   9         0.32299753
  10         0.00000000
Sym=     5a  
Ene=    -0.7686
Spin= Beta
Occup=    1.00000
   1         0.00000000
   2        -0.00000000
   3        -0.29717191
   4         0.13428660
   5         0.00000000
   6         0.00000000
   7         0.00000000
   8        -0.71478309
   9         0.32299753
  10         0.00000000
Sym=     6a  
Ene=    -0.7077
Spin= Alpha
Occup=    1.00000
   1         0.21271873
   2         0.11383806
   3         0.00000000
   4        -0.00000000
   5        -0.15178516
   6         0.01218118
   7         0.35565172
   8        -0.00000000
   9        -0.00000000
  10         0.99428390
Sym=     6a  
Ene=    -0.7077
Spin= Beta
Occup=    1.00000
   1         0.21271873
   2         0.11383806
   3         0.00000000
   4        -0.00000000
   5        -0.15178516
   6         0.01218118
   7         0.35565172
   8        -0.00000000
   9        -0.00000000
  10         0.99428390
Sym=     7a  
Ene=    -0.2963
Spin= Alpha
Occup=    1.00000
   1        -0.05558022
   2        -0.87938963
   3         0.00000000
   4         0.00000000
   5         0.58073047
   6        -0.00027806
   7         0.15364242
   8         0.00000000
   9         0.00000000
  10        -0.13266480
Sym=     7a  
Ene=    -0.2963
Spin= Beta
Occup=    0.00000
   1        -0.05558022
   2        -0.87938963
   3         0.00000000
   4         0.00000000
   5         0.58073047
   6        -0.00027806
   7         0.15364242
   8         0.00000000
   9         0.00000000
  10        -0.13266480
Sym=     8a  
Ene=     0.0000
Spin= Alpha
Occup=    0.00000
   1        -0.00000000
   2        -0.00000000
   3         0.30140977
   4        -1.10618009
   5        -0.00000000
   6         0.00000000
   7         0.00000000
   8        -0.23595836
   9         0.86597208
  10        -0.00000000
Sym=     8a  
Ene=     0.0000
Spin= Beta
Occup=    0.00000
   1        -0.00000000
   2        -0.00000000
   3         0.30140977
   4        -1.10618009
   5        -0.00000000
   6         0.00000000
   7         0.00000000
   8        -0.23595836
   9         0.86597208
  10        -0.00000000
Sym=     9a  
Ene=     0.3450
Spin= Alpha
Occup=    0.00000
   1         0.00000000
   2        -0.00000000
   3        -1.10618009
   4        -0.30140977
   5        -0.00000000
   6         0.00000000
   7         0.00000000
   8         0.86597208
   9         0.23595836
  10         0.00000000
Sym=     9a  
Ene=     0.3450
Spin= Beta
Occup=    0.00000
   1         0.00000000
   2        -0.00000000
   3        -1.10618009
   4        -0.30140977
   5        -0.00000000
   6         0.00000000
   7         0.00000000
   8         0.86597208
   9         0.23595836
  10         0.00000000
Sym=    10a  
Ene=     0.8323
Spin= Alpha
Occup=    0.00000
   1        -0.47331707
   2        -1.64174104
   3         0.00000000
   4         0.00000000
   5        -1.51556375
   6         0.37481935
   7         1.98349877
   8        -0.00000000
   9        -0.00000000
  10        -0.52589237
Sym=    10a  
Ene=     0.8323
Spin= Beta
Occup=    0.00000
   1        -0.47331707
   2        -1.64174104
   3         0.00000000
   4         0.00000000
   5        -1.51556375
   6         0.37481935
   7         1.98349877
   8        -0.00000000
   9        -0.00000000
  10        -0.52589237
