[Molden Format]
[N_Atoms]
                     2
[Atoms] (AU)
BE1         1      4           0.00000000      0.00000000      0.00000000
LI2         2      3           0.00000000      0.00000000      2.45664396
[Charge] (Mulliken)
 -0.209564275698526     
  0.209564275698516     
[GTO] (AU)
   1
   s  14
  2.262859900E+04  8.443999941E-05
  3.372318100E+03  4.601499968E-04
  7.603504000E+02  2.285389984E-03
  2.117404800E+02  9.648129932E-03
  6.722346800E+01  3.494469975E-02
  2.337217700E+01  1.061099893E-01
  8.721373000E+00  2.458240383E-01
  3.468091000E+00  3.862428773E-01
  1.452144000E+00  3.105526078E-01
  6.086150000E-01  6.415933955E-02
  2.576860000E-01 -2.265049984E-03
  1.041760000E-01 -5.217499963E-04
  4.242700000E-02 -8.757499938E-04
  1.484900000E-02  1.242199991E-04
   s  14
  2.262859900E+04 -1.586999994E-05
  3.372318100E+03 -8.656999968E-05
  7.603504000E+02 -4.302199984E-04
  2.117404800E+02 -1.825079993E-03
  6.722346800E+01 -6.682749976E-03
  2.337217700E+01 -2.095119992E-02
  8.721373000E+00 -5.200308981E-02
  3.468091000E+00 -9.849176964E-02
  1.452144000E+00 -1.355800695E-01
  6.086150000E-01 -6.429875976E-02
  2.576860000E-01  3.125414989E-01
  1.041760000E-01  6.270468577E-01
  4.242700000E-02  2.110231492E-01
  1.484900000E-02 -4.104669985E-03
   p   9
  3.371018400E+01  1.069960000E-03
  8.057649500E+00  6.828550001E-03
  2.836471400E+00  2.119065000E-02
  1.099965700E+00  5.843696001E-02
  4.433964000E-01  2.020920800E-01
  1.822264000E-01  4.582953101E-01
  7.572410000E-02  3.691239601E-01
  3.168540000E-02  6.611471001E-02
  1.108990000E-02  1.405160000E-03
 
   2
   s  14
  9.497934400E+03  9.668999974E-05
  1.416811200E+03  6.087099984E-04
  3.214599400E+02  3.101519992E-03
  9.112416300E+01  1.266904997E-02
  2.999989100E+01  4.248012989E-02
  1.101763100E+01  1.150183297E-01
  4.372801000E+00  2.398650094E-01
  1.831256000E+00  3.584300090E-01
  8.022610000E-01  3.048527792E-01
  3.626480000E-01  8.824261976E-02
  1.139950000E-01 -8.445899977E-04
  5.123700000E-02 -7.943959979E-03
  2.246800000E-02 -3.764419990E-03
  7.860000000E-03 -8.868999976E-05
   s  14
  9.497934400E+03 -1.244999993E-05
  1.416811200E+03 -7.838999954E-05
  3.214599400E+02 -4.007099976E-04
  9.112416300E+01 -1.645249990E-03
  2.999989100E+01 -5.634599967E-03
  1.101763100E+01 -1.590780991E-02
  4.372801000E+00 -3.612581979E-02
  1.831256000E+00 -6.459927962E-02
  8.022610000E-01 -1.008321794E-01
  3.626480000E-01 -9.757613942E-02
  1.139950000E-01  2.301215886E-01
  5.123700000E-02  6.102389764E-01
  2.246800000E-02  2.849406083E-01
  7.860000000E-03  4.026899976E-03
   p   9
  1.311950400E+01  1.524940000E-03
  3.077424200E+00  8.314830000E-03
  1.098800500E+00  1.933203000E-02
  4.357784000E-01  4.934293000E-02
  1.802432000E-01  1.623554000E-01
  7.613330000E-02  3.847505400E-01
  3.254650000E-02  4.336100400E-01
  1.401820000E-02  1.287005900E-01
  4.906400000E-03 -1.018520000E-03
 
[MO]
Sym=     1a  
Ene=    -4.7779
Spin= Alpha
Occup=    1.00000
   1         1.00000851
   2         0.00393130
   3         0.00000018
   4         0.00000006
   5         0.00390263
   6         0.00383017
   7        -0.00199672
   8        -0.00000014
   9        -0.00000005
  10        -0.00080299
Sym=     1a  
Ene=    -4.7779
Spin= Beta
Occup=    1.00000
   1         1.00000851
   2         0.00393130
   3         0.00000018
   4         0.00000006
   5         0.00390263
   6         0.00383017
   7        -0.00199672
   8        -0.00000014
   9        -0.00000005
  10        -0.00080299
Sym=     2a  
Ene=    -2.6099
Spin= Alpha
Occup=    1.00000
   1        -0.02338705
   2         0.00705405
   3        -0.00000015
   4        -0.00000005
   5         0.01069487
   6         0.99510294
   7         0.00303878
   8         0.00000035
   9         0.00000013
  10        -0.00322297
Sym=     2a  
Ene=    -2.6099
Spin= Beta
Occup=    1.00000
   1        -0.02338705
   2         0.00705405
   3        -0.00000015
   4        -0.00000005
   5         0.01069487
   6         0.99510294
   7         0.00303878
   8         0.00000035
   9         0.00000013
  10        -0.00322297
Sym=     3a  
Ene=    -0.3214
Spin= Alpha
Occup=    1.00000
   1        -0.04674971
   2         0.77097332
   3         0.00000110
   4         0.00000039
   5         0.07721791
   6        -0.19664387
   7         0.22496841
   8        -0.00000521
   9        -0.00000187
  10        -0.14418627
Sym=     3a  
Ene=    -0.3214
Spin= Beta
Occup=    1.00000
   1        -0.04674971
   2         0.77097332
   3         0.00000110
   4         0.00000039
   5         0.07721791
   6        -0.19664387
   7         0.22496841
   8        -0.00000521
   9        -0.00000187
  10        -0.14418627
Sym=     4a  
Ene=    -0.0009
Spin= Alpha
Occup=    1.00000
   1         0.00000342
   2         0.00002332
   3         0.69146177
   4         0.24844775
   5         0.00000730
   6        -0.00000751
   7        -0.00001938
   8         0.33492213
   9         0.12034020
  10         0.00000792
Sym=     4a  
Ene=    -0.0009
Spin= Beta
Occup=    0.00000
   1         0.00000342
   2         0.00002332
   3         0.69146177
   4         0.24844775
   5         0.00000730
   6        -0.00000751
   7        -0.00001938
   8         0.33492213
   9         0.12034020
  10         0.00000792
Sym=     5a  
Ene=     0.0008
Spin= Alpha
Occup=    0.00000
   1         0.00000000
   2         0.00000000
   3        -0.14036184
   4         0.39064491
   5        -0.00000000
   6        -0.00000000
   7        -0.00000000
   8        -0.23088261
   9         0.64257574
  10        -0.00000000
Sym=     5a  
Ene=     0.0008
Spin= Beta
Occup=    0.00000
   1         0.00000000
   2         0.00000000
   3        -0.14036184
   4         0.39064491
   5        -0.00000000
   6        -0.00000000
   7        -0.00000000
   8        -0.23088261
   9         0.64257574
  10        -0.00000000
Sym=     6a  
Ene=     0.0111
Spin= Alpha
Occup=    0.00000
   1        -0.03146986
   2         0.18209096
   3         0.00000092
   4         0.00000033
   5        -0.08986348
   6        -0.00480892
   7        -0.67589657
   8        -0.00000419
   9        -0.00000150
  10        -0.69066575
Sym=     6a  
Ene=     0.0111
Spin= Beta
Occup=    0.00000
   1        -0.03146986
   2         0.18209096
   3         0.00000092
   4         0.00000033
   5        -0.08986348
   6        -0.00480892
   7        -0.67589657
   8        -0.00000419
   9        -0.00000150
  10        -0.69066575
Sym=     7a  
Ene=     0.1603
Spin= Alpha
Occup=    0.00000
   1         0.14834968
   2         0.64334569
   3        -0.00000574
   4        -0.00000206
   5        -1.03862303
   6         0.20632148
   7        -0.21439674
   8         0.00000895
   9         0.00000321
  10         0.81107765
Sym=     7a  
Ene=     0.1603
Spin= Beta
Occup=    0.00000
   1         0.14834968
   2         0.64334569
   3        -0.00000574
   4        -0.00000206
   5        -1.03862303
   6         0.20632148
   7        -0.21439674
   8         0.00000895
   9         0.00000321
  10         0.81107765
Sym=     8a  
Ene=     0.1750
Spin= Alpha
Occup=    0.00000
   1        -0.00000539
   2        -0.00002394
   3        -1.00725833
   4        -0.36191598
   5         0.00000182
   6         0.00000419
   7         0.00002013
   8         1.17495357
   9         0.42217022
  10        -0.00002068
Sym=     8a  
Ene=     0.1750
Spin= Beta
Occup=    0.00000
   1        -0.00000539
   2        -0.00002394
   3        -1.00725833
   4        -0.36191598
   5         0.00000182
   6         0.00000419
   7         0.00002013
   8         1.17495357
   9         0.42217022
  10        -0.00002068
Sym=     9a  
Ene=     0.1944
Spin= Alpha
Occup=    0.00000
   1         0.00000000
   2         0.00000000
   3         0.41594232
   4        -1.15762052
   5         0.00000000
   6        -0.00000000
   7        -0.00000000
   8        -0.37336669
   9         1.03912711
  10         0.00000000
Sym=     9a  
Ene=     0.1944
Spin= Beta
Occup=    0.00000
   1         0.00000000
   2         0.00000000
   3         0.41594232
   4        -1.15762052
   5         0.00000000
   6        -0.00000000
   7        -0.00000000
   8        -0.37336669
   9         1.03912711
  10         0.00000000
Sym=    10a  
Ene=     0.2569
Spin= Alpha
Occup=    0.00000
   1        -0.46240935
   2        -2.46798008
   3         0.00001522
   4         0.00000547
   5        -0.60290510
   6         0.72011874
   7         2.15654159
   8        -0.00000784
   9        -0.00000282
  10        -1.37060966
Sym=    10a  
Ene=     0.2569
Spin= Beta
Occup=    0.00000
   1        -0.46240935
   2        -2.46798008
   3         0.00001522
   4         0.00000547
   5        -0.60290510
   6         0.72011874
   7         2.15654159
   8        -0.00000784
   9        -0.00000282
  10        -1.37060966
