*******************************************************************************************
*** WorkDir at /lustre/isaac/scratch/gjones39/ANO-RCC-VTZP/ozone_106.50/3189716 cleaned ***
*******************************************************************************************
   This run of MOLCAS is using the pymolcas driver

                             OPE
                             OPE          NMOL  CASOP  ENMOLC A   SO
                 OPE        NMOLC        AS  OP EN  MO LC     AS  OP
                OPENM       OL CA        SO  PE NM  OL CA     SOP EN
                OP EN      MO   LC       AS  OP ENMOL  CASO   PENMOL
                OP  EN     MO   LC       AS  OP EN     MO     LC ASO
               OP   E  NMOL  C  AS       OP  EN MO     LC     AS  OP
               OP  E   NMO   LC AS        OPEN  MO     LCASOP EN   M
               O  PEN   MO  LCA  SO
            OPE   NMO   L   CAS    OP
        OPENMOL  CASOP     ENMOL   CASOPE
     OPENMOLCA   SOPENMOLCASOPEN   MOLCASOPE
    OPENMOLCAS   OP           EN   MOL    CAS
    OPENMOLCAS       OP  ENM        O     LCA
    OPENMOLCAS    OPEN  MOLCASO     P  E  NMO
    OPENMOLCAS     OP               E  N  MOL
    OPENMOLCA   SO           PENM   O  L  CAS    OPEN    MO    LCAS
    OPENMOLCA   SOP           ENM   O  L  CAS   OP  EN  MOLC  AS   O
    OPENMOLCA   SOPE           NM      O  LCA   S      OP  EN MO
    OPENMOLC                AS         O  PEN   M      OL  CA  SOPE
    OPENMO        LCASOPE  NMOL        C  ASO   P      ENMOLC     AS
    OPE     NMO      LCA  SO     P     E   NM   OL  CA SO  PE N   MO
          OPENMOLCA            SOPE   NMO        LCAS  O    P  ENMO
     OPENMOLCASOPENMOLCASOPENMOLCASOPENMOLCA
        OPENMOLCASOPENMOLCASOPENMOLCASOPE
            OPENMOLCASOPENMOLCASOPENM
               OPENMOLCASOPENMOLCA        version: f37762c57-dirty
                   OPENMOLCASO
                       OPE                tag:

 OpenMolcas is free software; you can redistribute it and/or modify it
 under the terms of the GNU Lesser General Public License version 2.1.
 OpenMolcas is distributed in the hope that it will be useful, but it
 is provided "as is" and without any express or implied warranties.
 For more details see the full text of the license in the file
 LICENSE or in <http://www.gnu.org/licenses/>.

                 Copyright (C) The OpenMolcas Authors
           For the author list and the recommended citation,
                   consult the file CONTRIBUTORS.md

           *************************************************
           * pymolcas version py2.05                       *
           *   build c53fbf9a0f911de0c7c16766b0715e61      *
           *   (after the EMIL interpreter by V. Veryazov) *
           *************************************************

configuration info
------------------
C Compiler ID: GNU
C flags: -std=gnu99
Fortran Compiler ID: Intel
Fortran flags: -fpp -i8 -r8 -heap-arrays
Definitions: _MOLCAS_;_I8_;_LINUX_
Parallel: OFF (GA=OFF)


   ---------------------------------------------------------------------------------------
  |
  |              Project: ozone_106.50
  |       Submitted from: /lustre/isaac/scratch/gjones39/ANO-RCC-VTZP/ozone_106.50
  |         Scratch area: /lustre/isaac/scratch/gjones39/ANO-RCC-VTZP/ozone_106.50/3189716
  |      Save outputs to: /lustre/isaac/scratch/gjones39/ANO-RCC-VTZP/ozone_106.50
  |               Molcas: /lustre/isaac/proj/UTK0022/Grier2025/Test/build
  |
  | Scratch area is empty
  |
  |       MOLCAS_DRIVER = /nfs/home/gjones39/bin/pymolcas
  | MOLCAS_KEEP_WORKDIR = NO
  |      MOLCAS_MAXITER = 100
  |  MOLCAS_NEW_WORKDIR = YES
  |       MOLCAS_NPROCS = 1
  |       MOLCAS_SOURCE = /lustre/isaac/proj/UTK0022/Grier2025/Test
  |    MOLCAS_STRUCTURE = 0
  |
   ---------------------------------------------------------------------------------------

++ ---------   Input file   ---------

&GATEWAY
coord=ozone_106.50.xyz
Basis = ANO-RCC-VTZP
Group = nosymm
End of Input

&SEWARD
End of Input

&SCF
FileOrb
/lustre/isaac/scratch/gjones39/ANO-RCC-VTZP/ozone_106.25/ozone_106.25.ScfOrb

>>> COPY $WorkDir/ozone_106.50.scf.h5 $CurrDir/

&RASSCF
Title= RASSCF
ITERation
200 100
CIMX
200
SDAV
500
FileOrb
/lustre/isaac/scratch/gjones39/ANO-RCC-VTZP/ozone_106.25/ozone_106.25.RasOrb
CIROOT
3 3 1
NACTEL
12 0 0
Inactive
6
RAS2
9
Symmetry
1
Spin
1
orblisting
all

>>> COPY $WorkDir/ozone_106.50.rasscf.h5 $CurrDir/

>>> COPY $WorkDir/GMJ_Fock_MO.csv $CurrDir/ozone_106.50.GMJ_Fock_MO.csv

&MOTRA
Frozen=0
LUMORB

>>> COPY $WorkDir/GMJ_one_int_indx.csv $CurrDir/ozone_106.50.GMJ_one_int_indx.csv

>>> COPY $WorkDir/GMJ_one_int.csv $CurrDir/ozone_106.50.GMJ_one_int.csv

>>> COPY $WorkDir/GMJ_two_int_indx.csv $CurrDir/ozone_106.50.GMJ_two_int_indx.csv

>>> COPY $WorkDir/GMJ_two_int.csv $CurrDir/ozone_106.50.GMJ_two_int.csv

&CASPT2

Multistate
ALL

Frozen
0

MAXITER
50

>>> FOREACH k IN (1,2,3)

  >>> FOREACH i IN (B,E,F,G,H)

    >>> FOREACH j IN (P,M)

      >>> IF (-FILE GMJ_e2_${i}_${j}_${k}_.csv)

        >>> COPY $WorkDir/GMJ_RHS_${i}_${j}_${k}_.csv $CurrDir/GMJ_RHS_${i}_${j}_${k}_.csv

        >>> COPY $WorkDir/GMJ_IVECW_${i}_${j}_${k}_.csv $CurrDir/GMJ_IVECW_${i}_${j}_${k}_.csv

        >>> COPY $WorkDir/GMJ_IVECX_${i}_${j}_${k}_.csv $CurrDir/GMJ_IVECX_${i}_${j}_${k}_.csv

        >>> COPY $WorkDir/GMJ_IVECC2_${i}_${j}_${k}_.csv $CurrDir/GMJ_IVECC2_${i}_${j}_${k}_.csv

        >>> COPY $WorkDir/GMJ_e2_${i}_${j}_${k}_.csv $CurrDir/GMJ_e2_${i}_${j}_${k}_.csv

      >>> END IF

    >>> END FOREACH

  >>> END FOREACH

>>> END FOREACH

>>> FOREACH j IN (1,2,3)

  >>> FOREACH i IN (A,C,D)

    >>> IF (-FILE GMJ_e2_${i}_${j}_.csv)

      >>> COPY $WorkDir/GMJ_RHS_${i}_${j}_.csv $CurrDir/GMJ_RHS_${i}_${j}_.csv

      >>> COPY $WorkDir/GMJ_IVECW_${i}_${j}_.csv $CurrDir/GMJ_IVECW_${i}_${j}_.csv

      >>> COPY $WorkDir/GMJ_IVECX_${i}_${j}_.csv $CurrDir/GMJ_IVECX_${i}_${j}_.csv

      >>> COPY $WorkDir/GMJ_IVECC2_${i}_${j}_.csv $CurrDir/GMJ_IVECC2_${i}_${j}_.csv

      >>> COPY $WorkDir/GMJ_e2_${i}_${j}_.csv $CurrDir/GMJ_e2_${i}_${j}_.csv

    >>> END IF

  >>> END FOREACH

>>> END FOREACH

-- ----------------------------------

--- Start Module: gateway at Tue Apr 29 12:21:38 2025 ---
 
()()()()()()()()()()()()()()()()()()()()()()()()()()()()()()()()()()()()()()()()()()()()()()()()()()

                                              &GATEWAY

                                   only a single process is used
                       available to each process: 62 GB of memory, 1 thread?
()()()()()()()()()()()()()()()()()()()()()()()()()()()()()()()()()()()()()()()()()()()()()()()()()()
 
 
++    Symmetry information:
      ---------------------
 
                    Character Table for C1 
 
                             E  
                    a        1  x, y, xy, Rz, z, xz, Ry, yz, Rx, I
--
 
 
++    Basis set information:
      ----------------------
 
 
      Basis set label: O.ANO-RCC...4S3P2D1F.
 
      Electronic valence basis set:
      ------------------
      Associated Effective Charge   8.000000 au
      Associated Actual Charge      8.000000 au
      Nuclear Model: Point charge
 
      Shell  nPrim  nBasis  Cartesian Spherical Contaminant
         s      14       4        X                  
         p       9       3        X                  
         d       4       2                 X         
         f       3       1                 X         
--
 
 
++    Molecular structure info:
      -------------------------
 
                    ************************************************ 
                    **** Cartesian Coordinates / Bohr, Angstrom **** 
                    ************************************************ 
 
     Center  Label                x              y              z                     x              y              z
        1      O1               1.444996       1.935083       0.000000              0.764659       1.024002       0.000000
        2      O2               0.000000       0.000000       0.000000              0.000000       0.000000       0.000000
        3      O3               1.444996      -1.935083       0.000000              0.764659      -1.024002       0.000000
 
                    *************************************** 
                    *    InterNuclear Distances / Bohr    * 
                    *************************************** 
 
               1 O1            2 O2            3 O3    
    1 O1       0.000000
    2 O2       2.415070        0.000000
    3 O3       3.870167        2.415070        0.000000
 
                    ******************************************* 
                    *    InterNuclear Distances / Angstrom    * 
                    ******************************************* 
 
               1 O1            2 O2            3 O3    
    1 O1       0.000000
    2 O2       1.278000        0.000000
    3 O3       2.048004        1.278000        0.000000
 
                    ************************************** 
                    *    Valence Bond Angles / Degree    * 
                    ************************************** 
                          Atom centers                 Phi
                      1 O1       2 O2       3 O3       106.50
--
 
 
            Nuclear Potential Energy             69.53729834 au
 
--- Stop Module: gateway at Tue Apr 29 12:21:45 2025 /rc=_RC_ALL_IS_WELL_ ---
*** files: xmldump
    saved to directory /lustre/isaac/scratch/gjones39/ANO-RCC-VTZP/ozone_106.50
--- Module gateway spent 7 seconds ---

--- Start Module: seward at Tue Apr 29 12:21:45 2025 ---
 
()()()()()()()()()()()()()()()()()()()()()()()()()()()()()()()()()()()()()()()()()()()()()()()()()()

                                              &SEWARD

                                   only a single process is used
                       available to each process: 62 GB of memory, 1 thread?
()()()()()()()()()()()()()()()()()()()()()()()()()()()()()()()()()()()()()()()()()()()()()()()()()()
 
               SEWARD will generate:
                  Multipole Moment integrals up to order  2
                  Kinetic Energy integrals
                  Nuclear Attraction integrals (point charge)
                  One-Electron Hamiltonian integrals
                  Velocity integrals
                  Relativistic Douglas-Kroll-Hess integrals:
                    - Parametrization         : EXP
                    - DKH order of Hamiltonian: 2
                    - DKH order of Properties : 0
                         - multipole moment operators
                         - electric potential operators
                         - contact operators
                  Atomic mean-field integrals
                  Two-Electron Repulsion integrals
 
                   Integrals are discarded if absolute value <: 0.10E-13
                   Integral cutoff threshold is set to       <: 0.10E-15
 
            Nuclear Potential Energy             69.53729834 au
 
 
      Basis set specifications :
      Symmetry species         a  
      Basis functions           90
 
 
  Input file to MOLDEN was generated!
 
--- Stop Module: seward at Tue Apr 29 12:22:03 2025 /rc=_RC_ALL_IS_WELL_ ---
*** files: ozone_106.50.GssOrb ozone_106.50.guessorb.h5 ozone_106.50.guessorb.molden xmldump
    saved to directory /lustre/isaac/scratch/gjones39/ANO-RCC-VTZP/ozone_106.50
--- Module seward spent 18 seconds ---

*** symbolic link created: INPORB -> ozone_106.50.GssOrb
--- Start Module: scf at Tue Apr 29 12:22:03 2025 ---
 
()()()()()()()()()()()()()()()()()()()()()()()()()()()()()()()()()()()()()()()()()()()()()()()()()()

                                                &SCF

                                   only a single process is used
                       available to each process: 62 GB of memory, 1 thread?
()()()()()()()()()()()()()()()()()()()()()()()()()()()()()()()()()()()()()()()()()()()()()()()()()()
 
++    Input section:
      --------------
 
      Header of the integral files:
      
       Integrals generated by seward 4.2.0  , Tue Apr 29 12:21:48 2025
 
 
      Cartesian coordinates in Angstrom:
      -----------------------------------------------------
      No.  Label        X            Y            Z        
      -----------------------------------------------------
       1   O1         0.76465900   1.02400200   0.00000000
       2   O2         0.00000000   0.00000000   0.00000000
       3   O3         0.76465900  -1.02400200   0.00000000
      -----------------------------------------------------
      Nuclear repulsion energy =   69.53729834
--
 
++    Orbital specifications:
      -----------------------
 
      Symmetry species               1
                                     a
      Frozen orbitals                0
      Occupied orbitals             12
      Secondary orbitals            78
      Deleted orbitals               0
      Total number of orbitals      90
      Number of basis functions     90
--
 
      Molecular charge                           0.000
 
++    Optimization specifications:
      ----------------------------
 
      SCF Algorithm: Conventional
      Minimized density differences are used
      Number of density matrices in core                5
      Maximum number of NDDO SCF iterations           400
      Maximum number of HF SCF iterations             400
      Threshold for SCF energy change            0.10E-08
      Threshold for density matrix               0.10E-03
      Threshold for Fock matrix                  0.15E-03
      Threshold for linear dependence            0.10E-08
      Threshold at which DIIS is turned on       0.15E+00
      Threshold at which QNR/C2DIIS is turned on 0.75E-01
      Threshold for Norm(delta) (QNR/C2DIIS)     0.20E-04
      DIIS extrapolation of the SCF procedure
      All orbitals punched on: SCFORB
--
 
      Input vectors read from INPORB
      Orbital file label: * SCF orbitals
 
 
++ Convergence information
                                   SCF        iterations: Energy and convergence statistics
 
Iter     Tot. SCF        One-elec.       Two-elec.     Energy      Max Dij or  Max Fij      DNorm      TNorm      AccCon     Time
         Energy          Energy          Energy        Change      Delta Norm                                                in Sec.
   1  -224.503759106  -446.774015720   152.732958277   0.00E+00    0.10E-02*   0.52E-03*    0.75E+01   0.11E+03   None         0.
   2  -224.503764649  -446.774183531   152.733120545  -0.55E-05*   0.50E-03*   0.28E-03*    0.73E-02   0.11E+03   EDIIS        0.
   3  -224.503765750  -446.774729909   152.733665822  -0.11E-05*   0.55E-03*   0.23E-03*    0.16E-02   0.11E+03   c2DIIS       0.
   4  -224.503766003  -446.773730974   152.732666634  -0.25E-06*   0.44E-03*   0.21E-03*    0.14E-02   0.11E+03   QNRc2DIIS    0.
   5  -224.503766021  -446.775187087   152.734122729  -0.18E-07*   0.22E-03*   0.22E-03*    0.45E-03   0.11E+03   QNRc2DIIS    0.
   6  -224.503766261  -446.774447270   152.733382671  -0.24E-06*   0.11E-03*   0.26E-04     0.43E-04   0.11E+03   QNRc2DIIS    0.
   7  -224.503766272  -446.774450021   152.733385412  -0.11E-07*   0.15E-05    0.11E-05     0.35E-04   0.11E+03   QNRc2DIIS    0.
   8  -224.503766272  -446.774442075   152.733377465  -0.90E-11    0.35E-05    0.82E-06     0.15E-03   0.11E+03   QNRc2DIIS    0.
 
       Convergence after  8 Macro Iterations
--
 
 *****************************************************************************************************************************
 *                                                                                                                           *
 *                                             SCF/KS-DFT Program, Final results                                             *
 *                                                                                                                           *
 *                                                                                                                           *
 *                                                                                                                           *
 *                                                       Final Results                                                       *
 *                                                                                                                           *
 *****************************************************************************************************************************
 
::    Total SCF energy                               -224.5037662724
      One-electron energy                            -446.7744420747
      Two-electron energy                             152.7333774652
      Nuclear repulsion energy                         69.5372983371
      Kinetic energy (interpolated)                   225.1263015133
      Virial theorem                                    0.9972347290
      Total spin, S(S+1)                                0.0000000000
      Total spin, S                                     0.0000000000
      Max non-diagonal density matrix element           0.0000056675
      Max non-diagonal Fock matrix element              0.0000012506
 
 
      All orbitals with orbital energies smaller than  E(LUMO)+0.5 are printed
 
++    Molecular orbitals:
      -------------------
 
      Title: SCF orbitals

      Molecular orbitals for symmetry species 1: a  
 
          Orbital            1         2         3         4         5         6         7         8         9        10    
          Energy          -20.9383  -20.7177  -20.7176   -1.7575   -1.4120   -1.1089   -0.8299   -0.7931   -0.7820   -0.5718
          Occ. No.          2.0000    2.0000    2.0000    2.0000    2.0000    2.0000    2.0000    2.0000    2.0000    2.0000
 
        1 O1     1s         0.0022   -0.7064    0.7064   -0.0142    0.0112    0.0081   -0.0147   -0.0232   -0.0000    0.0051
        2 O1     2s         0.0040    0.0048   -0.0051    0.3316   -0.5821    0.5642   -0.3090   -0.4273    0.0000    0.0358
        3 O1     3s         0.0023    0.0036   -0.0036   -0.0120    0.0179    0.0138   -0.0318   -0.0528   -0.0000    0.0148
        4 O1     4s         0.0004    0.0007   -0.0007   -0.0010    0.0040    0.0021   -0.0059   -0.0113   -0.0000    0.0038
        5 O1     2px       -0.0013   -0.0015    0.0014   -0.0633    0.0704    0.1104    0.0784   -0.3486   -0.0000    0.6127
        6 O1     3px       -0.0008   -0.0015    0.0015    0.0125   -0.0097   -0.0181    0.0002    0.0325    0.0000   -0.0018
        7 O1     4px        0.0002    0.0009   -0.0009    0.0026   -0.0003    0.0009    0.0001    0.0026    0.0000   -0.0063
        8 O1     2py       -0.0022   -0.0019    0.0021   -0.1040    0.0541    0.0540   -0.3774   -0.2141    0.0000   -0.2040
        9 O1     3py       -0.0012   -0.0021    0.0020    0.0170   -0.0118   -0.0090    0.0392    0.0320   -0.0000   -0.0122
       10 O1     4py        0.0006    0.0012   -0.0012    0.0002   -0.0035    0.0011    0.0028    0.0025   -0.0000    0.0008
       11 O1     2pz       -0.0000    0.0000    0.0000    0.0000    0.0000   -0.0000    0.0000    0.0000    0.3653   -0.0000
       12 O1     3pz       -0.0000    0.0000    0.0000    0.0000    0.0000    0.0000    0.0000    0.0000   -0.0201    0.0000
       13 O1     4pz        0.0000   -0.0000   -0.0000   -0.0000   -0.0000    0.0000   -0.0000   -0.0000   -0.0067    0.0000
       14 O1     3d2-       0.0005    0.0011   -0.0011    0.0195   -0.0154   -0.0113    0.0139    0.0288   -0.0000   -0.0152
       15 O1     4d2-       0.0002    0.0005   -0.0006    0.0024   -0.0020   -0.0009    0.0016    0.0026   -0.0000   -0.0016
       16 O1     3d1-       0.0000   -0.0000   -0.0000   -0.0000   -0.0000   -0.0000   -0.0000   -0.0000   -0.0246    0.0000
       17 O1     4d1-       0.0000   -0.0000   -0.0000   -0.0000   -0.0000   -0.0000   -0.0000   -0.0000   -0.0032    0.0000
       18 O1     3d0       -0.0003   -0.0005    0.0005   -0.0105    0.0085    0.0026   -0.0100   -0.0148    0.0000    0.0054
       19 O1     4d0       -0.0002   -0.0005    0.0004   -0.0001    0.0010   -0.0002   -0.0004   -0.0011    0.0000    0.0002
       20 O1     3d1+       0.0000    0.0000    0.0000    0.0000    0.0000   -0.0000   -0.0000    0.0000   -0.0200   -0.0000
       21 O1     4d1+       0.0000   -0.0000   -0.0000   -0.0000    0.0000    0.0000   -0.0000   -0.0000   -0.0038    0.0000
       22 O1     3d2+      -0.0004   -0.0003    0.0003   -0.0073    0.0009   -0.0025   -0.0216    0.0021    0.0000   -0.0047
       23 O1     4d2+      -0.0002   -0.0002    0.0002   -0.0001    0.0005    0.0002   -0.0013    0.0006    0.0000   -0.0016
       24 O1     4f3-       0.0001   -0.0001    0.0001   -0.0014    0.0029    0.0026    0.0037   -0.0052   -0.0000    0.0037
       25 O1     4f2-      -0.0000    0.0000    0.0000   -0.0000   -0.0000    0.0000    0.0000   -0.0000    0.0068   -0.0000
       26 O1     4f1-       0.0000    0.0001   -0.0001    0.0029   -0.0022   -0.0003    0.0023    0.0028   -0.0000   -0.0015
       27 O1     4f0        0.0000   -0.0000   -0.0000    0.0000   -0.0000   -0.0000   -0.0000    0.0000   -0.0038    0.0000
       28 O1     4f1+       0.0000    0.0001   -0.0001    0.0020   -0.0020   -0.0008    0.0011    0.0023   -0.0000   -0.0003
       29 O1     4f2+       0.0000   -0.0000   -0.0000   -0.0000    0.0000    0.0000   -0.0000    0.0000   -0.0019   -0.0000
       30 O1     4f3+       0.0001    0.0002   -0.0002    0.0060   -0.0041   -0.0012    0.0061    0.0048   -0.0000   -0.0020
       31 O2     1s         0.9989   -0.0000   -0.0007   -0.0267   -0.0000   -0.0172   -0.0079    0.0000    0.0000    0.0180
       32 O2     2s        -0.0078    0.0000    0.0105    0.6135   -0.0000   -0.6861   -0.0837    0.0000    0.0000    0.2225
       33 O2     3s        -0.0054    0.0000    0.0060   -0.0637   -0.0000   -0.0121   -0.0115   -0.0000    0.0000    0.0425
       34 O2     4s        -0.0012    0.0000    0.0010   -0.0110   -0.0000   -0.0032   -0.0034   -0.0000    0.0000    0.0105
       35 O2     2px       -0.0023    0.0000    0.0040    0.1209   -0.0000    0.2708    0.6351    0.0000   -0.0000   -0.4581
       36 O2     3px       -0.0028    0.0000    0.0025   -0.0395   -0.0000   -0.0376   -0.0634   -0.0000    0.0000    0.0044
       37 O2     4px        0.0018   -0.0000   -0.0009   -0.0022    0.0000    0.0008   -0.0091   -0.0000    0.0000    0.0001
       38 O2     2py        0.0000   -0.0051    0.0000   -0.0000   -0.3274    0.0000   -0.0000    0.5787    0.0000   -0.0000
       39 O2     3py        0.0000   -0.0030    0.0000   -0.0000    0.0604   -0.0000    0.0000   -0.0556    0.0000   -0.0000
       40 O2     4py       -0.0000    0.0012   -0.0000    0.0000   -0.0011   -0.0000    0.0000   -0.0096   -0.0000   -0.0000
       41 O2     2pz        0.0000   -0.0000   -0.0000   -0.0000   -0.0000   -0.0000    0.0000   -0.0000    0.6960    0.0000
       42 O2     3pz        0.0000   -0.0000   -0.0000   -0.0000   -0.0000   -0.0000   -0.0000   -0.0000   -0.0450    0.0000
       43 O2     4pz       -0.0000   -0.0000    0.0000   -0.0000   -0.0000   -0.0000   -0.0000   -0.0000   -0.0157   -0.0000
       44 O2     3d2-       0.0000   -0.0016    0.0000   -0.0000   -0.0441    0.0000   -0.0000    0.0328    0.0000   -0.0000
       45 O2     4d2-       0.0000   -0.0007    0.0000   -0.0000   -0.0050    0.0000   -0.0000    0.0033    0.0000   -0.0000
       46 O2     3d1-       0.0000   -0.0000   -0.0000    0.0000    0.0000    0.0000    0.0000   -0.0000   -0.0000   -0.0000
       47 O2     4d1-       0.0000   -0.0000   -0.0000    0.0000    0.0000   -0.0000    0.0000   -0.0000   -0.0000   -0.0000
       48 O2     3d0        0.0007   -0.0000   -0.0010   -0.0160    0.0000   -0.0078   -0.0157    0.0000   -0.0000    0.0168
       49 O2     4d0        0.0007   -0.0000   -0.0005    0.0004    0.0000   -0.0006   -0.0013    0.0000   -0.0000    0.0018
       50 O2     3d1+       0.0000    0.0000    0.0000    0.0000    0.0000   -0.0000    0.0000    0.0000    0.0362    0.0000
       51 O2     4d1+       0.0000    0.0000   -0.0000    0.0000    0.0000   -0.0000    0.0000    0.0000    0.0058    0.0000
       52 O2     3d2+       0.0001   -0.0000   -0.0005   -0.0042   -0.0000    0.0036    0.0245    0.0000   -0.0000    0.0388
       53 O2     4d2+      -0.0001   -0.0000   -0.0003   -0.0000   -0.0000   -0.0001    0.0032    0.0000    0.0000    0.0086
       54 O2     4f3-       0.0000   -0.0001    0.0000   -0.0000   -0.0020   -0.0000   -0.0000   -0.0020   -0.0000   -0.0000
       55 O2     4f2-       0.0000   -0.0000    0.0000    0.0000    0.0000    0.0000    0.0000    0.0000   -0.0000   -0.0000
       56 O2     4f1-      -0.0000    0.0001   -0.0000    0.0000    0.0048   -0.0000    0.0000   -0.0040    0.0000    0.0000
       57 O2     4f0        0.0000   -0.0000   -0.0000   -0.0000   -0.0000   -0.0000   -0.0000   -0.0000   -0.0066    0.0000
       58 O2     4f1+       0.0002   -0.0000   -0.0001   -0.0040    0.0000   -0.0009   -0.0030   -0.0000    0.0000   -0.0000
       59 O2     4f2+       0.0000   -0.0000    0.0000    0.0000    0.0000    0.0000   -0.0000   -0.0000   -0.0031   -0.0000
       60 O2     4f3+       0.0001   -0.0000   -0.0002   -0.0084    0.0000   -0.0002   -0.0014    0.0000    0.0000    0.0073
       61 O3     1s         0.0022    0.7064    0.7064   -0.0142   -0.0112    0.0081   -0.0147    0.0232   -0.0000    0.0051
       62 O3     2s         0.0040   -0.0048   -0.0051    0.3316    0.5821    0.5642   -0.3090    0.4273    0.0000    0.0358
       63 O3     3s         0.0023   -0.0036   -0.0036   -0.0120   -0.0179    0.0138   -0.0318    0.0528   -0.0000    0.0148
       64 O3     4s         0.0004   -0.0007   -0.0007   -0.0010   -0.0040    0.0021   -0.0059    0.0113   -0.0000    0.0038
       65 O3     2px       -0.0013    0.0015    0.0014   -0.0633   -0.0704    0.1104    0.0784    0.3486   -0.0000    0.6127
       66 O3     3px       -0.0008    0.0015    0.0015    0.0125    0.0097   -0.0181    0.0002   -0.0325    0.0000   -0.0018
       67 O3     4px        0.0002   -0.0009   -0.0009    0.0026    0.0003    0.0009    0.0001   -0.0026   -0.0000   -0.0063
       68 O3     2py        0.0022   -0.0019   -0.0021    0.1040    0.0541   -0.0540    0.3774   -0.2141   -0.0000    0.2040
       69 O3     3py        0.0012   -0.0021   -0.0020   -0.0170   -0.0118    0.0090   -0.0392    0.0320   -0.0000    0.0122
       70 O3     4py       -0.0006    0.0012    0.0012   -0.0002   -0.0035   -0.0011   -0.0028    0.0025   -0.0000   -0.0008
       71 O3     2pz       -0.0000   -0.0000    0.0000    0.0000   -0.0000   -0.0000    0.0000   -0.0000    0.3653    0.0000
       72 O3     3pz       -0.0000   -0.0000    0.0000    0.0000   -0.0000   -0.0000    0.0000    0.0000   -0.0201   -0.0000
       73 O3     4pz       -0.0000    0.0000    0.0000    0.0000   -0.0000   -0.0000    0.0000    0.0000   -0.0067   -0.0000
       74 O3     3d2-      -0.0005    0.0011    0.0011   -0.0195   -0.0154    0.0113   -0.0139    0.0288    0.0000    0.0152
       75 O3     4d2-      -0.0002    0.0005    0.0006   -0.0024   -0.0020    0.0009   -0.0016    0.0026    0.0000    0.0016
       76 O3     3d1-       0.0000   -0.0000    0.0000   -0.0000   -0.0000   -0.0000    0.0000    0.0000    0.0246    0.0000
       77 O3     4d1-      -0.0000   -0.0000    0.0000   -0.0000   -0.0000   -0.0000    0.0000    0.0000    0.0032   -0.0000
       78 O3     3d0       -0.0003    0.0005    0.0005   -0.0105   -0.0085    0.0026   -0.0100    0.0148    0.0000    0.0054
       79 O3     4d0       -0.0002    0.0005    0.0004   -0.0001   -0.0010   -0.0002   -0.0004    0.0011   -0.0000    0.0002
       80 O3     3d1+      -0.0000    0.0000   -0.0000   -0.0000   -0.0000   -0.0000   -0.0000   -0.0000   -0.0200   -0.0000
       81 O3     4d1+      -0.0000    0.0000    0.0000   -0.0000   -0.0000   -0.0000   -0.0000    0.0000   -0.0038   -0.0000
       82 O3     3d2+      -0.0004    0.0003    0.0003   -0.0073   -0.0009   -0.0025   -0.0216   -0.0021    0.0000   -0.0047
       83 O3     4d2+      -0.0002    0.0002    0.0002   -0.0001   -0.0005    0.0002   -0.0013   -0.0006    0.0000   -0.0016
       84 O3     4f3-      -0.0001   -0.0001   -0.0001    0.0014    0.0029   -0.0026   -0.0037   -0.0052    0.0000   -0.0037
       85 O3     4f2-      -0.0000    0.0000   -0.0000    0.0000    0.0000   -0.0000   -0.0000   -0.0000   -0.0068   -0.0000
       86 O3     4f1-      -0.0000    0.0001    0.0001   -0.0029   -0.0022    0.0003   -0.0023    0.0028   -0.0000    0.0015
       87 O3     4f0       -0.0000    0.0000    0.0000   -0.0000   -0.0000   -0.0000   -0.0000   -0.0000   -0.0038   -0.0000
       88 O3     4f1+       0.0000   -0.0001   -0.0001    0.0020    0.0020   -0.0008    0.0011   -0.0023   -0.0000   -0.0003
       89 O3     4f2+      -0.0000    0.0000    0.0000    0.0000    0.0000    0.0000   -0.0000    0.0000   -0.0019   -0.0000
       90 O3     4f3+       0.0001   -0.0002   -0.0002    0.0060    0.0041   -0.0012    0.0061   -0.0048   -0.0000   -0.0020
 
          Orbital           11        12        13        14        15        16        17        18        19        20    
          Energy           -0.5450   -0.4800   -0.0525    0.1708    0.1748    0.2369    0.3071    0.3406    0.3790    0.3920
          Occ. No.          2.0000    2.0000    0.0000    0.0000    0.0000    0.0000    0.0000    0.0000    0.0000    0.0000
 
        1 O1     1s         0.0043    0.0000   -0.0000   -0.1497   -0.1812   -0.0000   -0.0081   -0.0171    0.0723   -0.0000
        2 O1     2s         0.0186    0.0000   -0.0000   -1.0696   -1.3609   -0.0000    0.0495   -0.0061    0.4020   -0.0000
        3 O1     3s         0.0148    0.0000   -0.0000   -0.6286   -0.7884   -0.0000   -0.1158   -0.0457    0.4500   -0.0000
        4 O1     4s         0.0038    0.0000   -0.0000   -0.1334   -0.1793   -0.0000   -0.0402   -0.0068    0.1309   -0.0000
        5 O1     2px       -0.4823   -0.0000    0.0000    0.3237    0.5412    0.0000   -0.3289   -0.3213    0.2327   -0.0000
        6 O1     3px       -0.0205   -0.0000    0.0000    0.3972    0.4472    0.0000    0.0344   -0.7219    0.7902   -0.0000
        7 O1     4px        0.0019    0.0000   -0.0000    0.0734    0.0353    0.0000    0.0769   -0.2815    0.2907   -0.0000
        8 O1     2py        0.5719    0.0000   -0.0000    0.6911    0.4859    0.0000   -0.4343   -0.3208   -0.1072   -0.0000
        9 O1     3py        0.0022   -0.0000   -0.0000    0.5713    0.6558    0.0000   -0.5520   -0.1750   -0.1068    0.0000
       10 O1     4py       -0.0037    0.0000   -0.0000    0.0365    0.1173   -0.0000   -0.2119   -0.0313    0.0203    0.0000
       11 O1     2pz        0.0000   -0.7154    0.6578    0.0000    0.0000   -0.1775    0.0000    0.0000   -0.0000   -0.2023
       12 O1     3pz       -0.0000   -0.0408    0.1588    0.0000   -0.0000    0.2703    0.0000    0.0000   -0.0000   -0.9825
       13 O1     4pz       -0.0000    0.0060    0.0241   -0.0000   -0.0000    0.1770    0.0000    0.0000   -0.0000   -0.3887
       14 O1     3d2-      -0.0065    0.0000   -0.0000   -0.0633   -0.0788   -0.0000    0.0031   -0.0043   -0.0292   -0.0000
       15 O1     4d2-      -0.0001    0.0000   -0.0000   -0.0426   -0.0485   -0.0000    0.0121    0.0143   -0.0270   -0.0000
       16 O1     3d1-      -0.0000    0.0197    0.0057   -0.0000    0.0000    0.0235   -0.0000   -0.0000    0.0000    0.0034
       17 O1     4d1-       0.0000    0.0051   -0.0003   -0.0000    0.0000    0.0122   -0.0000   -0.0000    0.0000    0.0116
       18 O1     3d0        0.0031   -0.0000    0.0000    0.0428    0.0557    0.0000    0.0128   -0.0004    0.0044    0.0000
       19 O1     4d0       -0.0002   -0.0000    0.0000    0.0261    0.0370    0.0000    0.0016   -0.0081    0.0122    0.0000
       20 O1     3d1+      -0.0000    0.0159    0.0053   -0.0000   -0.0000    0.0073   -0.0000    0.0000    0.0000    0.0166
       21 O1     4d1+       0.0000    0.0039   -0.0004   -0.0000   -0.0000    0.0013   -0.0000   -0.0000    0.0000    0.0149
       22 O1     3d2+       0.0162   -0.0000   -0.0000    0.0418    0.0268    0.0000    0.0384   -0.0054   -0.0511    0.0000
       23 O1     4d2+       0.0031   -0.0000    0.0000    0.0266    0.0166    0.0000    0.0131   -0.0015   -0.0321    0.0000
       24 O1     4f3-      -0.0039   -0.0000    0.0000   -0.0001    0.0023    0.0000   -0.0013   -0.0054    0.0135   -0.0000
       25 O1     4f2-       0.0000   -0.0052    0.0004    0.0000    0.0000    0.0021    0.0000    0.0000   -0.0000   -0.0046
       26 O1     4f1-      -0.0003   -0.0000   -0.0000   -0.0028   -0.0067   -0.0000    0.0016    0.0042   -0.0032   -0.0000
       27 O1     4f0       -0.0000    0.0014    0.0014    0.0000   -0.0000   -0.0008   -0.0000    0.0000    0.0000    0.0067
       28 O1     4f1+      -0.0014   -0.0000    0.0000   -0.0031   -0.0028   -0.0000    0.0008    0.0053   -0.0037   -0.0000
       29 O1     4f2+       0.0000    0.0012   -0.0005    0.0000   -0.0000    0.0008    0.0000   -0.0000    0.0000    0.0018
       30 O1     4f3+      -0.0045   -0.0000    0.0000   -0.0052   -0.0076   -0.0000    0.0056    0.0079   -0.0003   -0.0000
       31 O2     1s        -0.0000   -0.0000    0.0000    0.3102    0.0000    0.0000   -0.0950   -0.0000   -0.0126    0.0000
       32 O2     2s        -0.0000   -0.0000    0.0000    2.2472    0.0000    0.0000   -0.7367   -0.0000   -0.1687    0.0000
       33 O2     3s        -0.0000   -0.0000    0.0000    1.2695    0.0000    0.0000   -0.2274   -0.0000    0.0016   -0.0000
       34 O2     4s        -0.0000   -0.0000    0.0000    0.2721    0.0000    0.0000   -0.0456   -0.0000    0.0292   -0.0000
       35 O2     2px        0.0000    0.0000   -0.0000    0.8861    0.0000    0.0000   -0.3122   -0.0000   -0.7141    0.0000
       36 O2     3px        0.0000   -0.0000    0.0000    1.0008    0.0000    0.0000    0.3192   -0.0000   -1.5485    0.0000
       37 O2     4px        0.0000   -0.0000    0.0000    0.1514    0.0000    0.0000    0.1641   -0.0000   -0.4119    0.0000
       38 O2     2py       -0.1513    0.0000   -0.0000   -0.0000    1.2473    0.0000   -0.0000   -0.2201    0.0000   -0.0000
       39 O2     3py       -0.0108    0.0000    0.0000   -0.0000    1.1628    0.0000   -0.0000    0.5158   -0.0000   -0.0000
       40 O2     4py       -0.0017    0.0000    0.0000   -0.0000    0.1243    0.0000   -0.0000    0.2434   -0.0000   -0.0000
       41 O2     2pz       -0.0000   -0.0000   -0.8467   -0.0000    0.0000    0.0601   -0.0000   -0.0000    0.0000   -0.0000
       42 O2     3pz        0.0000   -0.0000   -0.1812   -0.0000   -0.0000    0.4622   -0.0000   -0.0000    0.0000   -0.0000
       43 O2     4pz        0.0000    0.0000   -0.0218   -0.0000   -0.0000    0.2259   -0.0000   -0.0000    0.0000   -0.0000
       44 O2     3d2-      -0.0380   -0.0000    0.0000   -0.0000    0.1399    0.0000   -0.0000    0.0926    0.0000    0.0000
       45 O2     4d2-      -0.0069   -0.0000    0.0000   -0.0000    0.0890    0.0000   -0.0000    0.0666   -0.0000    0.0000
       46 O2     3d1-       0.0000   -0.0551    0.0000    0.0000   -0.0000    0.0000   -0.0000   -0.0000    0.0000    0.0865
       47 O2     4d1-       0.0000   -0.0132    0.0000    0.0000   -0.0000    0.0000   -0.0000   -0.0000    0.0000    0.0521
       48 O2     3d0       -0.0000    0.0000   -0.0000   -0.0934   -0.0000   -0.0000   -0.0565    0.0000    0.0732   -0.0000
       49 O2     4d0       -0.0000    0.0000   -0.0000   -0.0611   -0.0000   -0.0000   -0.0332    0.0000    0.0561   -0.0000
       50 O2     3d1+      -0.0000   -0.0000    0.0104    0.0000    0.0000   -0.0260    0.0000   -0.0000    0.0000   -0.0000
       51 O2     4d1+      -0.0000   -0.0000    0.0021    0.0000    0.0000   -0.0076   -0.0000    0.0000    0.0000   -0.0000
       52 O2     3d2+      -0.0000   -0.0000    0.0000   -0.0223   -0.0000   -0.0000   -0.0503   -0.0000   -0.0789    0.0000
       53 O2     4d2+      -0.0000   -0.0000   -0.0000   -0.0081   -0.0000   -0.0000   -0.0178   -0.0000   -0.0565    0.0000
       54 O2     4f3-      -0.0097   -0.0000   -0.0000    0.0000   -0.0009    0.0000   -0.0000    0.0094   -0.0000    0.0000
       55 O2     4f2-       0.0000   -0.0091    0.0000   -0.0000    0.0000    0.0000   -0.0000   -0.0000    0.0000    0.0094
       56 O2     4f1-       0.0009   -0.0000    0.0000    0.0000   -0.0067   -0.0000    0.0000   -0.0132    0.0000    0.0000
       57 O2     4f0       -0.0000   -0.0000   -0.0019    0.0000    0.0000   -0.0043    0.0000    0.0000   -0.0000    0.0000
       58 O2     4f1+      -0.0000    0.0000    0.0000   -0.0093   -0.0000   -0.0000   -0.0089    0.0000    0.0156   -0.0000
       59 O2     4f2+      -0.0000   -0.0000    0.0009    0.0000    0.0000   -0.0008   -0.0000    0.0000   -0.0000    0.0000
       60 O2     4f3+      -0.0000   -0.0000    0.0000   -0.0119   -0.0000   -0.0000   -0.0076    0.0000    0.0120   -0.0000
       61 O3     1s        -0.0043    0.0000   -0.0000   -0.1497    0.1812    0.0000   -0.0081    0.0171    0.0723   -0.0000
       62 O3     2s        -0.0186    0.0000   -0.0000   -1.0696    1.3609    0.0000    0.0495    0.0061    0.4020   -0.0000
       63 O3     3s        -0.0148    0.0000   -0.0000   -0.6286    0.7884    0.0000   -0.1158    0.0457    0.4500   -0.0000
       64 O3     4s        -0.0038    0.0000   -0.0000   -0.1334    0.1793    0.0000   -0.0402    0.0068    0.1309   -0.0000
       65 O3     2px        0.4823   -0.0000    0.0000    0.3237   -0.5412   -0.0000   -0.3289    0.3213    0.2327    0.0000
       66 O3     3px        0.0205   -0.0000    0.0000    0.3972   -0.4472   -0.0000    0.0344    0.7219    0.7902   -0.0000
       67 O3     4px       -0.0019   -0.0000    0.0000    0.0734   -0.0353    0.0000    0.0769    0.2815    0.2907   -0.0000
       68 O3     2py        0.5719    0.0000   -0.0000   -0.6911    0.4859    0.0000    0.4343   -0.3208    0.1072   -0.0000
       69 O3     3py        0.0022   -0.0000    0.0000   -0.5713    0.6558    0.0000    0.5520   -0.1750    0.1068    0.0000
       70 O3     4py       -0.0037   -0.0000    0.0000   -0.0365    0.1173    0.0000    0.2119   -0.0313   -0.0203    0.0000
       71 O3     2pz       -0.0000    0.7154    0.6578    0.0000    0.0000   -0.1775    0.0000    0.0000    0.0000    0.2023
       72 O3     3pz        0.0000    0.0408    0.1588   -0.0000   -0.0000    0.2703   -0.0000   -0.0000    0.0000    0.9825
       73 O3     4pz        0.0000   -0.0060    0.0241   -0.0000   -0.0000    0.1770   -0.0000   -0.0000    0.0000    0.3887
       74 O3     3d2-      -0.0065   -0.0000    0.0000    0.0633   -0.0788   -0.0000   -0.0031   -0.0043    0.0292   -0.0000
       75 O3     4d2-      -0.0001   -0.0000    0.0000    0.0426   -0.0485   -0.0000   -0.0121    0.0143    0.0270   -0.0000
       76 O3     3d1-      -0.0000    0.0197   -0.0057    0.0000    0.0000   -0.0235    0.0000    0.0000   -0.0000    0.0034
       77 O3     4d1-      -0.0000    0.0051    0.0003    0.0000    0.0000   -0.0122    0.0000    0.0000   -0.0000    0.0116
       78 O3     3d0       -0.0031   -0.0000   -0.0000    0.0428   -0.0557   -0.0000    0.0128    0.0004    0.0044   -0.0000
       79 O3     4d0        0.0002    0.0000   -0.0000    0.0261   -0.0370   -0.0000    0.0016    0.0081    0.0122   -0.0000
       80 O3     3d1+       0.0000   -0.0159    0.0053   -0.0000   -0.0000    0.0073    0.0000    0.0000   -0.0000   -0.0166
       81 O3     4d1+       0.0000   -0.0039   -0.0004   -0.0000   -0.0000    0.0013    0.0000    0.0000   -0.0000   -0.0149
       82 O3     3d2+      -0.0162   -0.0000    0.0000    0.0418   -0.0268    0.0000    0.0384    0.0054   -0.0511    0.0000
       83 O3     4d2+      -0.0031    0.0000    0.0000    0.0266   -0.0166    0.0000    0.0131    0.0015   -0.0321    0.0000
       84 O3     4f3-      -0.0039    0.0000   -0.0000    0.0001    0.0023    0.0000    0.0013   -0.0054   -0.0135    0.0000
       85 O3     4f2-       0.0000   -0.0052   -0.0004   -0.0000    0.0000   -0.0021    0.0000   -0.0000   -0.0000   -0.0046
       86 O3     4f1-      -0.0003    0.0000   -0.0000    0.0028   -0.0067   -0.0000   -0.0016    0.0042    0.0032   -0.0000
       87 O3     4f0        0.0000   -0.0014    0.0014   -0.0000    0.0000   -0.0008    0.0000    0.0000   -0.0000   -0.0067
       88 O3     4f1+       0.0014    0.0000    0.0000   -0.0031    0.0028   -0.0000    0.0008   -0.0053   -0.0037    0.0000
       89 O3     4f2+       0.0000   -0.0012   -0.0005   -0.0000   -0.0000    0.0008    0.0000    0.0000    0.0000   -0.0018
       90 O3     4f3+       0.0045    0.0000   -0.0000   -0.0052    0.0076    0.0000    0.0056   -0.0079   -0.0003    0.0000
 
          Orbital           21        22    
          Energy            0.4039    0.4354
          Occ. No.          0.0000    0.0000
 
        1 O1     1s         0.0000   -0.0544
        2 O1     2s         0.0495   -0.2703
        3 O1     3s        -0.1840   -0.2390
        4 O1     4s        -0.0585   -0.0330
        5 O1     2px       -0.3568    0.0167
        6 O1     3px        0.1886    0.2271
        7 O1     4px        0.0931    0.0124
        8 O1     2py       -0.0329   -0.0674
        9 O1     3py        0.5922    0.7688
       10 O1     4py        0.1926    0.2361
       11 O1     2pz        0.0000    0.0000
       12 O1     3pz        0.0000    0.0000
       13 O1     4pz        0.0000    0.0000
       14 O1     3d2-      -0.0802   -0.1565
       15 O1     4d2-      -0.0469   -0.0937
       16 O1     3d1-      -0.0000   -0.0000
       17 O1     4d1-      -0.0000   -0.0000
       18 O1     3d0        0.0722    0.0501
       19 O1     4d0        0.0458    0.0278
       20 O1     3d1+       0.0000    0.0000
       21 O1     4d1+      -0.0000   -0.0000
       22 O1     3d2+       0.0094    0.0589
       23 O1     4d2+       0.0156    0.0316
       24 O1     4f3-       0.0032    0.0005
       25 O1     4f2-       0.0000    0.0000
       26 O1     4f1-      -0.0099   -0.0074
       27 O1     4f0       -0.0000   -0.0000
       28 O1     4f1+      -0.0067   -0.0054
       29 O1     4f2+      -0.0000   -0.0000
       30 O1     4f3+      -0.0067   -0.0172
       31 O2     1s        -0.0000    0.1780
       32 O2     2s        -0.0000    0.9430
       33 O2     3s        -0.0000    0.9757
       34 O2     4s        -0.0000    0.2184
       35 O2     2px        0.0000   -0.1228
       36 O2     3px       -0.0000    0.2933
       37 O2     4px        0.0000   -0.0345
       38 O2     2py       -0.7974   -0.0000
       39 O2     3py       -0.3482   -0.0000
       40 O2     4py       -0.1463   -0.0000
       41 O2     2pz       -0.0000    0.0000
       42 O2     3pz       -0.0000    0.0000
       43 O2     4pz       -0.0000    0.0000
       44 O2     3d2-       0.1597    0.0000
       45 O2     4d2-       0.0542    0.0000
       46 O2     3d1-      -0.0000   -0.0000
       47 O2     4d1-      -0.0000   -0.0000
       48 O2     3d0        0.0000   -0.1627
       49 O2     4d0        0.0000   -0.0737
       50 O2     3d1+      -0.0000    0.0000
       51 O2     4d1+      -0.0000    0.0000
       52 O2     3d2+       0.0000   -0.0407
       53 O2     4d2+       0.0000   -0.0088
       54 O2     4f3-       0.0038    0.0000
       55 O2     4f2-      -0.0000   -0.0000
       56 O2     4f1-       0.0032    0.0000
       57 O2     4f0       -0.0000   -0.0000
       58 O2     4f1+       0.0000   -0.0069
       59 O2     4f2+       0.0000   -0.0000
       60 O2     4f3+       0.0000   -0.0122
       61 O3     1s        -0.0000   -0.0544
       62 O3     2s        -0.0495   -0.2703
       63 O3     3s         0.1840   -0.2390
       64 O3     4s         0.0585   -0.0330
       65 O3     2px        0.3568    0.0167
       66 O3     3px       -0.1886    0.2271
       67 O3     4px       -0.0931    0.0124
       68 O3     2py       -0.0329    0.0674
       69 O3     3py        0.5922   -0.7688
       70 O3     4py        0.1926   -0.2361
       71 O3     2pz       -0.0000   -0.0000
       72 O3     3pz       -0.0000   -0.0000
       73 O3     4pz       -0.0000   -0.0000
       74 O3     3d2-      -0.0802    0.1565
       75 O3     4d2-      -0.0469    0.0937
       76 O3     3d1-      -0.0000   -0.0000
       77 O3     4d1-      -0.0000   -0.0000
       78 O3     3d0       -0.0722    0.0501
       79 O3     4d0       -0.0458    0.0278
       80 O3     3d1+       0.0000    0.0000
       81 O3     4d1+       0.0000    0.0000
       82 O3     3d2+      -0.0094    0.0589
       83 O3     4d2+      -0.0156    0.0316
       84 O3     4f3-       0.0032   -0.0005
       85 O3     4f2-       0.0000    0.0000
       86 O3     4f1-      -0.0099    0.0074
       87 O3     4f0        0.0000    0.0000
       88 O3     4f1+       0.0067   -0.0054
       89 O3     4f2+       0.0000    0.0000
       90 O3     4f3+       0.0067   -0.0172
--
 
 
++    Molecular charges:
      ------------------
 
      Mulliken charges per centre and basis function type
      ---------------------------------------------------
 
                O1      O2      O3    
      1s       1.9980  1.9978  1.9980
      2s       1.9421  1.7355  1.9421
      2px      1.5658  1.4702  1.5658
      2pz      1.3628  1.1999  1.3628
      2py      1.2697  1.0798  1.2697
      3s      -0.0012 -0.0194 -0.0012
      3px     -0.0105 -0.0080 -0.0105
      3pz     -0.0141 -0.0126 -0.0141
      3py      0.0029 -0.0019  0.0029
      4s       0.0045  0.0021  0.0045
      3d2+     0.0073  0.0378  0.0073
      3d1+     0.0060  0.0116  0.0060
      3d0      0.0055  0.0074  0.0055
      3d1-     0.0089  0.0410  0.0089
      3d2-     0.0204  0.0412  0.0204
      4px      0.0011  0.0023  0.0011
      4pz      0.0012  0.0016  0.0012
      4py      0.0018  0.0029  0.0018
      4d2+    -0.0005  0.0082 -0.0005
      4d1+     0.0011  0.0018  0.0011
      4d0     -0.0001 -0.0001 -0.0001
      4d1-     0.0005  0.0107  0.0005
      4d2-     0.0009  0.0034  0.0009
      4f3+     0.0030  0.0039  0.0030
      4f2+     0.0002  0.0003  0.0002
      4f1+     0.0005  0.0007  0.0005
      4f0      0.0009  0.0016  0.0009
      4f1-     0.0008  0.0011  0.0008
      4f2-     0.0021  0.0050  0.0021
      4f3-     0.0021  0.0072  0.0021
      Total    8.1834  7.6332  8.1834
 
      N-E     -0.1834  0.3668 -0.1834
 
      Total electronic charge=   24.000000
 
      Total            charge=   -0.000000
--
 
 
  Input file to MOLDEN was generated!
 
 
++    Static properties:
      ------------------
 
 
      LoProp Charges per center
 

                   O1       O2       O3    
      Nuclear      8.0000   8.0000   8.0000
      Electronic  -8.2088  -7.5825  -8.2088
 
      Total       -0.2088   0.4175  -0.2088
--
 
 
++    Natural Bond Order analysis
      ---------------------------
      Based on LoProp computed density
      -------------------------------------------------------------------------------------
      Atom A       Atom B       Bond Order | Atom A       Atom B       Bond Order
        O1           O2             1.998  |   O2           O3             1.998
      -------------------------------------------------------------------------------------
      NBO located      9.999 core electrons.
      NBO located      5.949 lone pair electrons.
      NBO located      7.992 electrons involved in    2 bonds.
      The remaining    0.060 electrons are to be considered as diffuse
--
 
 
++    Molecular properties:
      ---------------------
 
      Charge (e):
                      =   -0.0000
      Dipole Moment (Debye):
      Origin of the operator (Ang)=    0.0000    0.0000    0.0000
                   X= -9.7647E-01               Y=  7.7246E-10               Z=  6.1009E-14           Total=  9.7647E-01
      Quadrupole Moment (Debye*Ang):
      Origin of the operator (Ang)=    0.5098    0.0000    0.0000
                  XX= -1.5415E+01              XY=  2.2307E-10              XZ=  1.1255E-13              YY= -1.7513E+01
                  YZ=  8.2917E-14              ZZ= -1.4882E+01
      In traceless form (Debye*Ang)
                  XX=  7.8260E-01              XY=  3.3461E-10              XZ=  1.6882E-13              YY= -2.3649E+00
                  YZ=  1.2438E-13              ZZ=  1.5823E+00
--
 
 
  Input file to MOLDEN was generated!
 
 ###############################################################################
 ###############################################################################
 ###                                                                         ###
 ###                                                                         ###
 ###    RunFile label nBas                                                   ###
 ###    was used       78 times                                              ###
 ###                                                                         ###
 ###                                                                         ###
 ###############################################################################
 ###############################################################################
--- Stop Module: scf at Tue Apr 29 12:22:17 2025 /rc=_RC_ALL_IS_WELL_ ---
*** files: ozone_106.50.LprOrb ozone_106.50.LoProp.molden ozone_106.50.scf.molden ozone_106.50.ScfOrb ozone_106.50.scf.h5 xmldump
    saved to directory /lustre/isaac/scratch/gjones39/ANO-RCC-VTZP/ozone_106.50
--- Module scf spent 14 seconds ---

>>> COPY /lustre/isaac/scratch/gjones39/ANO-RCC-VTZP/ozone_106.50/3189716/ozone_106.50.scf.h5 /lustre/isaac/scratch/gjones39/ANO-RCC-VTZP/ozone_106.50/

*** symbolic link created: INPORB -> ozone_106.50.ScfOrb
--- Start Module: rasscf at Tue Apr 29 12:22:18 2025 ---
 
()()()()()()()()()()()()()()()()()()()()()()()()()()()()()()()()()()()()()()()()()()()()()()()()()()

                                              &RASSCF

                                   only a single process is used
                       available to each process: 62 GB of memory, 1 thread?
()()()()()()()()()()()()()()()()()()()()()()()()()()()()()()()()()()()()()()()()()()()()()()()()()()
 
 
      Header of the ONEINT file:
      --------------------------
      
      Integrals generated by seward 4.2.0  , Tue Apr 29 12:21:48 2025
 
 
      OrdInt status: non-squared
 
 
      Cartesian coordinates in Angstrom:
      -----------------------------------------------------
      No.  Label        X            Y            Z        
      -----------------------------------------------------
       1   O1         0.76465900   1.02400200   0.00000000
       2   O2         0.00000000   0.00000000   0.00000000
       3   O3         0.76465900  -1.02400200   0.00000000
      -----------------------------------------------------
      Nuclear repulsion energy =   69.53729834
 
++    Wave function specifications:
      -----------------------------
 
      Number of closed shell electrons          12
      Number of electrons in active shells      12
      Max number of holes in RAS1 space          0
      Max nr of electrons in RAS3 space          0
      Number of inactive orbitals                6
      Number of active orbitals                  9
      Number of secondary orbitals              75
      Spin quantum number                      0.0
      State symmetry                             1
--
 
++    Orbital specifications:
      -----------------------
 
      Symmetry species                           1
                                                 a
      Frozen orbitals                            0
      Inactive orbitals                          6
      Active orbitals                            9
      RAS1 orbitals                              0
      RAS2 orbitals                              9
      RAS3 orbitals                              0
      Secondary orbitals                        75
      Deleted orbitals                           0
      Number of basis functions                 90
--
 
++    CI expansion specifications:
      ----------------------------
 
      Number of CSFs                          2520
      Number of determinants                  3570
      Number of root(s) required                 3
      Root chosen for geometry opt.              3
      CI roots used                              1     2     3
      weights                                0.333 0.333 0.333
      highest root included in the CI            3
      max. size of the explicit Hamiltonian    500
--
 
++    Optimization specifications:
      ----------------------------
 
      RASSCF algorithm: Conventional
      Maximum number of macro iterations       200
      Maximum number of SX iterations          100
      Threshold for RASSCF energy            0.100E-07
      Threshold for max MO rotation          0.100E+00
      Threshold for max BLB element          0.100E-03
      Level shift parameter                  0.500E+00
      Make Quasi-Newton update
--
 
      The MO-coefficients are taken from the file:
      /lustre/isaac/scratch/gjones39/ANO-RCC-VTZP/ozone_106.25/ozone_106.25.RasOrb                                                    
      Title: RASSCF average (pseudo-natural) orbitals                                      
 
      Total molecular charge    0.00
 
      ************************************************************************************************************************
      *                                                                                                                      *
      *                                            Wave function control section                                             *
      *                                                                                                                      *
      ************************************************************************************************************************
 
 
                                         RASSCF iterations: Energy and convergence statistics
                                         ----------------------------------------------------
 
      Iter CI   SX   CI       RASSCF       Energy    max ROT     max BLB   max BLB  Level Ln srch  Step   QN   Walltime
          iter iter root      energy       change     param      element    value   shift minimum  type update hh:mm:ss
 Nr of preliminary CI iterations:   5
        1   1    7    0  -224.67860307    0.00E+00  -0.54E-03    7  75 1 -0.10E-02*  0.00   0.00    SX    NO    0:00:02
        2   1    6    0  -224.67860540   -0.23E-05*  0.18E-03    4  14 1  0.16E-03*  0.00   0.00    SX    NO    0:00:01
        3   2    5    0  -224.67861118   -0.58E-05* -0.60E-04   10  38 1  0.68E-04   0.00   0.00    SX    NO    0:00:00
        4   6    5    0  -224.67861314   -0.20E-05* -0.11E-03   12  29 1 -0.14E-03*  0.00   0.00    SX    NO    0:00:00
        5   5    5    0  -224.67861324   -0.10E-06* -0.84E-04    6  24 1  0.65E-04   0.00   1.23    QN   YES    0:00:00
        6   3    5    0  -224.67861327   -0.24E-07*  0.15E-04   12  29 1  0.20E-04   0.00   0.89    QN   YES    0:00:00
        7   1    5    0  -224.67861327   -0.19E-08   0.26E-04    6  21 1  0.24E-04   0.00   0.95    QN   YES    0:00:01
      Convergence after  7 iterations
 
  Dmat in MO in SXCTL bf call to SXHAM                                                                                    
  mat. size =     9x    9
 
        1.9622247716620329
        0.0000000038253906      1.9519558873121443
       -0.0000000000235358     -0.0000000041329587      1.9751301385723852
        0.0006019584509747      0.0000000072434168      0.0000000017020587      1.6955798862740550
       -0.0000000412146969     -0.0005908919718619     -0.0000000014654666      0.0000000476675141      1.6233579159383154
       -0.0000000016402216      0.0000000008101546      0.0000000574618319     -0.0000000231823608     -0.0000000013036496
        1.7582948303883663
       -0.0000000009671508     -0.0000000089013816      0.0003195818029784      0.0000000045974980      0.0000000051515382
        0.0000002153269677      0.9315216577958727
        0.0010004698492860     -0.0000000573438862     -0.0000000003066135      0.0029208214097523      0.0000000090129477
       -0.0000000307063746     -0.0000000004181366      0.0528607358837081
       -0.0000000466518342     -0.0001125135895661     -0.0000000094853229      0.0000000789907011     -0.0018172826331678
       -0.0000000001462587     -0.0000000090404294      0.0000000018009658      0.0490741761731263
        8   1    5    0  -224.67861327   -0.13E-08   0.26E-04    6  50 1  0.90E-05   0.00   0.95    QN   YES    0:00:01
 
      ************************************************************************************************************************
                                                      Wave function printout:
                       occupation of active orbitals, and spin coupling of open shells (u,d: Spin up or down)
      ************************************************************************************************************************
 
      Note: transformation to natural orbitals
      has been made, which may change the order of the CSFs.
 
      printout of CI-coefficients larger than  0.05 for root  1
      energy=    -224.728950
      conf/sym  111111111     Coeff  Weight
             1  222222000  -0.89042 0.79284
             4  222220200   0.34836 0.12135
            72  222u2du0d  -0.05274 0.00278
           126  22u222d00  -0.06643 0.00441
           205  2u222dud0   0.06221 0.00387
           207  2u222udd0   0.05159 0.00266
           551  220222200   0.06684 0.00447
           611  2ud222u0d   0.06560 0.00430
           652  u2d222ud0  -0.05876 0.00345
           731  202222002   0.06671 0.00445
           764  ud22220ud  -0.07533 0.00567
           805  022222020   0.06295 0.00396
           992  2uu222d0d   0.06767 0.00458
          1031  u2u222dd0  -0.05511 0.00304
 
      printout of CI-coefficients larger than  0.05 for root  2
      energy=    -224.669335
      conf/sym  111111111     Coeff  Weight
             3  2222u2d00   0.88174 0.77747
            52  222u2d200  -0.38532 0.14847
           128  22u2d2200  -0.06612 0.00437
           277  u2222d200   0.05323 0.00283
           361  222022u0d   0.05507 0.00303
           613  2ud2u220d  -0.05255 0.00276
           654  u2d2u22d0   0.05361 0.00287
           733  2022u2d02  -0.06998 0.00490
           766  ud22u2dud   0.07992 0.00639
           807  0222u2d20  -0.06795 0.00462
           994  2uu2d220d  -0.06212 0.00386
          1033  u2u2d22d0   0.05290 0.00280
 
      printout of CI-coefficients larger than  0.05 for root  3
      energy=    -224.637554
      conf/sym  111111111     Coeff  Weight
             5  2222ud200   0.50876 0.25883
            51  222u22d00  -0.82249 0.67649
           202  2u222d200  -0.05767 0.00333
           768  ud22ud2ud   0.05510 0.00304
          1381  202u22d02   0.06514 0.00424
          1406  ud2u22dud  -0.07662 0.00587
          1442  022u22d20   0.06341 0.00402
          1485  2uud2220d   0.05728 0.00328
 
      Natural orbitals and occupation numbers for root  1
      sym 1:   1.956195   1.948524   1.964456   1.993539   1.993082   1.718761   0.316474   0.056376   0.052593
 
      Natural orbitals and occupation numbers for root  2
      sym 1:   1.960159   1.954649   1.983778   1.817477   1.170010   1.835684   1.178204   0.051629   0.048410
 
      Natural orbitals and occupation numbers for root  3
      sym 1:   1.964930   1.953666   1.985432   1.282116   1.707073   1.720440   1.291611   0.049575   0.045156
 
      ************************************************************************************************************************
      *                                                                                                                      *
      *                                                    Final results                                                     *
      *                                                                                                                      *
      ************************************************************************************************************************
 
 
++    Wave function specifications:
      -----------------------------
 
      Number of closed shell electrons          12
      Number of electrons in active shells      12
      Max number of holes in RAS1 space          0
      Max nr of electrons in RAS3 space          0
      Number of inactive orbitals                6
      Number of active orbitals                  9
      Number of secondary orbitals              75
      Spin quantum number                      0.0
      State symmetry                             1
--
 
++    Orbital specifications:
      -----------------------
 
      Symmetry species                           1
                                                 a
      Frozen orbitals                            0
      Inactive orbitals                          6
      Active orbitals                            9
      RAS1 orbitals                              0
      RAS2 orbitals                              9
      RAS3 orbitals                              0
      Secondary orbitals                        75
      Deleted orbitals                           0
      Number of basis functions                 90
--
 
++    CI expansion specifications:
      ----------------------------
 
      Number of CSFs                          2520
      Number of determinants                  3570
      Number of root(s) required                 3
      CI roots used                              1     2     3
      weights                                0.333 0.333 0.333
      highest root included in the CI            3
      Root passed to geometry opt.               3
--
 
++    Final optimization conditions:
      ------------------------------
 
      Average CI energy                            -224.67861327
      RASSCF energy for state  3                   -224.63755424
      Super-CI energy                                -0.00000000
      RASSCF energy change                            0.00000000
      Max change in MO coefficients              -0.189E-04
      Max non-diagonal density matrix element     0.259E-04
      Maximum BLB matrix element                  0.903E-05
      (orbital pair   6,  50 in symmetry   1)
      Norm of electronic gradient            0.673E-01
--
 
 
      Final state energy(ies):
      ------------------------
 
::    RASSCF root number  1 Total energy:   -224.72895023
::    RASSCF root number  2 Total energy:   -224.66933533
::    RASSCF root number  3 Total energy:   -224.63755424
 
++    Molecular orbitals:
      -------------------
 
      Pseudonatural active orbitals and approximate occupation numbers
 
 
 
 
      Molecular orbitals for symmetry species 1: a  
 
 
      Orbital                1         2         3         4         5         6         7         8         9        10
      Energy          -20.7990  -20.6934  -20.6934   -1.5133   -1.2811   -1.0721    0.0000    0.0000    0.0000    0.0000
      Occ. No.          2.0000    2.0000    2.0000    2.0000    2.0000    2.0000    1.9622    1.9520    1.9751    1.6956
 
    1 O1     1s         0.0036   -0.7065    0.7064   -0.0058   -0.0006    0.0097   -0.0189   -0.0239    0.0000    0.0001
    2 O1     2s         0.0046    0.0043   -0.0046    0.4741   -0.7121    0.5379   -0.1067   -0.1013   -0.0000   -0.0424
    3 O1     3s         0.0026    0.0033   -0.0034    0.0037   -0.0084    0.0173   -0.0360   -0.0548    0.0000    0.0078
    4 O1     4s         0.0004    0.0006   -0.0005    0.0016   -0.0009    0.0018   -0.0061   -0.0114    0.0000    0.0027
    5 O1     2px       -0.0014   -0.0012    0.0012   -0.0062   -0.0640    0.0819   -0.0926   -0.3156   -0.0000    0.6395
    6 O1     3px       -0.0009   -0.0014    0.0013    0.0109    0.0051   -0.0202    0.0088    0.0361   -0.0000   -0.0033
    7 O1     4px        0.0002    0.0008   -0.0008    0.0012    0.0009    0.0009    0.0011    0.0019    0.0000   -0.0076
    8 O1     2py       -0.0026   -0.0016    0.0017    0.0639   -0.0766    0.0464   -0.3687   -0.2995    0.0000   -0.2451
    9 O1     3py       -0.0014   -0.0019    0.0019   -0.0022    0.0032   -0.0098    0.0455    0.0372   -0.0000   -0.0056
   10 O1     4py        0.0007    0.0011   -0.0011   -0.0018   -0.0017    0.0022    0.0025    0.0033   -0.0000    0.0025
   11 O1     2pz       -0.0000    0.0000    0.0000    0.0000   -0.0000    0.0000   -0.0000    0.0000    0.3290    0.0000
   12 O1     3pz       -0.0000   -0.0000    0.0000    0.0000   -0.0000   -0.0000    0.0000   -0.0000   -0.0277   -0.0000
   13 O1     4pz        0.0000    0.0000   -0.0000    0.0000   -0.0000    0.0000    0.0000   -0.0000   -0.0048   -0.0000
   14 O1     3d2-       0.0006    0.0009   -0.0009    0.0088   -0.0016   -0.0108    0.0208    0.0308   -0.0000   -0.0122
   15 O1     4d2-       0.0003    0.0005   -0.0006    0.0010   -0.0006   -0.0008    0.0018    0.0026   -0.0000   -0.0013
   16 O1     3d1-       0.0000    0.0000   -0.0000   -0.0000    0.0000    0.0000    0.0000   -0.0000   -0.0218   -0.0000
   17 O1     4d1-       0.0000    0.0000   -0.0000   -0.0000    0.0000    0.0000    0.0000   -0.0000   -0.0024   -0.0000
   18 O1     3d0       -0.0004   -0.0006    0.0005   -0.0042    0.0013    0.0036   -0.0143   -0.0167    0.0000    0.0022
   19 O1     4d0       -0.0002   -0.0004    0.0003   -0.0000    0.0007   -0.0001   -0.0004   -0.0013    0.0000   -0.0006
   20 O1     3d1+       0.0000   -0.0000    0.0000    0.0000   -0.0000   -0.0000    0.0000   -0.0000   -0.0157   -0.0000
   21 O1     4d1+       0.0000    0.0000   -0.0000    0.0000   -0.0000   -0.0000   -0.0000   -0.0000   -0.0021   -0.0000
   22 O1     3d2+      -0.0005   -0.0003    0.0003    0.0025    0.0010   -0.0036   -0.0216   -0.0003    0.0000   -0.0105
   23 O1     4d2+      -0.0002   -0.0002    0.0002    0.0004    0.0006   -0.0002   -0.0013    0.0002    0.0000   -0.0022
   24 O1     4f3-       0.0001   -0.0001    0.0001   -0.0021    0.0006    0.0025    0.0021   -0.0047    0.0000    0.0034
   25 O1     4f2-      -0.0000   -0.0000    0.0000   -0.0000    0.0000   -0.0000   -0.0000    0.0000    0.0056    0.0000
   26 O1     4f1-       0.0001    0.0001   -0.0001    0.0015   -0.0010   -0.0003    0.0041    0.0037   -0.0000   -0.0004
   27 O1     4f0        0.0000    0.0000   -0.0000    0.0000   -0.0000    0.0000    0.0000   -0.0000   -0.0044   -0.0000
   28 O1     4f1+       0.0000    0.0001   -0.0001    0.0015   -0.0008   -0.0010    0.0018    0.0034   -0.0000   -0.0012
   29 O1     4f2+      -0.0000    0.0000   -0.0000   -0.0000    0.0000    0.0000    0.0000   -0.0000   -0.0019   -0.0000
   30 O1     4f3+       0.0001    0.0002   -0.0002    0.0023   -0.0015   -0.0011    0.0071    0.0056   -0.0000   -0.0009
   31 O2     1s         0.9987    0.0000   -0.0027   -0.0178   -0.0000   -0.0188   -0.0256   -0.0000    0.0000    0.0198
   32 O2     2s        -0.0084   -0.0000    0.0096    0.5633   -0.0000   -0.7635    0.1356    0.0000   -0.0000    0.2077
   33 O2     3s        -0.0062   -0.0000    0.0054   -0.0325   -0.0000   -0.0312   -0.0569   -0.0000    0.0000    0.0537
   34 O2     4s        -0.0011   -0.0000    0.0009   -0.0058   -0.0000   -0.0055   -0.0111   -0.0000    0.0000    0.0119
   35 O2     2px       -0.0027   -0.0000    0.0040   -0.1967    0.0000    0.2892    0.6523    0.0000    0.0000   -0.2668
   36 O2     3px       -0.0031   -0.0000    0.0022   -0.0133   -0.0000   -0.0294   -0.0640   -0.0000    0.0000   -0.0148
   37 O2     4px        0.0021    0.0000   -0.0008    0.0024   -0.0000    0.0001   -0.0084   -0.0000   -0.0000   -0.0020
   38 O2     2py        0.0000   -0.0047   -0.0000    0.0000   -0.0287   -0.0000   -0.0000    0.6248   -0.0000   -0.0000
   39 O2     3py        0.0000   -0.0026   -0.0000   -0.0000    0.0303    0.0000    0.0000   -0.0745    0.0000    0.0000
   40 O2     4py       -0.0000    0.0011    0.0000    0.0000   -0.0051    0.0000    0.0000   -0.0049    0.0000   -0.0000
   41 O2     2pz       -0.0000    0.0000   -0.0000    0.0000   -0.0000   -0.0000    0.0000    0.0000    0.7472    0.0000
   42 O2     3pz        0.0000   -0.0000    0.0000   -0.0000    0.0000    0.0000   -0.0000   -0.0000   -0.0477    0.0000
   43 O2     4pz        0.0000   -0.0000    0.0000   -0.0000    0.0000    0.0000   -0.0000   -0.0000   -0.0123   -0.0000
   44 O2     3d2-       0.0000   -0.0014   -0.0000    0.0000   -0.0210   -0.0000   -0.0000    0.0506   -0.0000   -0.0000
   45 O2     4d2-       0.0000   -0.0006   -0.0000    0.0000   -0.0019   -0.0000   -0.0000    0.0047   -0.0000   -0.0000
   46 O2     3d1-       0.0000    0.0000   -0.0000   -0.0000   -0.0000   -0.0000   -0.0000   -0.0000    0.0000    0.0000
   47 O2     4d1-      -0.0000    0.0000   -0.0000   -0.0000   -0.0000   -0.0000   -0.0000   -0.0000    0.0000    0.0000
   48 O2     3d0        0.0011    0.0000   -0.0009   -0.0053   -0.0000   -0.0104   -0.0256   -0.0000    0.0000    0.0141
   49 O2     4d0        0.0007    0.0000   -0.0005    0.0008    0.0000   -0.0011   -0.0017   -0.0000   -0.0000    0.0015
   50 O2     3d1+      -0.0000    0.0000   -0.0000    0.0000   -0.0000   -0.0000    0.0000    0.0000    0.0314    0.0000
   51 O2     4d1+      -0.0000    0.0000   -0.0000    0.0000   -0.0000   -0.0000    0.0000    0.0000    0.0038    0.0000
   52 O2     3d2+       0.0001    0.0000   -0.0004   -0.0109    0.0000    0.0058    0.0170    0.0000    0.0000    0.0381
   53 O2     4d2+      -0.0000    0.0000   -0.0002   -0.0009    0.0000    0.0007    0.0026    0.0000   -0.0000    0.0069
   54 O2     4f3-       0.0000   -0.0001   -0.0000    0.0000   -0.0021    0.0000   -0.0000    0.0003   -0.0000   -0.0000
   55 O2     4f2-       0.0000    0.0000   -0.0000    0.0000   -0.0000   -0.0000   -0.0000    0.0000    0.0000    0.0000
   56 O2     4f1-      -0.0000    0.0001    0.0000   -0.0000    0.0031    0.0000    0.0000   -0.0077    0.0000    0.0000
   57 O2     4f0        0.0000   -0.0000    0.0000   -0.0000    0.0000    0.0000   -0.0000   -0.0000   -0.0081    0.0000
   58 O2     4f1+       0.0002    0.0000   -0.0001   -0.0021   -0.0000   -0.0017   -0.0066   -0.0000    0.0000    0.0004
   59 O2     4f2+       0.0000   -0.0000    0.0000   -0.0000   -0.0000    0.0000    0.0000   -0.0000   -0.0024   -0.0000
   60 O2     4f3+       0.0002    0.0000   -0.0002   -0.0054   -0.0000   -0.0001   -0.0059   -0.0000    0.0000    0.0072
   61 O3     1s         0.0036    0.7065    0.7064   -0.0058    0.0006    0.0097   -0.0189    0.0239   -0.0000    0.0001
   62 O3     2s         0.0046   -0.0043   -0.0046    0.4741    0.7121    0.5379   -0.1067    0.1013    0.0000   -0.0424
   63 O3     3s         0.0026   -0.0033   -0.0034    0.0037    0.0084    0.0173   -0.0360    0.0548   -0.0000    0.0078
   64 O3     4s         0.0004   -0.0006   -0.0005    0.0016    0.0009    0.0018   -0.0061    0.0114   -0.0000    0.0027
   65 O3     2px       -0.0014    0.0012    0.0012   -0.0062    0.0640    0.0819   -0.0926    0.3156    0.0000    0.6395
   66 O3     3px       -0.0009    0.0014    0.0013    0.0109   -0.0051   -0.0202    0.0088   -0.0361    0.0000   -0.0033
   67 O3     4px        0.0002   -0.0008   -0.0008    0.0012   -0.0009    0.0009    0.0011   -0.0019   -0.0000   -0.0076
   68 O3     2py        0.0026   -0.0016   -0.0017   -0.0639   -0.0766   -0.0464    0.3687   -0.2995    0.0000    0.2451
   69 O3     3py        0.0014   -0.0019   -0.0019    0.0022    0.0032    0.0098   -0.0455    0.0372   -0.0000    0.0056
   70 O3     4py       -0.0007    0.0011    0.0011    0.0018   -0.0017   -0.0022   -0.0025    0.0033   -0.0000   -0.0025
   71 O3     2pz        0.0000    0.0000   -0.0000   -0.0000   -0.0000   -0.0000    0.0000    0.0000    0.3290   -0.0000
   72 O3     3pz        0.0000   -0.0000   -0.0000   -0.0000   -0.0000    0.0000   -0.0000   -0.0000   -0.0277    0.0000
   73 O3     4pz       -0.0000    0.0000    0.0000   -0.0000   -0.0000   -0.0000   -0.0000   -0.0000   -0.0048    0.0000
   74 O3     3d2-      -0.0006    0.0009    0.0009   -0.0088   -0.0016    0.0108   -0.0208    0.0308   -0.0000    0.0122
   75 O3     4d2-      -0.0003    0.0005    0.0006   -0.0010   -0.0006    0.0008   -0.0018    0.0026   -0.0000    0.0013
   76 O3     3d1-       0.0000   -0.0000   -0.0000   -0.0000   -0.0000    0.0000    0.0000    0.0000    0.0218   -0.0000
   77 O3     4d1-       0.0000   -0.0000   -0.0000   -0.0000   -0.0000    0.0000    0.0000    0.0000    0.0024   -0.0000
   78 O3     3d0       -0.0004    0.0006    0.0005   -0.0042   -0.0013    0.0036   -0.0143    0.0167   -0.0000    0.0022
   79 O3     4d0       -0.0002    0.0004    0.0003   -0.0000   -0.0007   -0.0001   -0.0004    0.0013   -0.0000   -0.0006
   80 O3     3d1+      -0.0000   -0.0000   -0.0000   -0.0000   -0.0000    0.0000   -0.0000   -0.0000   -0.0157    0.0000
   81 O3     4d1+      -0.0000    0.0000    0.0000   -0.0000   -0.0000    0.0000   -0.0000   -0.0000   -0.0021    0.0000
   82 O3     3d2+      -0.0005    0.0003    0.0003    0.0025   -0.0010   -0.0036   -0.0216    0.0003   -0.0000   -0.0105
   83 O3     4d2+      -0.0002    0.0002    0.0002    0.0004   -0.0006   -0.0002   -0.0013   -0.0002   -0.0000   -0.0022
   84 O3     4f3-      -0.0001   -0.0001   -0.0001    0.0021    0.0006   -0.0025   -0.0021   -0.0047    0.0000   -0.0034
   85 O3     4f2-      -0.0000    0.0000    0.0000   -0.0000   -0.0000    0.0000   -0.0000   -0.0000   -0.0056    0.0000
   86 O3     4f1-      -0.0001    0.0001    0.0001   -0.0015   -0.0010    0.0003   -0.0041    0.0037   -0.0000    0.0004
   87 O3     4f0       -0.0000    0.0000    0.0000   -0.0000   -0.0000   -0.0000   -0.0000   -0.0000   -0.0044    0.0000
   88 O3     4f1+       0.0000   -0.0001   -0.0001    0.0015    0.0008   -0.0010    0.0018   -0.0034    0.0000   -0.0012
   89 O3     4f2+       0.0000    0.0000    0.0000    0.0000    0.0000   -0.0000   -0.0000   -0.0000   -0.0019    0.0000
   90 O3     4f3+       0.0001   -0.0002   -0.0002    0.0023    0.0015   -0.0011    0.0071   -0.0056    0.0000   -0.0009
 
 
      Orbital               11        12        13        14        15        16        17        18        19        20
      Energy            0.0000    0.0000    0.0000    0.0000    0.0000    0.1926    0.1944    0.2385    0.3465    0.3526
      Occ. No.          1.6234    1.7583    0.9315    0.0529    0.0491    0.0000    0.0000    0.0000    0.0000    0.0000
 
    1 O1     1s        -0.0001    0.0000    0.0000   -0.0341   -0.0392   -0.1803   -0.1526    0.0000    0.0540   -0.0052
    2 O1     2s        -0.0489    0.0000    0.0000   -0.3787   -0.4106   -1.3180   -1.0473    0.0000    0.3803    0.0445
    3 O1     3s         0.0043    0.0000    0.0000   -0.0566   -0.0786   -0.8197   -0.6658    0.0000    0.2086    0.0601
    4 O1     4s         0.0015    0.0000    0.0000   -0.0061   -0.0118   -0.1885   -0.1419    0.0000    0.0319    0.0211
    5 O1     2px       -0.5040    0.0000   -0.0000    0.3286    0.4766    0.4085    0.2361   -0.0000   -0.2412   -0.2132
    6 O1     3px       -0.0131   -0.0000    0.0000   -0.0031   -0.0731    0.4375    0.4454   -0.0000    0.0491   -0.8103
    7 O1     4px        0.0041   -0.0000    0.0000   -0.0081   -0.0011    0.0343    0.0974   -0.0000    0.1175   -0.3131
    8 O1     2py        0.5573   -0.0000    0.0000    0.6076    0.4644    0.4000    0.5355   -0.0000   -0.3967   -0.2672
    9 O1     3py        0.0040   -0.0000   -0.0000   -0.0783   -0.0022    0.7222    0.5477   -0.0000   -0.9433   -0.3367
   10 O1     4py       -0.0053    0.0000    0.0000   -0.0049   -0.0115    0.1436    0.0236   -0.0000   -0.2968   -0.0788
   11 O1     2pz       -0.0000   -0.7169    0.6498   -0.0000    0.0000    0.0000    0.0000   -0.0836   -0.0000    0.0000
   12 O1     3pz        0.0000   -0.0041    0.0090   -0.0000    0.0000    0.0000    0.0000    0.3435   -0.0000    0.0000
   13 O1     4pz        0.0000    0.0086   -0.0049    0.0000   -0.0000    0.0000    0.0000    0.1951   -0.0000    0.0000
   14 O1     3d2-      -0.0016   -0.0000    0.0000   -0.0254   -0.0176   -0.0972   -0.0829    0.0000    0.0798    0.0288
   15 O1     4d2-       0.0005   -0.0000    0.0000   -0.0092   -0.0079   -0.0572   -0.0520    0.0000    0.0543    0.0322
   16 O1     3d1-       0.0000    0.0138    0.0026    0.0000    0.0000    0.0000   -0.0000    0.0177    0.0000   -0.0000
   17 O1     4d1-       0.0000    0.0026    0.0004    0.0000    0.0000    0.0000   -0.0000    0.0083    0.0000   -0.0000
   18 O1     3d0        0.0019    0.0000   -0.0000    0.0100    0.0146    0.0695    0.0538   -0.0000   -0.0209   -0.0277
   19 O1     4d0       -0.0002   -0.0000    0.0000    0.0020    0.0066    0.0443    0.0311   -0.0000   -0.0142   -0.0243
   20 O1     3d1+       0.0000    0.0109    0.0033    0.0000    0.0000   -0.0000   -0.0000    0.0053    0.0000    0.0000
   21 O1     4d1+       0.0000    0.0017    0.0004    0.0000    0.0000   -0.0000   -0.0000   -0.0002    0.0000    0.0000
   22 O1     3d2+       0.0167   -0.0000   -0.0000    0.0070    0.0180    0.0279    0.0564   -0.0000   -0.0143   -0.0071
   23 O1     4d2+       0.0031   -0.0000   -0.0000    0.0034    0.0060    0.0193    0.0321   -0.0000   -0.0149   -0.0053
   24 O1     4f3-      -0.0034    0.0000   -0.0000    0.0014   -0.0012    0.0028   -0.0000   -0.0000    0.0022   -0.0073
   25 O1     4f2-      -0.0000   -0.0034   -0.0007   -0.0000   -0.0000    0.0000    0.0000    0.0031   -0.0000    0.0000
   26 O1     4f1-      -0.0012   -0.0000   -0.0000   -0.0024   -0.0044   -0.0079   -0.0038    0.0000    0.0048    0.0073
   27 O1     4f0        0.0000    0.0022    0.0015    0.0000    0.0000   -0.0000   -0.0000   -0.0011    0.0000   -0.0000
   28 O1     4f1+      -0.0001   -0.0000    0.0000   -0.0023   -0.0018   -0.0038   -0.0037    0.0000    0.0032    0.0074
   29 O1     4f2+      -0.0000    0.0008   -0.0002    0.0000    0.0000   -0.0000   -0.0000    0.0004    0.0000   -0.0000
   30 O1     4f3+      -0.0029   -0.0000    0.0000   -0.0036   -0.0054   -0.0083   -0.0065    0.0000    0.0143    0.0097
   31 O2     1s        -0.0000    0.0000    0.0000    0.0854   -0.0000    0.0000    0.3037    0.0000   -0.2043   -0.0000
   32 O2     2s        -0.0000    0.0000    0.0000    0.8463   -0.0000    0.0000    2.1322    0.0000   -1.3490   -0.0000
   33 O2     3s        -0.0000    0.0000   -0.0000    0.0961   -0.0000    0.0000    1.3350    0.0000   -0.8322   -0.0000
   34 O2     4s        -0.0000    0.0000    0.0000    0.0303   -0.0000    0.0000    0.2887    0.0000   -0.1732   -0.0000
   35 O2     2px        0.0000   -0.0000   -0.0000    0.7531   -0.0000    0.0000    0.7224    0.0000   -0.4332   -0.0000
   36 O2     3px        0.0000   -0.0000    0.0000   -0.1442    0.0000    0.0000    1.0528    0.0000   -0.3781   -0.0000
   37 O2     4px        0.0000   -0.0000   -0.0000    0.0267   -0.0000    0.0000    0.1697    0.0000    0.0382   -0.0000
   38 O2     2py       -0.0473   -0.0000   -0.0000    0.0000    0.9962    1.0082   -0.0000   -0.0000    0.0000   -0.0113
   39 O2     3py       -0.0167   -0.0000    0.0000   -0.0000   -0.1302    1.1775   -0.0000   -0.0000    0.0000    0.4542
   40 O2     4py       -0.0035    0.0000   -0.0000   -0.0000    0.0067    0.1296   -0.0000   -0.0000   -0.0000    0.2521
   41 O2     2pz       -0.0000    0.0000   -0.7228    0.0000   -0.0000   -0.0000    0.0000   -0.0654    0.0000   -0.0000
   42 O2     3pz        0.0000    0.0000   -0.0279    0.0000   -0.0000    0.0000   -0.0000    0.3336    0.0000   -0.0000
   43 O2     4pz        0.0000   -0.0000    0.0032   -0.0000    0.0000    0.0000   -0.0000    0.1921    0.0000   -0.0000
   44 O2     3d2-      -0.0324   -0.0000    0.0000    0.0000    0.0355    0.1845   -0.0000   -0.0000   -0.0000    0.0256
[...]

>>> COPY /lustre/isaac/scratch/gjones39/ANO-RCC-VTZP/ozone_106.50/3189716/GMJ_IVECW_H_P_2_.csv /lustre/isaac/scratch/gjones39/ANO-RCC-VTZP/ozone_106.50/GMJ_IVECW_H_P_2_.csv

>>> COPY /lustre/isaac/scratch/gjones39/ANO-RCC-VTZP/ozone_106.50/3189716/GMJ_IVECX_H_P_2_.csv /lustre/isaac/scratch/gjones39/ANO-RCC-VTZP/ozone_106.50/GMJ_IVECX_H_P_2_.csv

>>> COPY /lustre/isaac/scratch/gjones39/ANO-RCC-VTZP/ozone_106.50/3189716/GMJ_IVECC2_H_P_2_.csv /lustre/isaac/scratch/gjones39/ANO-RCC-VTZP/ozone_106.50/GMJ_IVECC2_H_P_2_.csv

>>> COPY /lustre/isaac/scratch/gjones39/ANO-RCC-VTZP/ozone_106.50/3189716/GMJ_e2_H_P_2_.csv /lustre/isaac/scratch/gjones39/ANO-RCC-VTZP/ozone_106.50/GMJ_e2_H_P_2_.csv

>>> END FOREACH

>>> EXPORT j = M

>>> IF (-FILE GMJ_e2_${i}_${j}_${k}_.csv)

>>> COPY /lustre/isaac/scratch/gjones39/ANO-RCC-VTZP/ozone_106.50/3189716/GMJ_RHS_H_M_2_.csv /lustre/isaac/scratch/gjones39/ANO-RCC-VTZP/ozone_106.50/GMJ_RHS_H_M_2_.csv

>>> COPY /lustre/isaac/scratch/gjones39/ANO-RCC-VTZP/ozone_106.50/3189716/GMJ_IVECW_H_M_2_.csv /lustre/isaac/scratch/gjones39/ANO-RCC-VTZP/ozone_106.50/GMJ_IVECW_H_M_2_.csv

>>> COPY /lustre/isaac/scratch/gjones39/ANO-RCC-VTZP/ozone_106.50/3189716/GMJ_IVECX_H_M_2_.csv /lustre/isaac/scratch/gjones39/ANO-RCC-VTZP/ozone_106.50/GMJ_IVECX_H_M_2_.csv

>>> COPY /lustre/isaac/scratch/gjones39/ANO-RCC-VTZP/ozone_106.50/3189716/GMJ_IVECC2_H_M_2_.csv /lustre/isaac/scratch/gjones39/ANO-RCC-VTZP/ozone_106.50/GMJ_IVECC2_H_M_2_.csv

>>> COPY /lustre/isaac/scratch/gjones39/ANO-RCC-VTZP/ozone_106.50/3189716/GMJ_e2_H_M_2_.csv /lustre/isaac/scratch/gjones39/ANO-RCC-VTZP/ozone_106.50/GMJ_e2_H_M_2_.csv

>>> END FOREACH

>>> END FOREACH

>>> END FOREACH

>>> EXPORT k = 3

>>> EXPORT i = B

>>> EXPORT j = P

>>> IF (-FILE GMJ_e2_${i}_${j}_${k}_.csv)

>>> COPY /lustre/isaac/scratch/gjones39/ANO-RCC-VTZP/ozone_106.50/3189716/GMJ_RHS_B_P_3_.csv /lustre/isaac/scratch/gjones39/ANO-RCC-VTZP/ozone_106.50/GMJ_RHS_B_P_3_.csv

>>> COPY /lustre/isaac/scratch/gjones39/ANO-RCC-VTZP/ozone_106.50/3189716/GMJ_IVECW_B_P_3_.csv /lustre/isaac/scratch/gjones39/ANO-RCC-VTZP/ozone_106.50/GMJ_IVECW_B_P_3_.csv

>>> COPY /lustre/isaac/scratch/gjones39/ANO-RCC-VTZP/ozone_106.50/3189716/GMJ_IVECX_B_P_3_.csv /lustre/isaac/scratch/gjones39/ANO-RCC-VTZP/ozone_106.50/GMJ_IVECX_B_P_3_.csv

>>> COPY /lustre/isaac/scratch/gjones39/ANO-RCC-VTZP/ozone_106.50/3189716/GMJ_IVECC2_B_P_3_.csv /lustre/isaac/scratch/gjones39/ANO-RCC-VTZP/ozone_106.50/GMJ_IVECC2_B_P_3_.csv

>>> COPY /lustre/isaac/scratch/gjones39/ANO-RCC-VTZP/ozone_106.50/3189716/GMJ_e2_B_P_3_.csv /lustre/isaac/scratch/gjones39/ANO-RCC-VTZP/ozone_106.50/GMJ_e2_B_P_3_.csv

>>> END FOREACH

>>> EXPORT j = M

>>> IF (-FILE GMJ_e2_${i}_${j}_${k}_.csv)

>>> COPY /lustre/isaac/scratch/gjones39/ANO-RCC-VTZP/ozone_106.50/3189716/GMJ_RHS_B_M_3_.csv /lustre/isaac/scratch/gjones39/ANO-RCC-VTZP/ozone_106.50/GMJ_RHS_B_M_3_.csv

>>> COPY /lustre/isaac/scratch/gjones39/ANO-RCC-VTZP/ozone_106.50/3189716/GMJ_IVECW_B_M_3_.csv /lustre/isaac/scratch/gjones39/ANO-RCC-VTZP/ozone_106.50/GMJ_IVECW_B_M_3_.csv

>>> COPY /lustre/isaac/scratch/gjones39/ANO-RCC-VTZP/ozone_106.50/3189716/GMJ_IVECX_B_M_3_.csv /lustre/isaac/scratch/gjones39/ANO-RCC-VTZP/ozone_106.50/GMJ_IVECX_B_M_3_.csv

>>> COPY /lustre/isaac/scratch/gjones39/ANO-RCC-VTZP/ozone_106.50/3189716/GMJ_IVECC2_B_M_3_.csv /lustre/isaac/scratch/gjones39/ANO-RCC-VTZP/ozone_106.50/GMJ_IVECC2_B_M_3_.csv

>>> COPY /lustre/isaac/scratch/gjones39/ANO-RCC-VTZP/ozone_106.50/3189716/GMJ_e2_B_M_3_.csv /lustre/isaac/scratch/gjones39/ANO-RCC-VTZP/ozone_106.50/GMJ_e2_B_M_3_.csv

>>> END FOREACH

>>> END FOREACH

>>> EXPORT i = E

>>> EXPORT j = P

>>> IF (-FILE GMJ_e2_${i}_${j}_${k}_.csv)

>>> COPY /lustre/isaac/scratch/gjones39/ANO-RCC-VTZP/ozone_106.50/3189716/GMJ_RHS_E_P_3_.csv /lustre/isaac/scratch/gjones39/ANO-RCC-VTZP/ozone_106.50/GMJ_RHS_E_P_3_.csv

>>> COPY /lustre/isaac/scratch/gjones39/ANO-RCC-VTZP/ozone_106.50/3189716/GMJ_IVECW_E_P_3_.csv /lustre/isaac/scratch/gjones39/ANO-RCC-VTZP/ozone_106.50/GMJ_IVECW_E_P_3_.csv

>>> COPY /lustre/isaac/scratch/gjones39/ANO-RCC-VTZP/ozone_106.50/3189716/GMJ_IVECX_E_P_3_.csv /lustre/isaac/scratch/gjones39/ANO-RCC-VTZP/ozone_106.50/GMJ_IVECX_E_P_3_.csv

>>> COPY /lustre/isaac/scratch/gjones39/ANO-RCC-VTZP/ozone_106.50/3189716/GMJ_IVECC2_E_P_3_.csv /lustre/isaac/scratch/gjones39/ANO-RCC-VTZP/ozone_106.50/GMJ_IVECC2_E_P_3_.csv

>>> COPY /lustre/isaac/scratch/gjones39/ANO-RCC-VTZP/ozone_106.50/3189716/GMJ_e2_E_P_3_.csv /lustre/isaac/scratch/gjones39/ANO-RCC-VTZP/ozone_106.50/GMJ_e2_E_P_3_.csv

>>> END FOREACH

>>> EXPORT j = M

>>> IF (-FILE GMJ_e2_${i}_${j}_${k}_.csv)

>>> COPY /lustre/isaac/scratch/gjones39/ANO-RCC-VTZP/ozone_106.50/3189716/GMJ_RHS_E_M_3_.csv /lustre/isaac/scratch/gjones39/ANO-RCC-VTZP/ozone_106.50/GMJ_RHS_E_M_3_.csv

>>> COPY /lustre/isaac/scratch/gjones39/ANO-RCC-VTZP/ozone_106.50/3189716/GMJ_IVECW_E_M_3_.csv /lustre/isaac/scratch/gjones39/ANO-RCC-VTZP/ozone_106.50/GMJ_IVECW_E_M_3_.csv

>>> COPY /lustre/isaac/scratch/gjones39/ANO-RCC-VTZP/ozone_106.50/3189716/GMJ_IVECX_E_M_3_.csv /lustre/isaac/scratch/gjones39/ANO-RCC-VTZP/ozone_106.50/GMJ_IVECX_E_M_3_.csv

>>> COPY /lustre/isaac/scratch/gjones39/ANO-RCC-VTZP/ozone_106.50/3189716/GMJ_IVECC2_E_M_3_.csv /lustre/isaac/scratch/gjones39/ANO-RCC-VTZP/ozone_106.50/GMJ_IVECC2_E_M_3_.csv

>>> COPY /lustre/isaac/scratch/gjones39/ANO-RCC-VTZP/ozone_106.50/3189716/GMJ_e2_E_M_3_.csv /lustre/isaac/scratch/gjones39/ANO-RCC-VTZP/ozone_106.50/GMJ_e2_E_M_3_.csv

>>> END FOREACH

>>> END FOREACH

>>> EXPORT i = F

>>> EXPORT j = P

>>> IF (-FILE GMJ_e2_${i}_${j}_${k}_.csv)

>>> COPY /lustre/isaac/scratch/gjones39/ANO-RCC-VTZP/ozone_106.50/3189716/GMJ_RHS_F_P_3_.csv /lustre/isaac/scratch/gjones39/ANO-RCC-VTZP/ozone_106.50/GMJ_RHS_F_P_3_.csv

>>> COPY /lustre/isaac/scratch/gjones39/ANO-RCC-VTZP/ozone_106.50/3189716/GMJ_IVECW_F_P_3_.csv /lustre/isaac/scratch/gjones39/ANO-RCC-VTZP/ozone_106.50/GMJ_IVECW_F_P_3_.csv

>>> COPY /lustre/isaac/scratch/gjones39/ANO-RCC-VTZP/ozone_106.50/3189716/GMJ_IVECX_F_P_3_.csv /lustre/isaac/scratch/gjones39/ANO-RCC-VTZP/ozone_106.50/GMJ_IVECX_F_P_3_.csv

>>> COPY /lustre/isaac/scratch/gjones39/ANO-RCC-VTZP/ozone_106.50/3189716/GMJ_IVECC2_F_P_3_.csv /lustre/isaac/scratch/gjones39/ANO-RCC-VTZP/ozone_106.50/GMJ_IVECC2_F_P_3_.csv

>>> COPY /lustre/isaac/scratch/gjones39/ANO-RCC-VTZP/ozone_106.50/3189716/GMJ_e2_F_P_3_.csv /lustre/isaac/scratch/gjones39/ANO-RCC-VTZP/ozone_106.50/GMJ_e2_F_P_3_.csv

>>> END FOREACH

>>> EXPORT j = M

>>> IF (-FILE GMJ_e2_${i}_${j}_${k}_.csv)

>>> COPY /lustre/isaac/scratch/gjones39/ANO-RCC-VTZP/ozone_106.50/3189716/GMJ_RHS_F_M_3_.csv /lustre/isaac/scratch/gjones39/ANO-RCC-VTZP/ozone_106.50/GMJ_RHS_F_M_3_.csv

>>> COPY /lustre/isaac/scratch/gjones39/ANO-RCC-VTZP/ozone_106.50/3189716/GMJ_IVECW_F_M_3_.csv /lustre/isaac/scratch/gjones39/ANO-RCC-VTZP/ozone_106.50/GMJ_IVECW_F_M_3_.csv

>>> COPY /lustre/isaac/scratch/gjones39/ANO-RCC-VTZP/ozone_106.50/3189716/GMJ_IVECX_F_M_3_.csv /lustre/isaac/scratch/gjones39/ANO-RCC-VTZP/ozone_106.50/GMJ_IVECX_F_M_3_.csv

>>> COPY /lustre/isaac/scratch/gjones39/ANO-RCC-VTZP/ozone_106.50/3189716/GMJ_IVECC2_F_M_3_.csv /lustre/isaac/scratch/gjones39/ANO-RCC-VTZP/ozone_106.50/GMJ_IVECC2_F_M_3_.csv

>>> COPY /lustre/isaac/scratch/gjones39/ANO-RCC-VTZP/ozone_106.50/3189716/GMJ_e2_F_M_3_.csv /lustre/isaac/scratch/gjones39/ANO-RCC-VTZP/ozone_106.50/GMJ_e2_F_M_3_.csv

>>> END FOREACH

>>> END FOREACH

>>> EXPORT i = G

>>> EXPORT j = P

>>> IF (-FILE GMJ_e2_${i}_${j}_${k}_.csv)

>>> COPY /lustre/isaac/scratch/gjones39/ANO-RCC-VTZP/ozone_106.50/3189716/GMJ_RHS_G_P_3_.csv /lustre/isaac/scratch/gjones39/ANO-RCC-VTZP/ozone_106.50/GMJ_RHS_G_P_3_.csv

>>> COPY /lustre/isaac/scratch/gjones39/ANO-RCC-VTZP/ozone_106.50/3189716/GMJ_IVECW_G_P_3_.csv /lustre/isaac/scratch/gjones39/ANO-RCC-VTZP/ozone_106.50/GMJ_IVECW_G_P_3_.csv

>>> COPY /lustre/isaac/scratch/gjones39/ANO-RCC-VTZP/ozone_106.50/3189716/GMJ_IVECX_G_P_3_.csv /lustre/isaac/scratch/gjones39/ANO-RCC-VTZP/ozone_106.50/GMJ_IVECX_G_P_3_.csv

>>> COPY /lustre/isaac/scratch/gjones39/ANO-RCC-VTZP/ozone_106.50/3189716/GMJ_IVECC2_G_P_3_.csv /lustre/isaac/scratch/gjones39/ANO-RCC-VTZP/ozone_106.50/GMJ_IVECC2_G_P_3_.csv

>>> COPY /lustre/isaac/scratch/gjones39/ANO-RCC-VTZP/ozone_106.50/3189716/GMJ_e2_G_P_3_.csv /lustre/isaac/scratch/gjones39/ANO-RCC-VTZP/ozone_106.50/GMJ_e2_G_P_3_.csv

>>> END FOREACH

>>> EXPORT j = M

>>> IF (-FILE GMJ_e2_${i}_${j}_${k}_.csv)

>>> COPY /lustre/isaac/scratch/gjones39/ANO-RCC-VTZP/ozone_106.50/3189716/GMJ_RHS_G_M_3_.csv /lustre/isaac/scratch/gjones39/ANO-RCC-VTZP/ozone_106.50/GMJ_RHS_G_M_3_.csv

>>> COPY /lustre/isaac/scratch/gjones39/ANO-RCC-VTZP/ozone_106.50/3189716/GMJ_IVECW_G_M_3_.csv /lustre/isaac/scratch/gjones39/ANO-RCC-VTZP/ozone_106.50/GMJ_IVECW_G_M_3_.csv

>>> COPY /lustre/isaac/scratch/gjones39/ANO-RCC-VTZP/ozone_106.50/3189716/GMJ_IVECX_G_M_3_.csv /lustre/isaac/scratch/gjones39/ANO-RCC-VTZP/ozone_106.50/GMJ_IVECX_G_M_3_.csv

>>> COPY /lustre/isaac/scratch/gjones39/ANO-RCC-VTZP/ozone_106.50/3189716/GMJ_IVECC2_G_M_3_.csv /lustre/isaac/scratch/gjones39/ANO-RCC-VTZP/ozone_106.50/GMJ_IVECC2_G_M_3_.csv

>>> COPY /lustre/isaac/scratch/gjones39/ANO-RCC-VTZP/ozone_106.50/3189716/GMJ_e2_G_M_3_.csv /lustre/isaac/scratch/gjones39/ANO-RCC-VTZP/ozone_106.50/GMJ_e2_G_M_3_.csv

>>> END FOREACH

>>> END FOREACH

>>> EXPORT i = H

>>> EXPORT j = P

>>> IF (-FILE GMJ_e2_${i}_${j}_${k}_.csv)

>>> COPY /lustre/isaac/scratch/gjones39/ANO-RCC-VTZP/ozone_106.50/3189716/GMJ_RHS_H_P_3_.csv /lustre/isaac/scratch/gjones39/ANO-RCC-VTZP/ozone_106.50/GMJ_RHS_H_P_3_.csv

>>> COPY /lustre/isaac/scratch/gjones39/ANO-RCC-VTZP/ozone_106.50/3189716/GMJ_IVECW_H_P_3_.csv /lustre/isaac/scratch/gjones39/ANO-RCC-VTZP/ozone_106.50/GMJ_IVECW_H_P_3_.csv

>>> COPY /lustre/isaac/scratch/gjones39/ANO-RCC-VTZP/ozone_106.50/3189716/GMJ_IVECX_H_P_3_.csv /lustre/isaac/scratch/gjones39/ANO-RCC-VTZP/ozone_106.50/GMJ_IVECX_H_P_3_.csv

>>> COPY /lustre/isaac/scratch/gjones39/ANO-RCC-VTZP/ozone_106.50/3189716/GMJ_IVECC2_H_P_3_.csv /lustre/isaac/scratch/gjones39/ANO-RCC-VTZP/ozone_106.50/GMJ_IVECC2_H_P_3_.csv

>>> COPY /lustre/isaac/scratch/gjones39/ANO-RCC-VTZP/ozone_106.50/3189716/GMJ_e2_H_P_3_.csv /lustre/isaac/scratch/gjones39/ANO-RCC-VTZP/ozone_106.50/GMJ_e2_H_P_3_.csv

>>> END FOREACH

>>> EXPORT j = M

>>> IF (-FILE GMJ_e2_${i}_${j}_${k}_.csv)

>>> COPY /lustre/isaac/scratch/gjones39/ANO-RCC-VTZP/ozone_106.50/3189716/GMJ_RHS_H_M_3_.csv /lustre/isaac/scratch/gjones39/ANO-RCC-VTZP/ozone_106.50/GMJ_RHS_H_M_3_.csv

>>> COPY /lustre/isaac/scratch/gjones39/ANO-RCC-VTZP/ozone_106.50/3189716/GMJ_IVECW_H_M_3_.csv /lustre/isaac/scratch/gjones39/ANO-RCC-VTZP/ozone_106.50/GMJ_IVECW_H_M_3_.csv

>>> COPY /lustre/isaac/scratch/gjones39/ANO-RCC-VTZP/ozone_106.50/3189716/GMJ_IVECX_H_M_3_.csv /lustre/isaac/scratch/gjones39/ANO-RCC-VTZP/ozone_106.50/GMJ_IVECX_H_M_3_.csv

>>> COPY /lustre/isaac/scratch/gjones39/ANO-RCC-VTZP/ozone_106.50/3189716/GMJ_IVECC2_H_M_3_.csv /lustre/isaac/scratch/gjones39/ANO-RCC-VTZP/ozone_106.50/GMJ_IVECC2_H_M_3_.csv

>>> COPY /lustre/isaac/scratch/gjones39/ANO-RCC-VTZP/ozone_106.50/3189716/GMJ_e2_H_M_3_.csv /lustre/isaac/scratch/gjones39/ANO-RCC-VTZP/ozone_106.50/GMJ_e2_H_M_3_.csv

>>> END FOREACH

>>> END FOREACH

>>> END FOREACH

>>> EXPORT j = 1

>>> EXPORT i = A

>>> IF (-FILE GMJ_e2_${i}_${j}_.csv)

>>> COPY /lustre/isaac/scratch/gjones39/ANO-RCC-VTZP/ozone_106.50/3189716/GMJ_RHS_A_1_.csv /lustre/isaac/scratch/gjones39/ANO-RCC-VTZP/ozone_106.50/GMJ_RHS_A_1_.csv

>>> COPY /lustre/isaac/scratch/gjones39/ANO-RCC-VTZP/ozone_106.50/3189716/GMJ_IVECW_A_1_.csv /lustre/isaac/scratch/gjones39/ANO-RCC-VTZP/ozone_106.50/GMJ_IVECW_A_1_.csv

>>> COPY /lustre/isaac/scratch/gjones39/ANO-RCC-VTZP/ozone_106.50/3189716/GMJ_IVECX_A_1_.csv /lustre/isaac/scratch/gjones39/ANO-RCC-VTZP/ozone_106.50/GMJ_IVECX_A_1_.csv

>>> COPY /lustre/isaac/scratch/gjones39/ANO-RCC-VTZP/ozone_106.50/3189716/GMJ_IVECC2_A_1_.csv /lustre/isaac/scratch/gjones39/ANO-RCC-VTZP/ozone_106.50/GMJ_IVECC2_A_1_.csv

>>> COPY /lustre/isaac/scratch/gjones39/ANO-RCC-VTZP/ozone_106.50/3189716/GMJ_e2_A_1_.csv /lustre/isaac/scratch/gjones39/ANO-RCC-VTZP/ozone_106.50/GMJ_e2_A_1_.csv

>>> END FOREACH

>>> EXPORT i = C

>>> IF (-FILE GMJ_e2_${i}_${j}_.csv)

>>> COPY /lustre/isaac/scratch/gjones39/ANO-RCC-VTZP/ozone_106.50/3189716/GMJ_RHS_C_1_.csv /lustre/isaac/scratch/gjones39/ANO-RCC-VTZP/ozone_106.50/GMJ_RHS_C_1_.csv

>>> COPY /lustre/isaac/scratch/gjones39/ANO-RCC-VTZP/ozone_106.50/3189716/GMJ_IVECW_C_1_.csv /lustre/isaac/scratch/gjones39/ANO-RCC-VTZP/ozone_106.50/GMJ_IVECW_C_1_.csv

>>> COPY /lustre/isaac/scratch/gjones39/ANO-RCC-VTZP/ozone_106.50/3189716/GMJ_IVECX_C_1_.csv /lustre/isaac/scratch/gjones39/ANO-RCC-VTZP/ozone_106.50/GMJ_IVECX_C_1_.csv

>>> COPY /lustre/isaac/scratch/gjones39/ANO-RCC-VTZP/ozone_106.50/3189716/GMJ_IVECC2_C_1_.csv /lustre/isaac/scratch/gjones39/ANO-RCC-VTZP/ozone_106.50/GMJ_IVECC2_C_1_.csv

>>> COPY /lustre/isaac/scratch/gjones39/ANO-RCC-VTZP/ozone_106.50/3189716/GMJ_e2_C_1_.csv /lustre/isaac/scratch/gjones39/ANO-RCC-VTZP/ozone_106.50/GMJ_e2_C_1_.csv

>>> END FOREACH

>>> EXPORT i = D

>>> IF (-FILE GMJ_e2_${i}_${j}_.csv)

>>> COPY /lustre/isaac/scratch/gjones39/ANO-RCC-VTZP/ozone_106.50/3189716/GMJ_RHS_D_1_.csv /lustre/isaac/scratch/gjones39/ANO-RCC-VTZP/ozone_106.50/GMJ_RHS_D_1_.csv

>>> COPY /lustre/isaac/scratch/gjones39/ANO-RCC-VTZP/ozone_106.50/3189716/GMJ_IVECW_D_1_.csv /lustre/isaac/scratch/gjones39/ANO-RCC-VTZP/ozone_106.50/GMJ_IVECW_D_1_.csv

>>> COPY /lustre/isaac/scratch/gjones39/ANO-RCC-VTZP/ozone_106.50/3189716/GMJ_IVECX_D_1_.csv /lustre/isaac/scratch/gjones39/ANO-RCC-VTZP/ozone_106.50/GMJ_IVECX_D_1_.csv

>>> COPY /lustre/isaac/scratch/gjones39/ANO-RCC-VTZP/ozone_106.50/3189716/GMJ_IVECC2_D_1_.csv /lustre/isaac/scratch/gjones39/ANO-RCC-VTZP/ozone_106.50/GMJ_IVECC2_D_1_.csv

>>> COPY /lustre/isaac/scratch/gjones39/ANO-RCC-VTZP/ozone_106.50/3189716/GMJ_e2_D_1_.csv /lustre/isaac/scratch/gjones39/ANO-RCC-VTZP/ozone_106.50/GMJ_e2_D_1_.csv

>>> END FOREACH

>>> END FOREACH

>>> EXPORT j = 2

>>> EXPORT i = A

>>> IF (-FILE GMJ_e2_${i}_${j}_.csv)

>>> COPY /lustre/isaac/scratch/gjones39/ANO-RCC-VTZP/ozone_106.50/3189716/GMJ_RHS_A_2_.csv /lustre/isaac/scratch/gjones39/ANO-RCC-VTZP/ozone_106.50/GMJ_RHS_A_2_.csv

>>> COPY /lustre/isaac/scratch/gjones39/ANO-RCC-VTZP/ozone_106.50/3189716/GMJ_IVECW_A_2_.csv /lustre/isaac/scratch/gjones39/ANO-RCC-VTZP/ozone_106.50/GMJ_IVECW_A_2_.csv

>>> COPY /lustre/isaac/scratch/gjones39/ANO-RCC-VTZP/ozone_106.50/3189716/GMJ_IVECX_A_2_.csv /lustre/isaac/scratch/gjones39/ANO-RCC-VTZP/ozone_106.50/GMJ_IVECX_A_2_.csv

>>> COPY /lustre/isaac/scratch/gjones39/ANO-RCC-VTZP/ozone_106.50/3189716/GMJ_IVECC2_A_2_.csv /lustre/isaac/scratch/gjones39/ANO-RCC-VTZP/ozone_106.50/GMJ_IVECC2_A_2_.csv

>>> COPY /lustre/isaac/scratch/gjones39/ANO-RCC-VTZP/ozone_106.50/3189716/GMJ_e2_A_2_.csv /lustre/isaac/scratch/gjones39/ANO-RCC-VTZP/ozone_106.50/GMJ_e2_A_2_.csv

>>> END FOREACH

>>> EXPORT i = C

>>> IF (-FILE GMJ_e2_${i}_${j}_.csv)

>>> COPY /lustre/isaac/scratch/gjones39/ANO-RCC-VTZP/ozone_106.50/3189716/GMJ_RHS_C_2_.csv /lustre/isaac/scratch/gjones39/ANO-RCC-VTZP/ozone_106.50/GMJ_RHS_C_2_.csv

>>> COPY /lustre/isaac/scratch/gjones39/ANO-RCC-VTZP/ozone_106.50/3189716/GMJ_IVECW_C_2_.csv /lustre/isaac/scratch/gjones39/ANO-RCC-VTZP/ozone_106.50/GMJ_IVECW_C_2_.csv

>>> COPY /lustre/isaac/scratch/gjones39/ANO-RCC-VTZP/ozone_106.50/3189716/GMJ_IVECX_C_2_.csv /lustre/isaac/scratch/gjones39/ANO-RCC-VTZP/ozone_106.50/GMJ_IVECX_C_2_.csv

>>> COPY /lustre/isaac/scratch/gjones39/ANO-RCC-VTZP/ozone_106.50/3189716/GMJ_IVECC2_C_2_.csv /lustre/isaac/scratch/gjones39/ANO-RCC-VTZP/ozone_106.50/GMJ_IVECC2_C_2_.csv

>>> COPY /lustre/isaac/scratch/gjones39/ANO-RCC-VTZP/ozone_106.50/3189716/GMJ_e2_C_2_.csv /lustre/isaac/scratch/gjones39/ANO-RCC-VTZP/ozone_106.50/GMJ_e2_C_2_.csv

>>> END FOREACH

>>> EXPORT i = D

>>> IF (-FILE GMJ_e2_${i}_${j}_.csv)

>>> COPY /lustre/isaac/scratch/gjones39/ANO-RCC-VTZP/ozone_106.50/3189716/GMJ_RHS_D_2_.csv /lustre/isaac/scratch/gjones39/ANO-RCC-VTZP/ozone_106.50/GMJ_RHS_D_2_.csv

>>> COPY /lustre/isaac/scratch/gjones39/ANO-RCC-VTZP/ozone_106.50/3189716/GMJ_IVECW_D_2_.csv /lustre/isaac/scratch/gjones39/ANO-RCC-VTZP/ozone_106.50/GMJ_IVECW_D_2_.csv

>>> COPY /lustre/isaac/scratch/gjones39/ANO-RCC-VTZP/ozone_106.50/3189716/GMJ_IVECX_D_2_.csv /lustre/isaac/scratch/gjones39/ANO-RCC-VTZP/ozone_106.50/GMJ_IVECX_D_2_.csv

>>> COPY /lustre/isaac/scratch/gjones39/ANO-RCC-VTZP/ozone_106.50/3189716/GMJ_IVECC2_D_2_.csv /lustre/isaac/scratch/gjones39/ANO-RCC-VTZP/ozone_106.50/GMJ_IVECC2_D_2_.csv

>>> COPY /lustre/isaac/scratch/gjones39/ANO-RCC-VTZP/ozone_106.50/3189716/GMJ_e2_D_2_.csv /lustre/isaac/scratch/gjones39/ANO-RCC-VTZP/ozone_106.50/GMJ_e2_D_2_.csv

>>> END FOREACH

>>> END FOREACH

>>> EXPORT j = 3

>>> EXPORT i = A

>>> IF (-FILE GMJ_e2_${i}_${j}_.csv)

>>> COPY /lustre/isaac/scratch/gjones39/ANO-RCC-VTZP/ozone_106.50/3189716/GMJ_RHS_A_3_.csv /lustre/isaac/scratch/gjones39/ANO-RCC-VTZP/ozone_106.50/GMJ_RHS_A_3_.csv

>>> COPY /lustre/isaac/scratch/gjones39/ANO-RCC-VTZP/ozone_106.50/3189716/GMJ_IVECW_A_3_.csv /lustre/isaac/scratch/gjones39/ANO-RCC-VTZP/ozone_106.50/GMJ_IVECW_A_3_.csv

>>> COPY /lustre/isaac/scratch/gjones39/ANO-RCC-VTZP/ozone_106.50/3189716/GMJ_IVECX_A_3_.csv /lustre/isaac/scratch/gjones39/ANO-RCC-VTZP/ozone_106.50/GMJ_IVECX_A_3_.csv

>>> COPY /lustre/isaac/scratch/gjones39/ANO-RCC-VTZP/ozone_106.50/3189716/GMJ_IVECC2_A_3_.csv /lustre/isaac/scratch/gjones39/ANO-RCC-VTZP/ozone_106.50/GMJ_IVECC2_A_3_.csv

>>> COPY /lustre/isaac/scratch/gjones39/ANO-RCC-VTZP/ozone_106.50/3189716/GMJ_e2_A_3_.csv /lustre/isaac/scratch/gjones39/ANO-RCC-VTZP/ozone_106.50/GMJ_e2_A_3_.csv

>>> END FOREACH

>>> EXPORT i = C

>>> IF (-FILE GMJ_e2_${i}_${j}_.csv)

>>> COPY /lustre/isaac/scratch/gjones39/ANO-RCC-VTZP/ozone_106.50/3189716/GMJ_RHS_C_3_.csv /lustre/isaac/scratch/gjones39/ANO-RCC-VTZP/ozone_106.50/GMJ_RHS_C_3_.csv

>>> COPY /lustre/isaac/scratch/gjones39/ANO-RCC-VTZP/ozone_106.50/3189716/GMJ_IVECW_C_3_.csv /lustre/isaac/scratch/gjones39/ANO-RCC-VTZP/ozone_106.50/GMJ_IVECW_C_3_.csv

>>> COPY /lustre/isaac/scratch/gjones39/ANO-RCC-VTZP/ozone_106.50/3189716/GMJ_IVECX_C_3_.csv /lustre/isaac/scratch/gjones39/ANO-RCC-VTZP/ozone_106.50/GMJ_IVECX_C_3_.csv

>>> COPY /lustre/isaac/scratch/gjones39/ANO-RCC-VTZP/ozone_106.50/3189716/GMJ_IVECC2_C_3_.csv /lustre/isaac/scratch/gjones39/ANO-RCC-VTZP/ozone_106.50/GMJ_IVECC2_C_3_.csv

>>> COPY /lustre/isaac/scratch/gjones39/ANO-RCC-VTZP/ozone_106.50/3189716/GMJ_e2_C_3_.csv /lustre/isaac/scratch/gjones39/ANO-RCC-VTZP/ozone_106.50/GMJ_e2_C_3_.csv

>>> END FOREACH

>>> EXPORT i = D

>>> IF (-FILE GMJ_e2_${i}_${j}_.csv)

>>> COPY /lustre/isaac/scratch/gjones39/ANO-RCC-VTZP/ozone_106.50/3189716/GMJ_RHS_D_3_.csv /lustre/isaac/scratch/gjones39/ANO-RCC-VTZP/ozone_106.50/GMJ_RHS_D_3_.csv

>>> COPY /lustre/isaac/scratch/gjones39/ANO-RCC-VTZP/ozone_106.50/3189716/GMJ_IVECW_D_3_.csv /lustre/isaac/scratch/gjones39/ANO-RCC-VTZP/ozone_106.50/GMJ_IVECW_D_3_.csv

>>> COPY /lustre/isaac/scratch/gjones39/ANO-RCC-VTZP/ozone_106.50/3189716/GMJ_IVECX_D_3_.csv /lustre/isaac/scratch/gjones39/ANO-RCC-VTZP/ozone_106.50/GMJ_IVECX_D_3_.csv

>>> COPY /lustre/isaac/scratch/gjones39/ANO-RCC-VTZP/ozone_106.50/3189716/GMJ_IVECC2_D_3_.csv /lustre/isaac/scratch/gjones39/ANO-RCC-VTZP/ozone_106.50/GMJ_IVECC2_D_3_.csv

>>> COPY /lustre/isaac/scratch/gjones39/ANO-RCC-VTZP/ozone_106.50/3189716/GMJ_e2_D_3_.csv /lustre/isaac/scratch/gjones39/ANO-RCC-VTZP/ozone_106.50/GMJ_e2_D_3_.csv

>>> END FOREACH

>>> END FOREACH

    Timing: Wall=120.28 User=42.70 System=20.06
*******************************************************************************************
*** WorkDir at /lustre/isaac/scratch/gjones39/ANO-RCC-VTZP/ozone_106.50/3189716 cleaned ***
*******************************************************************************************
