[Molden Format]
[N_Atoms]
                     2
[Atoms] (AU)
N1          1      7           0.00000000      0.00000000      0.00000000
N2          2      7           0.00000000      0.00000000      4.91328792
[Charge] (Mulliken)
 -2.272475541076346E-009
  2.272461330221631E-009
[GTO] (AU)
   1
   s  14
  7.476171500E+04  1.182599996E-04
  1.112365400E+04  5.172899983E-04
  2.512685700E+03  2.266659992E-03
  7.037772900E+02  9.145289970E-03
  2.254787900E+02  3.239342989E-02
  7.961581000E+01  9.770792967E-02
  3.023728300E+01  2.317036792E-01
  1.226362200E+01  3.768898887E-01
  5.265086000E+00  3.177420689E-01
  2.333471000E+00  8.211308973E-02
  9.018560000E-01  3.312089989E-03
  3.583360000E-01  3.720819988E-03
  1.410930000E-01  3.165419989E-03
  4.938300000E-02  4.595799985E-04
   s  14
  7.476171500E+04 -2.707000010E-05
  1.112365400E+04 -1.183700004E-04
  2.512685700E+03 -5.203800020E-04
  7.037772900E+02 -2.102930008E-03
  2.254787900E+02 -7.568200028E-03
  7.961581000E+01 -2.346767009E-02
  3.023728300E+01 -6.042901023E-02
  1.226362200E+01 -1.170549104E-01
  5.265086000E+00 -1.555321506E-01
  2.333471000E+00 -2.468935009E-02
  9.018560000E-01  3.625054514E-01
  3.583360000E-01  5.550845021E-01
  1.410930000E-01  2.148376908E-01
  4.938300000E-02  8.983850034E-03
   p   9
  1.266665700E+02  1.233630000E-03
  2.983738900E+01  9.493409996E-03
  9.394038000E+00  4.293961998E-02
  3.405104000E+00  1.362925399E-01
  1.350000000E+00  2.921362499E-01
  5.576960000E-01  3.887887598E-01
  2.324490000E-01  2.946801399E-01
  9.426400000E-02  8.012875997E-02
  3.299200000E-02  5.405199998E-04
 
   2
   s  14
  7.476171500E+04  1.182599996E-04
  1.112365400E+04  5.172899983E-04
  2.512685700E+03  2.266659992E-03
  7.037772900E+02  9.145289970E-03
  2.254787900E+02  3.239342989E-02
  7.961581000E+01  9.770792967E-02
  3.023728300E+01  2.317036792E-01
  1.226362200E+01  3.768898887E-01
  5.265086000E+00  3.177420689E-01
  2.333471000E+00  8.211308973E-02
  9.018560000E-01  3.312089989E-03
  3.583360000E-01  3.720819988E-03
  1.410930000E-01  3.165419989E-03
  4.938300000E-02  4.595799985E-04
   s  14
  7.476171500E+04 -2.707000010E-05
  1.112365400E+04 -1.183700004E-04
  2.512685700E+03 -5.203800020E-04
  7.037772900E+02 -2.102930008E-03
  2.254787900E+02 -7.568200028E-03
  7.961581000E+01 -2.346767009E-02
  3.023728300E+01 -6.042901023E-02
  1.226362200E+01 -1.170549104E-01
  5.265086000E+00 -1.555321506E-01
  2.333471000E+00 -2.468935009E-02
  9.018560000E-01  3.625054514E-01
  3.583360000E-01  5.550845021E-01
  1.410930000E-01  2.148376908E-01
  4.938300000E-02  8.983850034E-03
   p   9
  1.266665700E+02  1.233630000E-03
  2.983738900E+01  9.493409996E-03
  9.394038000E+00  4.293961998E-02
  3.405104000E+00  1.362925399E-01
  1.350000000E+00  2.921362499E-01
  5.576960000E-01  3.887887598E-01
  2.324490000E-01  2.946801399E-01
  9.426400000E-02  8.012875997E-02
  3.299200000E-02  5.405199998E-04
 
[MO]
Sym=     1a  
Ene=   -15.6040
Spin= Alpha
Occup=    1.00000
   1         0.70708147
   2        -0.00429419
   3        -0.00000000
   4         0.00000000
   5         0.00011720
   6         0.70707996
   7        -0.00429419
   8         0.00000000
   9        -0.00000000
  10        -0.00011720
Sym=     1a  
Ene=   -15.6040
Spin= Beta
Occup=    1.00000
   1         0.70708147
   2        -0.00429419
   3        -0.00000000
   4         0.00000000
   5         0.00011720
   6         0.70707996
   7        -0.00429419
   8         0.00000000
   9        -0.00000000
  10        -0.00011720
Sym=     2a  
Ene=   -15.6040
Spin= Alpha
Occup=    1.00000
   1        -0.70710897
   2         0.00401452
   3        -0.00000000
   4         0.00000000
   5        -0.00034896
   6         0.70711047
   7        -0.00401453
   8        -0.00000000
   9        -0.00000000
  10        -0.00034896
Sym=     2a  
Ene=   -15.6040
Spin= Beta
Occup=    1.00000
   1        -0.70710897
   2         0.00401452
   3        -0.00000000
   4         0.00000000
   5        -0.00034896
   6         0.70711047
   7        -0.00401453
   8        -0.00000000
   9        -0.00000000
  10        -0.00034896
Sym=     3a  
Ene=    -0.9625
Spin= Alpha
Occup=    1.00000
   1         0.00302691
   2         0.69195406
   3        -0.00000000
   4         0.00000000
   5         0.02353481
   6         0.00302691
   7         0.69195405
   8         0.00000000
   9        -0.00000000
  10        -0.02353481
Sym=     3a  
Ene=    -0.9625
Spin= Beta
Occup=    1.00000
   1         0.00302691
   2         0.69195406
   3        -0.00000000
   4         0.00000000
   5         0.02353481
   6         0.00302691
   7         0.69195405
   8         0.00000000
   9        -0.00000000
  10        -0.02353481
Sym=     4a  
Ene=    -0.9155
Spin= Alpha
Occup=    1.00000
   1        -0.00508018
   2        -0.71762565
   3         0.00000000
   4        -0.00000000
   5         0.03657582
   6         0.00508018
   7         0.71762565
   8        -0.00000000
   9        -0.00000000
  10         0.03657582
Sym=     4a  
Ene=    -0.9155
Spin= Beta
Occup=    1.00000
   1        -0.00508018
   2        -0.71762565
   3         0.00000000
   4        -0.00000000
   5         0.03657582
   6         0.00508018
   7         0.71762565
   8        -0.00000000
   9        -0.00000000
  10         0.03657582
Sym=     5a  
Ene=    -0.3147
Spin= Alpha
Occup=    1.00000
   1         0.00322230
   2         0.06820187
   3         0.00000000
   4         0.00000000
   5        -0.67827227
   6         0.00322230
   7         0.06820187
   8        -0.00000000
   9        -0.00000000
  10         0.67827227
Sym=     5a  
Ene=    -0.3147
Spin= Beta
Occup=    1.00000
   1         0.00322230
   2         0.06820187
   3         0.00000000
   4         0.00000000
   5        -0.67827227
   6         0.00322230
   7         0.06820187
   8        -0.00000000
   9        -0.00000000
  10         0.67827227
Sym=     6a  
Ene=    -0.2749
Spin= Alpha
Occup=    1.00000
   1        -0.00000000
   2        -0.00000000
   3         0.69104135
   4         0.10390541
   5        -0.00000000
   6         0.00000000
   7         0.00000000
   8         0.69104135
   9         0.10390541
  10        -0.00000000
Sym=     6a  
Ene=    -0.2749
Spin= Beta
Occup=    1.00000
   1        -0.00000000
   2        -0.00000000
   3         0.69104135
   4         0.10390541
   5        -0.00000000
   6         0.00000000
   7         0.00000000
   8         0.69104135
   9         0.10390541
  10        -0.00000000
Sym=     7a  
Ene=    -0.2749
Spin= Alpha
Occup=    1.00000
   1        -0.00000000
   2        -0.00000000
   3        -0.10390541
   4         0.69104135
   5        -0.00000000
   6         0.00000000
   7         0.00000000
   8        -0.10390541
   9         0.69104135
  10        -0.00000000
Sym=     7a  
Ene=    -0.2749
Spin= Beta
Occup=    1.00000
   1        -0.00000000
   2        -0.00000000
   3        -0.10390541
   4         0.69104135
   5        -0.00000000
   6         0.00000000
   7         0.00000000
   8        -0.10390541
   9         0.69104135
  10        -0.00000000
Sym=     8a  
Ene=    -0.0552
Spin= Alpha
Occup=    0.00000
   1         0.00000000
   2         0.00000000
   3        -0.71526067
   4        -0.02527186
   5        -0.00000000
   6         0.00000000
   7         0.00000000
   8         0.71526067
   9         0.02527186
  10         0.00000000
Sym=     8a  
Ene=    -0.0552
Spin= Beta
Occup=    0.00000
   1         0.00000000
   2         0.00000000
   3        -0.71526067
   4        -0.02527186
   5        -0.00000000
   6         0.00000000
   7         0.00000000
   8         0.71526067
   9         0.02527186
  10         0.00000000
Sym=     9a  
Ene=    -0.0552
Spin= Alpha
Occup=    0.00000
   1         0.00000000
   2         0.00000000
   3         0.02527186
   4        -0.71526067
   5        -0.00000000
   6         0.00000000
   7         0.00000000
   8        -0.02527186
   9         0.71526067
  10         0.00000000
Sym=     9a  
Ene=    -0.0552
Spin= Beta
Occup=    0.00000
   1         0.00000000
   2         0.00000000
   3         0.02527186
   4        -0.71526067
   5        -0.00000000
   6         0.00000000
   7         0.00000000
   8        -0.02527186
   9         0.71526067
  10         0.00000000
Sym=    10a  
Ene=     0.0018
Spin= Alpha
Occup=    0.00000
   1         0.00337870
   2         0.08766339
   3         0.00000000
   4         0.00000000
   5         0.74227567
   6        -0.00337870
   7        -0.08766339
   8         0.00000000
   9         0.00000000
  10         0.74227567
Sym=    10a  
Ene=     0.0018
Spin= Beta
Occup=    0.00000
   1         0.00337870
   2         0.08766339
   3         0.00000000
   4         0.00000000
   5         0.74227567
   6        -0.00337870
   7        -0.08766339
   8         0.00000000
   9         0.00000000
  10         0.74227567
