[Molden Format]
[N_Atoms]
                     2
[Atoms] (AU)
N1          1      7           0.00000000      0.00000000      0.00000000
N2          2      7           0.00000000      0.00000000      4.91328792
[Charge] (Mulliken)
  0.000000000000000E+000
  0.000000000000000E+000
[GTO] (AU)
   1
   s  14
  7.476171500E+04  1.182599996E-04
  1.112365400E+04  5.172899983E-04
  2.512685700E+03  2.266659992E-03
  7.037772900E+02  9.145289970E-03
  2.254787900E+02  3.239342989E-02
  7.961581000E+01  9.770792967E-02
  3.023728300E+01  2.317036792E-01
  1.226362200E+01  3.768898887E-01
  5.265086000E+00  3.177420689E-01
  2.333471000E+00  8.211308973E-02
  9.018560000E-01  3.312089989E-03
  3.583360000E-01  3.720819988E-03
  1.410930000E-01  3.165419989E-03
  4.938300000E-02  4.595799985E-04
   s  14
  7.476171500E+04 -2.707000010E-05
  1.112365400E+04 -1.183700004E-04
  2.512685700E+03 -5.203800020E-04
  7.037772900E+02 -2.102930008E-03
  2.254787900E+02 -7.568200028E-03
  7.961581000E+01 -2.346767009E-02
  3.023728300E+01 -6.042901023E-02
  1.226362200E+01 -1.170549104E-01
  5.265086000E+00 -1.555321506E-01
  2.333471000E+00 -2.468935009E-02
  9.018560000E-01  3.625054514E-01
  3.583360000E-01  5.550845021E-01
  1.410930000E-01  2.148376908E-01
  4.938300000E-02  8.983850034E-03
   p   9
  1.266665700E+02  1.233630000E-03
  2.983738900E+01  9.493409996E-03
  9.394038000E+00  4.293961998E-02
  3.405104000E+00  1.362925399E-01
  1.350000000E+00  2.921362499E-01
  5.576960000E-01  3.887887598E-01
  2.324490000E-01  2.946801399E-01
  9.426400000E-02  8.012875997E-02
  3.299200000E-02  5.405199998E-04
 
   2
   s  14
  7.476171500E+04  1.182599996E-04
  1.112365400E+04  5.172899983E-04
  2.512685700E+03  2.266659992E-03
  7.037772900E+02  9.145289970E-03
  2.254787900E+02  3.239342989E-02
  7.961581000E+01  9.770792967E-02
  3.023728300E+01  2.317036792E-01
  1.226362200E+01  3.768898887E-01
  5.265086000E+00  3.177420689E-01
  2.333471000E+00  8.211308973E-02
  9.018560000E-01  3.312089989E-03
  3.583360000E-01  3.720819988E-03
  1.410930000E-01  3.165419989E-03
  4.938300000E-02  4.595799985E-04
   s  14
  7.476171500E+04 -2.707000010E-05
  1.112365400E+04 -1.183700004E-04
  2.512685700E+03 -5.203800020E-04
  7.037772900E+02 -2.102930008E-03
  2.254787900E+02 -7.568200028E-03
  7.961581000E+01 -2.346767009E-02
  3.023728300E+01 -6.042901023E-02
  1.226362200E+01 -1.170549104E-01
  5.265086000E+00 -1.555321506E-01
  2.333471000E+00 -2.468935009E-02
  9.018560000E-01  3.625054514E-01
  3.583360000E-01  5.550845021E-01
  1.410930000E-01  2.148376908E-01
  4.938300000E-02  8.983850034E-03
   p   9
  1.266665700E+02  1.233630000E-03
  2.983738900E+01  9.493409996E-03
  9.394038000E+00  4.293961998E-02
  3.405104000E+00  1.362925399E-01
  1.350000000E+00  2.921362499E-01
  5.576960000E-01  3.887887598E-01
  2.324490000E-01  2.946801399E-01
  9.426400000E-02  8.012875997E-02
  3.299200000E-02  5.405199998E-04
 
[MO]
Sym=     1a  
Ene=   -15.6350
Spin= Alpha
Occup=    2.00000
   1         0.70708641
   2         0.00008147
   3         0.00000000
   4        -0.00000000
   5         0.00012187
   6         0.70708641
   7         0.00008147
   8        -0.00000000
   9         0.00000000
  10        -0.00012187
Sym=     2a  
Ene=   -15.6330
Spin= Alpha
Occup=    2.00000
   1        -0.70712574
   2         0.00008003
   3        -0.00000000
   4        -0.00000000
   5         0.00012065
   6         0.70712574
   7        -0.00008003
   8        -0.00000000
   9        -0.00000000
  10         0.00012065
Sym=     3a  
Ene=    -0.9884
Spin= Alpha
Occup=    2.00000
   1        -0.00164635
   2         0.68529191
   3        -0.00000000
   4         0.00000000
   5         0.07213059
   6        -0.00164635
   7         0.68529191
   8        -0.00000000
   9        -0.00000000
  10        -0.07213059
Sym=     4a  
Ene=    -0.9153
Spin= Alpha
Occup=    2.00000
   1        -0.00100990
   2        -0.71304286
   3        -0.00000000
   4        -0.00000000
   5         0.06946135
   6         0.00100990
   7         0.71304286
   8        -0.00000000
   9        -0.00000000
  10         0.06946135
Sym=     5a  
Ene=    -0.6153
Spin= Alpha
Occup=    2.00000
   1         0.00296206
   2         0.11766621
   3        -0.00000000
   4         0.00000000
   5        -0.67483652
   6         0.00296206
   7         0.11766621
   8         0.00000000
   9         0.00000000
  10         0.67483652
Sym=     6a  
Ene=    -0.5843
Spin= Alpha
Occup=    2.00000
   1        -0.00000000
   2        -0.00000000
   3         0.55753527
   4        -0.42129433
   5        -0.00000000
   6        -0.00000000
   7         0.00000000
   8         0.55753527
   9        -0.42129433
  10        -0.00000000
Sym=     7a  
Ene=    -0.5843
Spin= Alpha
Occup=    2.00000
   1        -0.00000000
   2        -0.00000000
   3         0.42129433
   4         0.55753527
   5        -0.00000000
   6         0.00000000
   7         0.00000000
   8         0.42129433
   9         0.55753527
  10        -0.00000000
Sym=     8a  
Ene=    -0.5571
Spin= Alpha
Occup=    0.00000
   1         0.00000000
   2         0.00000000
   3        -0.02178299
   4        -0.71537542
   5        -0.00000000
   6        -0.00000000
   7         0.00000000
   8         0.02178299
   9         0.71537542
  10        -0.00000000
Sym=     9a  
Ene=    -0.5571
Spin= Alpha
Occup=    0.00000
   1         0.00000000
   2        -0.00000000
   3        -0.71537542
   4         0.02178299
   5         0.00000000
   6         0.00000000
   7        -0.00000000
   8         0.71537542
   9        -0.02178299
  10        -0.00000000
Sym=    10a  
Ene=    -0.5131
Spin= Alpha
Occup=    0.00000
   1         0.00368191
   2         0.11940452
   3         0.00000000
   4         0.00000000
   5         0.73992310
   6        -0.00368191
   7        -0.11940452
   8         0.00000000
   9         0.00000000
  10         0.73992310
