[Molden Format]
[N_Atoms]
                     2
[Atoms] (AU)
N1          1      7           0.00000000      0.00000000      0.00000000
N2          2      7           0.00000000      0.00000000      4.91328792
[Charge] (Mulliken)
 -1.547553056651552E-003
  1.547553056628459E-003
[GTO] (AU)
   1
   s  14
  7.476171500E+04  1.182599996E-04
  1.112365400E+04  5.172899983E-04
  2.512685700E+03  2.266659992E-03
  7.037772900E+02  9.145289970E-03
  2.254787900E+02  3.239342989E-02
  7.961581000E+01  9.770792967E-02
  3.023728300E+01  2.317036792E-01
  1.226362200E+01  3.768898887E-01
  5.265086000E+00  3.177420689E-01
  2.333471000E+00  8.211308973E-02
  9.018560000E-01  3.312089989E-03
  3.583360000E-01  3.720819988E-03
  1.410930000E-01  3.165419989E-03
  4.938300000E-02  4.595799985E-04
   s  14
  7.476171500E+04 -2.707000010E-05
  1.112365400E+04 -1.183700004E-04
  2.512685700E+03 -5.203800020E-04
  7.037772900E+02 -2.102930008E-03
  2.254787900E+02 -7.568200028E-03
  7.961581000E+01 -2.346767009E-02
  3.023728300E+01 -6.042901023E-02
  1.226362200E+01 -1.170549104E-01
  5.265086000E+00 -1.555321506E-01
  2.333471000E+00 -2.468935009E-02
  9.018560000E-01  3.625054514E-01
  3.583360000E-01  5.550845021E-01
  1.410930000E-01  2.148376908E-01
  4.938300000E-02  8.983850034E-03
   p   9
  1.266665700E+02  1.233630000E-03
  2.983738900E+01  9.493409996E-03
  9.394038000E+00  4.293961998E-02
  3.405104000E+00  1.362925399E-01
  1.350000000E+00  2.921362499E-01
  5.576960000E-01  3.887887598E-01
  2.324490000E-01  2.946801399E-01
  9.426400000E-02  8.012875997E-02
  3.299200000E-02  5.405199998E-04
 
   2
   s  14
  7.476171500E+04  1.182599996E-04
  1.112365400E+04  5.172899983E-04
  2.512685700E+03  2.266659992E-03
  7.037772900E+02  9.145289970E-03
  2.254787900E+02  3.239342989E-02
  7.961581000E+01  9.770792967E-02
  3.023728300E+01  2.317036792E-01
  1.226362200E+01  3.768898887E-01
  5.265086000E+00  3.177420689E-01
  2.333471000E+00  8.211308973E-02
  9.018560000E-01  3.312089989E-03
  3.583360000E-01  3.720819988E-03
  1.410930000E-01  3.165419989E-03
  4.938300000E-02  4.595799985E-04
   s  14
  7.476171500E+04 -2.707000010E-05
  1.112365400E+04 -1.183700004E-04
  2.512685700E+03 -5.203800020E-04
  7.037772900E+02 -2.102930008E-03
  2.254787900E+02 -7.568200028E-03
  7.961581000E+01 -2.346767009E-02
  3.023728300E+01 -6.042901023E-02
  1.226362200E+01 -1.170549104E-01
  5.265086000E+00 -1.555321506E-01
  2.333471000E+00 -2.468935009E-02
  9.018560000E-01  3.625054514E-01
  3.583360000E-01  5.550845021E-01
  1.410930000E-01  2.148376908E-01
  4.938300000E-02  8.983850034E-03
   p   9
  1.266665700E+02  1.233630000E-03
  2.983738900E+01  9.493409996E-03
  9.394038000E+00  4.293961998E-02
  3.405104000E+00  1.362925399E-01
  1.350000000E+00  2.921362499E-01
  5.576960000E-01  3.887887598E-01
  2.324490000E-01  2.946801399E-01
  9.426400000E-02  8.012875997E-02
  3.299200000E-02  5.405199998E-04
 
[MO]
Sym=     1a  
Ene=   -15.5820
Spin= Alpha
Occup=    2.00000
   1         0.99957434
   2        -0.00578833
   3        -0.00000000
   4        -0.00000000
   5         0.00033942
   6         0.02859713
   7        -0.00076558
   8         0.00000000
   9         0.00000000
  10         0.00013744
Sym=     2a  
Ene=   -15.5810
Spin= Alpha
Occup=    2.00000
   1        -0.02862710
   2         0.00037649
   3         0.00000000
   4        -0.00000000
   5         0.00034341
   6         0.99939868
   7        -0.01946228
   8        -0.00000000
   9        -0.00000000
  10        -0.00147465
Sym=     3a  
Ene=    -0.9311
Spin= Alpha
Occup=    2.00000
   1        -0.00561656
   2        -0.99597441
   3        -0.00000000
   4        -0.00000000
   5         0.00225056
   6         0.00129634
   7        -0.00472564
   8         0.00000000
   9         0.00000000
  10         0.04298392
Sym=     4a  
Ene=    -0.4302
Spin= Alpha
Occup=    2.00000
   1        -0.00000000
   2        -0.00000000
   3        -0.00143309
   4         0.02197833
   5         0.00000000
   6         0.00000000
   7         0.00000000
   8        -0.06501658
   9         0.99711397
  10        -0.00000000
Sym=     5a  
Ene=    -0.4296
Spin= Alpha
Occup=    2.00000
   1        -0.00000000
   2        -0.00000000
   3         0.99716831
   4         0.06502012
   5         0.00000000
   6        -0.00000000
   7         0.00000000
   8         0.02077903
   9         0.00135489
  10        -0.00000000
Sym=     6a  
Ene=    -0.3145
Spin= Alpha
Occup=    2.00000
   1         0.00340071
   2         0.07753171
   3         0.00000000
   4         0.00000000
   5        -0.67869942
   6         0.00242953
   7        -0.05107532
   8         0.00000000
   9         0.00000000
  10         0.67186245
Sym=     7a  
Ene=    -0.9156
Spin= Alpha
Occup=    1.96656
   1        -0.00119521
   2        -0.03305741
   3        -0.00000000
   4         0.00000000
   5        -0.04199486
   6         0.01974363
   7         0.99813383
   8         0.00000000
   9        -0.00000000
  10         0.08741822
Sym=     8a  
Ene=    -0.0000
Spin= Alpha
Occup=    0.03344
   1        -0.00000000
   2        -0.00000000
   3        -0.04461248
   4        -0.00290895
   5        -0.00000000
   6         0.00000000
   7         0.00000000
   8         0.99794946
   9         0.06507105
  10        -0.00000000
Sym=     9a  
Ene=     0.0100
Spin= Alpha
Occup=    0.00000
   1         0.00334037
   2         0.08399572
   3        -0.00000000
   4         0.00000000
   5         0.74196799
   6        -0.00333994
   7        -0.08292394
   8         0.00000000
   9         0.00000000
  10         0.74298543
Sym=    10a  
Ene=     0.1153
Spin= Alpha
Occup=    0.00000
   1        -0.00000000
   2         0.00000000
   3         0.06506938
   4        -0.99792377
   5         0.00000000
   6        -0.00000000
   7         0.00000000
   8        -0.00298708
   9         0.04581083
  10         0.00000000
