[Molden Format]
[N_Atoms]
                     2
[Atoms] (AU)
N1          1      7           0.00000000      0.00000000      0.00000000
N2          2      7           0.00000000      0.00000000      4.91328792
[Charge] (Mulliken)
  0.999989403014290     
   1.00001059698570     
[GTO] (AU)
   1
   s  14
  7.476171500E+04  1.182599996E-04
  1.112365400E+04  5.172899983E-04
  2.512685700E+03  2.266659992E-03
  7.037772900E+02  9.145289970E-03
  2.254787900E+02  3.239342989E-02
  7.961581000E+01  9.770792967E-02
  3.023728300E+01  2.317036792E-01
  1.226362200E+01  3.768898887E-01
  5.265086000E+00  3.177420689E-01
  2.333471000E+00  8.211308973E-02
  9.018560000E-01  3.312089989E-03
  3.583360000E-01  3.720819988E-03
  1.410930000E-01  3.165419989E-03
  4.938300000E-02  4.595799985E-04
   s  14
  7.476171500E+04 -2.707000010E-05
  1.112365400E+04 -1.183700004E-04
  2.512685700E+03 -5.203800020E-04
  7.037772900E+02 -2.102930008E-03
  2.254787900E+02 -7.568200028E-03
  7.961581000E+01 -2.346767009E-02
  3.023728300E+01 -6.042901023E-02
  1.226362200E+01 -1.170549104E-01
  5.265086000E+00 -1.555321506E-01
  2.333471000E+00 -2.468935009E-02
  9.018560000E-01  3.625054514E-01
  3.583360000E-01  5.550845021E-01
  1.410930000E-01  2.148376908E-01
  4.938300000E-02  8.983850034E-03
   p   9
  1.266665700E+02  1.233630000E-03
  2.983738900E+01  9.493409996E-03
  9.394038000E+00  4.293961998E-02
  3.405104000E+00  1.362925399E-01
  1.350000000E+00  2.921362499E-01
  5.576960000E-01  3.887887598E-01
  2.324490000E-01  2.946801399E-01
  9.426400000E-02  8.012875997E-02
  3.299200000E-02  5.405199998E-04
 
   2
   s  14
  7.476171500E+04  1.182599996E-04
  1.112365400E+04  5.172899983E-04
  2.512685700E+03  2.266659992E-03
  7.037772900E+02  9.145289970E-03
  2.254787900E+02  3.239342989E-02
  7.961581000E+01  9.770792967E-02
  3.023728300E+01  2.317036792E-01
  1.226362200E+01  3.768898887E-01
  5.265086000E+00  3.177420689E-01
  2.333471000E+00  8.211308973E-02
  9.018560000E-01  3.312089989E-03
  3.583360000E-01  3.720819988E-03
  1.410930000E-01  3.165419989E-03
  4.938300000E-02  4.595799985E-04
   s  14
  7.476171500E+04 -2.707000010E-05
  1.112365400E+04 -1.183700004E-04
  2.512685700E+03 -5.203800020E-04
  7.037772900E+02 -2.102930008E-03
  2.254787900E+02 -7.568200028E-03
  7.961581000E+01 -2.346767009E-02
  3.023728300E+01 -6.042901023E-02
  1.226362200E+01 -1.170549104E-01
  5.265086000E+00 -1.555321506E-01
  2.333471000E+00 -2.468935009E-02
  9.018560000E-01  3.625054514E-01
  3.583360000E-01  5.550845021E-01
  1.410930000E-01  2.148376908E-01
  4.938300000E-02  8.983850034E-03
   p   9
  1.266665700E+02  1.233630000E-03
  2.983738900E+01  9.493409996E-03
  9.394038000E+00  4.293961998E-02
  3.405104000E+00  1.362925399E-01
  1.350000000E+00  2.921362499E-01
  5.576960000E-01  3.887887598E-01
  2.324490000E-01  2.946801399E-01
  9.426400000E-02  8.012875997E-02
  3.299200000E-02  5.405199998E-04
 
[MO]
Sym=     1a  
Ene=   -16.7160
Spin= Alpha
Occup=    2.00000
   1        -0.00134495
   2        -0.00015358
   3         0.00000000
   4        -0.00000000
   5        -0.00017638
   6         0.99997104
   7        -0.00761732
   8         0.00000000
   9        -0.00000000
  10         0.00008764
Sym=     2a  
Ene=   -16.7120
Spin= Alpha
Occup=    2.00000
   1        -0.99979164
   2         0.02037527
   3        -0.00000000
   4         0.00000000
   5         0.00059400
   6        -0.00133376
   7        -0.00020040
   8        -0.00000000
   9         0.00000000
  10        -0.00017839
Sym=     3a  
Ene=    -1.7336
Spin= Alpha
Occup=    2.00000
   1         0.00154509
   2         0.01230315
   3        -0.00000000
   4         0.00000000
   5        -0.00051512
   6        -0.00765040
   7        -0.99933395
   8        -0.00000000
   9         0.00000000
  10         0.04551076
Sym=     4a  
Ene=    -1.2536
Spin= Alpha
Occup=    2.00000
   1         0.00000000
   2         0.00000000
   3        -0.00274073
   4         0.00847071
   5        -0.00000000
   6         0.00000000
   7         0.00000000
   8        -0.30971846
   9         0.95056297
  10         0.00000002
Sym=     5a  
Ene=    -1.2521
Spin= Alpha
Occup=    2.00000
   1         0.00000000
   2         0.00000000
   3         0.95055607
   4         0.30972116
   5         0.00000000
   6        -0.00000000
   7        -0.00000000
   8         0.00863637
   9         0.00279454
  10        -0.00000000
Sym=     6a  
Ene=    -0.7266
Spin= Alpha
Occup=    0.03651
   1        -0.00000947
   2         0.03654505
   3         0.00000000
   4        -0.00000000
   5        -1.00345809
   6         0.00433170
   7         0.07026207
   8         0.00000000
   9        -0.00000000
  10        -0.02566887
Sym=     7a  
Ene=    -0.1918
Spin= Alpha
Occup=    1.96349
   1        -0.02044166
   2        -0.99978344
   3         0.00000000
   4        -0.00000000
   5        -0.04102734
   6         0.00169776
   7         0.03211358
   8         0.00000000
   9        -0.00000000
  10        -0.00035455
Sym=     8a  
Ene=    -0.7150
Spin= Alpha
Occup=    0.00000
   1         0.00432235
   2         0.06847557
   3         0.00000000
   4        -0.00000001
   5         0.06562187
   6        -0.00016446
   7         0.03825532
   8         0.00000001
   9        -0.00000002
  10         1.00508108
Sym=     9a  
Ene=    -0.7086
Spin= Alpha
Occup=    0.00000
   1         0.00000000
   2         0.00000000
   3         0.03133789
   4         0.01024117
   5         0.00000000
   6        -0.00000000
   7         0.00000000
   8        -0.95103475
   9        -0.30987335
  10         0.00000000
Sym=    10a  
Ene=    -0.7072
Spin= Alpha
Occup=    0.00000
   1        -0.00000000
   2        -0.00000000
   3         0.30987831
   4        -0.95103478
   5         0.00000000
   6        -0.00000000
   7        -0.00000000
   8        -0.01018720
   9         0.03117238
  10        -0.00000001
