****************************************************************************************************
*** WorkDir at /lustre/isaac/scratch/gjones39/scpfiles/ANO-RCC-VTZP/ozone_118.00/3252707 cleaned ***
****************************************************************************************************
   This run of MOLCAS is using the pymolcas driver

                             OPE
                             OPE          NMOL  CASOP  ENMOLC A   SO
                 OPE        NMOLC        AS  OP EN  MO LC     AS  OP
                OPENM       OL CA        SO  PE NM  OL CA     SOP EN
                OP EN      MO   LC       AS  OP ENMOL  CASO   PENMOL
                OP  EN     MO   LC       AS  OP EN     MO     LC ASO
               OP   E  NMOL  C  AS       OP  EN MO     LC     AS  OP
               OP  E   NMO   LC AS        OPEN  MO     LCASOP EN   M
               O  PEN   MO  LCA  SO
            OPE   NMO   L   CAS    OP
        OPENMOL  CASOP     ENMOL   CASOPE
     OPENMOLCA   SOPENMOLCASOPEN   MOLCASOPE
    OPENMOLCAS   OP           EN   MOL    CAS
    OPENMOLCAS       OP  ENM        O     LCA
    OPENMOLCAS    OPEN  MOLCASO     P  E  NMO
    OPENMOLCAS     OP               E  N  MOL
    OPENMOLCA   SO           PENM   O  L  CAS    OPEN    MO    LCAS
    OPENMOLCA   SOP           ENM   O  L  CAS   OP  EN  MOLC  AS   O
    OPENMOLCA   SOPE           NM      O  LCA   S      OP  EN MO
    OPENMOLC                AS         O  PEN   M      OL  CA  SOPE
    OPENMO        LCASOPE  NMOL        C  ASO   P      ENMOLC     AS
    OPE     NMO      LCA  SO     P     E   NM   OL  CA SO  PE N   MO
          OPENMOLCA            SOPE   NMO        LCAS  O    P  ENMO
     OPENMOLCASOPENMOLCASOPENMOLCASOPENMOLCA
        OPENMOLCASOPENMOLCASOPENMOLCASOPE
            OPENMOLCASOPENMOLCASOPENM
               OPENMOLCASOPENMOLCA        version: f37762c57-dirty
                   OPENMOLCASO
                       OPE                tag:

 OpenMolcas is free software; you can redistribute it and/or modify it
 under the terms of the GNU Lesser General Public License version 2.1.
 OpenMolcas is distributed in the hope that it will be useful, but it
 is provided "as is" and without any express or implied warranties.
 For more details see the full text of the license in the file
 LICENSE or in <http://www.gnu.org/licenses/>.

                 Copyright (C) The OpenMolcas Authors
           For the author list and the recommended citation,
                   consult the file CONTRIBUTORS.md

           *************************************************
           * pymolcas version py2.05                       *
           *   build c53fbf9a0f911de0c7c16766b0715e61      *
           *   (after the EMIL interpreter by V. Veryazov) *
           *************************************************

configuration info
------------------
C Compiler ID: GNU
C flags: -std=gnu99
Fortran Compiler ID: Intel
Fortran flags: -fpp -i8 -r8 -heap-arrays
Definitions: _MOLCAS_;_I8_;_LINUX_
Parallel: OFF (GA=OFF)


   ------------------------------------------------------------------------------------------------
  |
  |              Project: ozone_118.00
  |       Submitted from: /lustre/isaac/scratch/gjones39/scpfiles/ANO-RCC-VTZP/ozone_118.00
  |         Scratch area: /lustre/isaac/scratch/gjones39/scpfiles/ANO-RCC-VTZP/ozone_118.00/3252707
  |      Save outputs to: /lustre/isaac/scratch/gjones39/scpfiles/ANO-RCC-VTZP/ozone_118.00
  |               Molcas: /lustre/isaac/proj/UTK0022/Grier2025/Test/build
  |
  | Scratch area is empty
  |
  |       MOLCAS_DRIVER = /nfs/home/gjones39/bin/pymolcas
  | MOLCAS_KEEP_WORKDIR = NO
  |      MOLCAS_MAXITER = 100
  |  MOLCAS_NEW_WORKDIR = YES
  |       MOLCAS_NPROCS = 1
  |       MOLCAS_SOURCE = /lustre/isaac/proj/UTK0022/Grier2025/Test
  |    MOLCAS_STRUCTURE = 0
  |
   ------------------------------------------------------------------------------------------------

++ ---------   Input file   ---------

&GATEWAY
coord=ozone_118.00.xyz
Basis = ANO-RCC-VTZP
Group = nosymm
End of Input

&SEWARD
End of Input

&SCF
FileOrb
/lustre/isaac/scratch/gjones39/scpfiles/ANO-RCC-VTZP/ozone_117.75/ozone_117.75.ScfOrb

>>> COPY $WorkDir/ozone_118.00.scf.h5 $CurrDir/

&RASSCF
Title= RASSCF
ITERation
200 100
CIMX
200
SDAV
500
FileOrb
/lustre/isaac/scratch/gjones39/scpfiles/ANO-RCC-VTZP/ozone_117.75/ozone_117.75.RasOrb
CIROOT
3 3 1
NACTEL
12 0 0
Inactive
6
RAS2
9
Symmetry
1
Spin
1
orblisting
all

>>> COPY $WorkDir/ozone_118.00.rasscf.h5 $CurrDir/

>>> COPY $WorkDir/GMJ_Fock_MO.csv $CurrDir/ozone_118.00.GMJ_Fock_MO.csv

&MOTRA
Frozen=0
LUMORB

>>> COPY $WorkDir/GMJ_one_int_indx.csv $CurrDir/ozone_118.00.GMJ_one_int_indx.csv

>>> COPY $WorkDir/GMJ_one_int.csv $CurrDir/ozone_118.00.GMJ_one_int.csv

>>> COPY $WorkDir/GMJ_two_int_indx.csv $CurrDir/ozone_118.00.GMJ_two_int_indx.csv

>>> COPY $WorkDir/GMJ_two_int.csv $CurrDir/ozone_118.00.GMJ_two_int.csv

&CASPT2

Multistate
ALL

Frozen
0

MAXITER
50

>>> FOREACH k IN (1,2,3)

  >>> FOREACH i IN (B,E,F,G,H)

    >>> FOREACH j IN (P,M)

      >>> IF (-FILE GMJ_e2_${i}_${j}_${k}_.csv)

        >>> COPY $WorkDir/GMJ_RHS_${i}_${j}_${k}_.csv $CurrDir/GMJ_RHS_${i}_${j}_${k}_.csv

        >>> COPY $WorkDir/GMJ_IVECW_${i}_${j}_${k}_.csv $CurrDir/GMJ_IVECW_${i}_${j}_${k}_.csv

        >>> COPY $WorkDir/GMJ_IVECX_${i}_${j}_${k}_.csv $CurrDir/GMJ_IVECX_${i}_${j}_${k}_.csv

        >>> COPY $WorkDir/GMJ_IVECC2_${i}_${j}_${k}_.csv $CurrDir/GMJ_IVECC2_${i}_${j}_${k}_.csv

        >>> COPY $WorkDir/GMJ_e2_${i}_${j}_${k}_.csv $CurrDir/GMJ_e2_${i}_${j}_${k}_.csv

      >>> END IF

    >>> END FOREACH

  >>> END FOREACH

>>> END FOREACH

>>> FOREACH j IN (1,2,3)

  >>> FOREACH i IN (A,C,D)

    >>> IF (-FILE GMJ_e2_${i}_${j}_.csv)

      >>> COPY $WorkDir/GMJ_RHS_${i}_${j}_.csv $CurrDir/GMJ_RHS_${i}_${j}_.csv

      >>> COPY $WorkDir/GMJ_IVECW_${i}_${j}_.csv $CurrDir/GMJ_IVECW_${i}_${j}_.csv

      >>> COPY $WorkDir/GMJ_IVECX_${i}_${j}_.csv $CurrDir/GMJ_IVECX_${i}_${j}_.csv

      >>> COPY $WorkDir/GMJ_IVECC2_${i}_${j}_.csv $CurrDir/GMJ_IVECC2_${i}_${j}_.csv

      >>> COPY $WorkDir/GMJ_e2_${i}_${j}_.csv $CurrDir/GMJ_e2_${i}_${j}_.csv

    >>> END IF

  >>> END FOREACH

>>> END FOREACH

-- ----------------------------------

--- Start Module: gateway at Mon May 12 21:38:00 2025 ---
 
()()()()()()()()()()()()()()()()()()()()()()()()()()()()()()()()()()()()()()()()()()()()()()()()()()

                                              &GATEWAY

                                   only a single process is used
                       available to each process: 62 GB of memory, 1 thread?
()()()()()()()()()()()()()()()()()()()()()()()()()()()()()()()()()()()()()()()()()()()()()()()()()()
 
 
++    Symmetry information:
      ---------------------
 
                    Character Table for C1 
 
                             E  
                    a        1  x, y, xy, Rz, z, xz, Ry, yz, Rx, I
--
 
 
++    Basis set information:
      ----------------------
 
 
      Basis set label: O.ANO-RCC...4S3P2D1F.
 
      Electronic valence basis set:
      ------------------
      Associated Effective Charge   8.000000 au
      Associated Actual Charge      8.000000 au
      Nuclear Model: Point charge
 
      Shell  nPrim  nBasis  Cartesian Spherical Contaminant
         s      14       4        X                  
         p       9       3        X                  
         d       4       2                 X         
         f       3       1                 X         
--
 
 
++    Molecular structure info:
      -------------------------
 
                    ************************************************ 
                    **** Cartesian Coordinates / Bohr, Angstrom **** 
                    ************************************************ 
 
     Center  Label                x              y              z                     x              y              z
        1      O1               1.243854       2.070119       0.000000              0.658219       1.095460       0.000000
        2      O2               0.000000       0.000000       0.000000              0.000000       0.000000       0.000000
        3      O3               1.243854      -2.070119       0.000000              0.658219      -1.095460       0.000000
 
                    *************************************** 
                    *    InterNuclear Distances / Bohr    * 
                    *************************************** 
 
               1 O1            2 O2            3 O3    
    1 O1       0.000000
    2 O2       2.415071        0.000000
    3 O3       4.140239        2.415071        0.000000
 
                    ******************************************* 
                    *    InterNuclear Distances / Angstrom    * 
                    ******************************************* 
 
               1 O1            2 O2            3 O3    
    1 O1       0.000000
    2 O2       1.278000        0.000000
    3 O3       2.190920        1.278000        0.000000
 
                    ************************************** 
                    *    Valence Bond Angles / Degree    * 
                    ************************************** 
                          Atom centers                 Phi
                      1 O1       2 O2       3 O3       118.00
--
 
 
            Nuclear Potential Energy             68.45856609 au
 
--- Stop Module: gateway at Mon May 12 21:38:04 2025 /rc=_RC_ALL_IS_WELL_ ---
*** files: xmldump
    saved to directory /lustre/isaac/scratch/gjones39/scpfiles/ANO-RCC-VTZP/ozone_118.00
--- Module gateway spent 3 seconds ---

--- Start Module: seward at Mon May 12 21:38:04 2025 ---
 
()()()()()()()()()()()()()()()()()()()()()()()()()()()()()()()()()()()()()()()()()()()()()()()()()()

                                              &SEWARD

                                   only a single process is used
                       available to each process: 62 GB of memory, 1 thread?
()()()()()()()()()()()()()()()()()()()()()()()()()()()()()()()()()()()()()()()()()()()()()()()()()()
 
               SEWARD will generate:
                  Multipole Moment integrals up to order  2
                  Kinetic Energy integrals
                  Nuclear Attraction integrals (point charge)
                  One-Electron Hamiltonian integrals
                  Velocity integrals
                  Relativistic Douglas-Kroll-Hess integrals:
                    - Parametrization         : EXP
                    - DKH order of Hamiltonian: 2
                    - DKH order of Properties : 0
                         - multipole moment operators
                         - electric potential operators
                         - contact operators
                  Atomic mean-field integrals
                  Two-Electron Repulsion integrals
 
                   Integrals are discarded if absolute value <: 0.10E-13
                   Integral cutoff threshold is set to       <: 0.10E-15
 
            Nuclear Potential Energy             68.45856609 au
 
 
      Basis set specifications :
      Symmetry species         a  
      Basis functions           90
 
 
  Input file to MOLDEN was generated!
 
--- Stop Module: seward at Mon May 12 21:38:13 2025 /rc=_RC_ALL_IS_WELL_ ---
*** files: ozone_118.00.GssOrb ozone_118.00.guessorb.h5 ozone_118.00.guessorb.molden xmldump
    saved to directory /lustre/isaac/scratch/gjones39/scpfiles/ANO-RCC-VTZP/ozone_118.00
--- Module seward spent 9 seconds ---

*** symbolic link created: INPORB -> ozone_118.00.GssOrb
--- Start Module: scf at Mon May 12 21:38:13 2025 ---
 
()()()()()()()()()()()()()()()()()()()()()()()()()()()()()()()()()()()()()()()()()()()()()()()()()()

                                                &SCF

                                   only a single process is used
                       available to each process: 62 GB of memory, 1 thread?
()()()()()()()()()()()()()()()()()()()()()()()()()()()()()()()()()()()()()()()()()()()()()()()()()()
 
++    Input section:
      --------------
 
      Header of the integral files:
      
       Integrals generated by seward 4.2.0  , Mon May 12 21:38:04 2025
 
 
      Cartesian coordinates in Angstrom:
      -----------------------------------------------------
      No.  Label        X            Y            Z        
      -----------------------------------------------------
       1   O1         0.65821900   1.09546000   0.00000000
       2   O2         0.00000000   0.00000000   0.00000000
       3   O3         0.65821900  -1.09546000   0.00000000
      -----------------------------------------------------
      Nuclear repulsion energy =   68.45856609
--
 
++    Orbital specifications:
      -----------------------
 
      Symmetry species               1
                                     a
      Frozen orbitals                0
      Occupied orbitals             12
      Secondary orbitals            78
      Deleted orbitals               0
      Total number of orbitals      90
      Number of basis functions     90
--
 
      Molecular charge                           0.000
 
++    Optimization specifications:
      ----------------------------
 
      SCF Algorithm: Conventional
      Minimized density differences are used
      Number of density matrices in core                5
      Maximum number of NDDO SCF iterations           400
      Maximum number of HF SCF iterations             400
      Threshold for SCF energy change            0.10E-08
      Threshold for density matrix               0.10E-03
      Threshold for Fock matrix                  0.15E-03
      Threshold for linear dependence            0.10E-08
      Threshold at which DIIS is turned on       0.15E+00
      Threshold at which QNR/C2DIIS is turned on 0.75E-01
      Threshold for Norm(delta) (QNR/C2DIIS)     0.20E-04
      DIIS extrapolation of the SCF procedure
      All orbitals punched on: SCFORB
--
 
      Input vectors read from INPORB
      Orbital file label: * SCF orbitals
 
 
++ Convergence information
                                   SCF        iterations: Energy and convergence statistics
 
Iter     Tot. SCF        One-elec.       Two-elec.     Energy      Max Dij or  Max Fij      DNorm      TNorm      AccCon     Time
         Energy          Energy          Energy        Change      Delta Norm                                                in Sec.
   1  -224.513582531  -444.569065538   151.596916918   0.00E+00    0.96E-03*   0.49E-03*    0.75E+01   0.11E+03   None         0.
   2  -224.513587872  -444.568784103   151.596630141  -0.53E-05*   0.57E-03*   0.29E-03*    0.71E-02   0.11E+03   EDIIS        0.
   3  -224.513588962  -444.569478013   151.597322962  -0.11E-05*   0.51E-03*   0.28E-03*    0.13E-02   0.11E+03   c2DIIS       0.
   4  -224.513589263  -444.568438413   151.596283061  -0.30E-06*   0.38E-03*   0.17E-03*    0.14E-02   0.11E+03   QNRc2DIIS    0.
   5  -224.513589270  -444.569996088   151.597840729  -0.75E-08*   0.19E-03*   0.19E-03*    0.48E-03   0.11E+03   QNRc2DIIS    0.
   6  -224.513589448  -444.569222393   151.597066855  -0.18E-06*   0.79E-04*   0.18E-04     0.45E-04   0.11E+03   QNRc2DIIS    0.
   7  -224.513589454  -444.569199707   151.597044164  -0.56E-08*   0.36E-05    0.84E-06     0.13E-03   0.11E+03   QNRc2DIIS    0.
   8  -224.513589454  -444.569212186   151.597056642  -0.71E-11    0.15E-05    0.11E-05     0.96E-03   0.11E+03   QNRc2DIIS    0.
 
       Convergence after  8 Macro Iterations
--
 
 *****************************************************************************************************************************
 *                                                                                                                           *
 *                                             SCF/KS-DFT Program, Final results                                             *
 *                                                                                                                           *
 *                                                                                                                           *
 *                                                                                                                           *
 *                                                       Final Results                                                       *
 *                                                                                                                           *
 *****************************************************************************************************************************
 
::    Total SCF energy                               -224.5135894536
      One-electron energy                            -444.5692121855
      Two-electron energy                             151.5970566423
      Nuclear repulsion energy                         68.4585660896
      Kinetic energy (interpolated)                   225.0433309791
      Virial theorem                                    0.9976460465
      Total spin, S(S+1)                                0.0000000000
      Total spin, S                                     0.0000000000
      Max non-diagonal density matrix element           0.0000022560
      Max non-diagonal Fock matrix element              0.0000006024
 
 
      All orbitals with orbital energies smaller than  E(LUMO)+0.5 are printed
 
++    Molecular orbitals:
      -------------------
 
      Title: SCF orbitals

      Molecular orbitals for symmetry species 1: a  
 
          Orbital            1         2         3         4         5         6         7         8         9        10    
          Energy          -20.9345  -20.7268  -20.7268   -1.7479   -1.4334   -1.0971   -0.8316   -0.8005   -0.7797   -0.5675
          Occ. No.          2.0000    2.0000    2.0000    2.0000    2.0000    2.0000    2.0000    2.0000    2.0000    2.0000
 
        1 O1     1s         0.0022   -0.7447    0.6658   -0.0135    0.0118    0.0097   -0.0124   -0.0230   -0.0000    0.0062
        2 O1     2s         0.0036    0.0053   -0.0050    0.3349   -0.5729    0.5901   -0.2651   -0.4279   -0.0000    0.0491
        3 O1     3s         0.0021    0.0038   -0.0035   -0.0100    0.0191    0.0164   -0.0252   -0.0516   -0.0000    0.0172
        4 O1     4s         0.0004    0.0008   -0.0006   -0.0007    0.0041    0.0026   -0.0049   -0.0110   -0.0000    0.0041
        5 O1     2px       -0.0010   -0.0014    0.0012   -0.0536    0.0633    0.1053    0.1428   -0.3289   -0.0000   -0.5325
        6 O1     3px       -0.0006   -0.0015    0.0011    0.0122   -0.0088   -0.0175   -0.0060    0.0301    0.0000   -0.0130
        7 O1     4px        0.0001    0.0007   -0.0008    0.0025   -0.0001    0.0008   -0.0002    0.0021   -0.0000    0.0033
        8 O1     2py       -0.0021   -0.0021    0.0022   -0.1089    0.0667    0.0843   -0.3501   -0.2552   -0.0000    0.4985
        9 O1     3py       -0.0012   -0.0022    0.0021    0.0152   -0.0143   -0.0143    0.0351    0.0365    0.0000   -0.0027
       10 O1     4py        0.0005    0.0014   -0.0013    0.0009   -0.0036    0.0011    0.0036    0.0030   -0.0000   -0.0035
       11 O1     2pz        0.0000    0.0000    0.0000    0.0000    0.0000   -0.0000   -0.0000   -0.0000    0.3735    0.0000
       12 O1     3pz       -0.0000    0.0000    0.0000   -0.0000    0.0000   -0.0000   -0.0000    0.0000   -0.0187    0.0000
       13 O1     4pz        0.0000   -0.0000    0.0000   -0.0000    0.0000    0.0000   -0.0000    0.0000   -0.0068   -0.0000
       14 O1     3d2-       0.0004    0.0011   -0.0010    0.0169   -0.0150   -0.0120    0.0063    0.0283    0.0000   -0.0017
       15 O1     4d2-       0.0002    0.0006   -0.0005    0.0020   -0.0018   -0.0008    0.0009    0.0025    0.0000    0.0005
       16 O1     3d1-       0.0000   -0.0000   -0.0000   -0.0000   -0.0000    0.0000    0.0000    0.0000   -0.0270   -0.0000
       17 O1     4d1-       0.0000   -0.0000   -0.0000    0.0000    0.0000    0.0000    0.0000   -0.0000   -0.0039    0.0000
       18 O1     3d0       -0.0003   -0.0005    0.0005   -0.0104    0.0090    0.0036   -0.0093   -0.0147    0.0000    0.0042
       19 O1     4d0       -0.0002   -0.0005    0.0004   -0.0002    0.0010   -0.0001   -0.0005   -0.0010    0.0000    0.0002
       20 O1     3d1+       0.0000    0.0000    0.0000    0.0000    0.0000    0.0000   -0.0000    0.0000   -0.0171    0.0000
       21 O1     4d1+       0.0000   -0.0000   -0.0000   -0.0000   -0.0000   -0.0000   -0.0000   -0.0000   -0.0033   -0.0000
       22 O1     3d2+      -0.0005   -0.0006    0.0006   -0.0116    0.0048    0.0014   -0.0251   -0.0057   -0.0000    0.0180
       23 O1     4d2+      -0.0003   -0.0003    0.0003   -0.0013    0.0008    0.0005   -0.0020   -0.0001   -0.0000    0.0031
       24 O1     4f3-       0.0001   -0.0000    0.0000    0.0007    0.0012    0.0018    0.0061   -0.0028   -0.0000   -0.0052
       25 O1     4f2-      -0.0000    0.0000    0.0000   -0.0000    0.0000   -0.0000   -0.0000   -0.0000    0.0062   -0.0000
       26 O1     4f1-       0.0000    0.0002   -0.0001    0.0030   -0.0026   -0.0007    0.0022    0.0031   -0.0000   -0.0007
       27 O1     4f0        0.0000    0.0000   -0.0000   -0.0000   -0.0000    0.0000    0.0000    0.0000   -0.0038    0.0000
       28 O1     4f1+       0.0000    0.0001   -0.0001    0.0017   -0.0017   -0.0008    0.0007    0.0019    0.0000   -0.0013
       29 O1     4f2+       0.0000    0.0000    0.0000   -0.0000   -0.0000   -0.0000    0.0000    0.0000   -0.0035    0.0000
       30 O1     4f3+       0.0000    0.0002   -0.0002    0.0059   -0.0051   -0.0022    0.0040    0.0065    0.0000   -0.0025
       31 O2     1s         0.9990    0.0000   -0.0008   -0.0272   -0.0000   -0.0171   -0.0080    0.0000    0.0000   -0.0000
       32 O2     2s        -0.0071   -0.0006    0.0108    0.6177    0.0000   -0.6701   -0.0863   -0.0000    0.0000   -0.0000
       33 O2     3s        -0.0050   -0.0003    0.0062   -0.0674   -0.0000   -0.0145   -0.0135    0.0000    0.0000   -0.0000
       34 O2     4s        -0.0011   -0.0001    0.0010   -0.0119   -0.0000   -0.0038   -0.0040    0.0000    0.0000   -0.0000
       35 O2     2px       -0.0016   -0.0002    0.0037    0.1041   -0.0000    0.2446    0.6586   -0.0000   -0.0000    0.0000
       36 O2     3px       -0.0023   -0.0001    0.0023   -0.0389   -0.0000   -0.0336   -0.0683    0.0000    0.0000   -0.0000
       37 O2     4px        0.0017    0.0000   -0.0008   -0.0025   -0.0000    0.0010   -0.0091    0.0000    0.0000    0.0000
       38 O2     2py        0.0000   -0.0056   -0.0003    0.0000   -0.3300   -0.0000    0.0000    0.5617    0.0000   -0.1458
       39 O2     3py       -0.0000   -0.0035   -0.0002   -0.0000    0.0624    0.0000   -0.0000   -0.0569    0.0000   -0.0089
       40 O2     4py       -0.0000    0.0012    0.0001    0.0000   -0.0016    0.0000   -0.0000   -0.0092    0.0000   -0.0010
       41 O2     2pz        0.0000    0.0000   -0.0000   -0.0000   -0.0000   -0.0000    0.0000   -0.0000    0.6884   -0.0000
       42 O2     3pz        0.0000    0.0000    0.0000   -0.0000    0.0000    0.0000    0.0000   -0.0000   -0.0462   -0.0000
       43 O2     4pz       -0.0000    0.0000    0.0000   -0.0000   -0.0000   -0.0000    0.0000   -0.0000   -0.0160   -0.0000
       44 O2     3d2-       0.0000   -0.0015   -0.0001    0.0000   -0.0412   -0.0000    0.0000    0.0296    0.0000   -0.0409
       45 O2     4d2-       0.0000   -0.0007   -0.0000    0.0000   -0.0046   -0.0000    0.0000    0.0028    0.0000   -0.0073
       46 O2     3d1-       0.0000   -0.0000   -0.0000   -0.0000   -0.0000    0.0000   -0.0000   -0.0000    0.0000    0.0000
       47 O2     4d1-       0.0000   -0.0000   -0.0000   -0.0000    0.0000    0.0000    0.0000   -0.0000    0.0000    0.0000
       48 O2     3d0        0.0006    0.0001   -0.0010   -0.0153   -0.0000   -0.0069   -0.0148    0.0000   -0.0000   -0.0000
       49 O2     4d0        0.0006    0.0000   -0.0005    0.0008    0.0000   -0.0004   -0.0009    0.0000   -0.0000   -0.0000
       50 O2     3d1+       0.0000   -0.0000   -0.0000    0.0000    0.0000    0.0000    0.0000   -0.0000    0.0325    0.0000
       51 O2     4d1+       0.0000    0.0000    0.0000   -0.0000   -0.0000    0.0000    0.0000   -0.0000    0.0049    0.0000
       52 O2     3d2+       0.0003    0.0000   -0.0008   -0.0107   -0.0000    0.0006    0.0213   -0.0000    0.0000   -0.0000
       53 O2     4d2+       0.0001    0.0000   -0.0004   -0.0011    0.0000   -0.0004    0.0023   -0.0000    0.0000   -0.0000
       54 O2     4f3-      -0.0000   -0.0000   -0.0000   -0.0000    0.0004    0.0000   -0.0000   -0.0039   -0.0000   -0.0093
       55 O2     4f2-       0.0000   -0.0000   -0.0000    0.0000    0.0000   -0.0000   -0.0000   -0.0000    0.0000    0.0000
       56 O2     4f1-      -0.0000    0.0001    0.0000   -0.0000    0.0051    0.0000   -0.0000   -0.0042   -0.0000    0.0010
       57 O2     4f0       -0.0000    0.0000    0.0000   -0.0000   -0.0000   -0.0000   -0.0000    0.0000   -0.0063   -0.0000
       58 O2     4f1+       0.0001    0.0000   -0.0001   -0.0032   -0.0000   -0.0006   -0.0023    0.0000    0.0000    0.0000
       59 O2     4f2+      -0.0000   -0.0000   -0.0000   -0.0000   -0.0000   -0.0000   -0.0000    0.0000   -0.0051    0.0000
       60 O2     4f3+       0.0001    0.0000   -0.0002   -0.0094   -0.0000   -0.0009   -0.0038    0.0000    0.0000   -0.0000
       61 O3     1s         0.0022    0.6658    0.7447   -0.0135   -0.0118    0.0097   -0.0124    0.0230    0.0000   -0.0062
       62 O3     2s         0.0036   -0.0047   -0.0056    0.3349    0.5729    0.5901   -0.2651    0.4280    0.0000   -0.0491
       63 O3     3s         0.0021   -0.0034   -0.0039   -0.0100   -0.0191    0.0164   -0.0252    0.0516    0.0000   -0.0172
       64 O3     4s         0.0004   -0.0007   -0.0007   -0.0007   -0.0041    0.0026   -0.0049    0.0110    0.0000   -0.0041
       65 O3     2px       -0.0010    0.0013    0.0013   -0.0536   -0.0633    0.1053    0.1428    0.3289    0.0000    0.5324
       66 O3     3px       -0.0006    0.0013    0.0013    0.0122    0.0088   -0.0175   -0.0060   -0.0301   -0.0000    0.0130
       67 O3     4px        0.0001   -0.0006   -0.0008    0.0025    0.0001    0.0008   -0.0002   -0.0021   -0.0000   -0.0033
       68 O3     2py        0.0021   -0.0019   -0.0024    0.1089    0.0667   -0.0843    0.3501   -0.2552   -0.0000    0.4985
       69 O3     3py        0.0012   -0.0020   -0.0024   -0.0152   -0.0143    0.0143   -0.0351    0.0365    0.0000   -0.0027
       70 O3     4py       -0.0005    0.0012    0.0014   -0.0009   -0.0036   -0.0011   -0.0036    0.0030   -0.0000   -0.0035
       71 O3     2pz        0.0000   -0.0000    0.0000   -0.0000   -0.0000    0.0000    0.0000   -0.0000    0.3735   -0.0000
       72 O3     3pz        0.0000    0.0000    0.0000    0.0000   -0.0000    0.0000    0.0000    0.0000   -0.0187   -0.0000
       73 O3     4pz        0.0000   -0.0000    0.0000    0.0000   -0.0000    0.0000    0.0000    0.0000   -0.0068   -0.0000
       74 O3     3d2-      -0.0004    0.0010    0.0011   -0.0169   -0.0150    0.0120   -0.0063    0.0283    0.0000   -0.0017
       75 O3     4d2-      -0.0002    0.0005    0.0006   -0.0020   -0.0018    0.0008   -0.0009    0.0025   -0.0000    0.0005
       76 O3     3d1-       0.0000   -0.0000   -0.0000   -0.0000   -0.0000   -0.0000    0.0000   -0.0000    0.0270   -0.0000
       77 O3     4d1-       0.0000   -0.0000    0.0000   -0.0000   -0.0000   -0.0000    0.0000    0.0000    0.0039   -0.0000
       78 O3     3d0       -0.0003    0.0005    0.0005   -0.0104   -0.0090    0.0036   -0.0093    0.0147    0.0000   -0.0042
       79 O3     4d0       -0.0002    0.0004    0.0004   -0.0002   -0.0010   -0.0001   -0.0005    0.0010   -0.0000   -0.0002
       80 O3     3d1+      -0.0000    0.0000    0.0000   -0.0000   -0.0000   -0.0000    0.0000    0.0000   -0.0171   -0.0000
       81 O3     4d1+      -0.0000    0.0000    0.0000   -0.0000   -0.0000    0.0000    0.0000    0.0000   -0.0033   -0.0000
       82 O3     3d2+      -0.0005    0.0005    0.0006   -0.0116   -0.0048    0.0014   -0.0251    0.0057   -0.0000   -0.0180
       83 O3     4d2+      -0.0003    0.0003    0.0003   -0.0013   -0.0008    0.0005   -0.0020    0.0001   -0.0000   -0.0031
       84 O3     4f3-      -0.0001   -0.0000   -0.0000   -0.0007    0.0012   -0.0018   -0.0061   -0.0028   -0.0000   -0.0052
       85 O3     4f2-      -0.0000    0.0000    0.0000    0.0000   -0.0000    0.0000   -0.0000    0.0000   -0.0062   -0.0000
       86 O3     4f1-      -0.0000    0.0001    0.0001   -0.0030   -0.0026    0.0007   -0.0022    0.0031    0.0000   -0.0007
       87 O3     4f0       -0.0000   -0.0000    0.0000    0.0000    0.0000    0.0000   -0.0000    0.0000   -0.0038    0.0000
       88 O3     4f1+       0.0000   -0.0001   -0.0001    0.0017    0.0017   -0.0008    0.0007   -0.0019   -0.0000    0.0013
       89 O3     4f2+      -0.0000   -0.0000   -0.0000    0.0000    0.0000    0.0000   -0.0000    0.0000   -0.0035   -0.0000
       90 O3     4f3+       0.0000   -0.0002   -0.0002    0.0059    0.0051   -0.0022    0.0040   -0.0065   -0.0000    0.0025
 
          Orbital           11        12        13        14        15        16        17        18        19        20    
          Energy           -0.5527   -0.4892   -0.0491    0.1753    0.1785    0.2365    0.2790    0.3446    0.3818    0.3846
          Occ. No.          2.0000    2.0000    0.0000    0.0000    0.0000    0.0000    0.0000    0.0000    0.0000    0.0000
 
        1 O1     1s         0.0051    0.0000   -0.0000   -0.1913   -0.1408    0.0000   -0.0014   -0.0191    0.0758   -0.0000
        2 O1     2s         0.0334    0.0000   -0.0000   -1.4185   -1.0289    0.0000    0.0888   -0.0328    0.4136   -0.0000
        3 O1     3s         0.0170    0.0000   -0.0000   -0.8219   -0.5938    0.0000   -0.0850   -0.0384    0.5822   -0.0000
        4 O1     4s         0.0046    0.0000   -0.0000   -0.1856   -0.1259   -0.0000   -0.0320   -0.0034    0.1712   -0.0000
        5 O1     2px        0.6442    0.0000   -0.0000    0.4821    0.2559   -0.0000   -0.2313   -0.2625    0.1659   -0.0000
        6 O1     3px        0.0050   -0.0000    0.0000    0.4285    0.3496   -0.0000    0.1730   -0.7454    0.5658   -0.0000
        7 O1     4px       -0.0054   -0.0000   -0.0000    0.0392    0.0769   -0.0000    0.1170   -0.2947    0.2258   -0.0000
        8 O1     2py       -0.1240   -0.0000   -0.0000    0.5234    0.7804   -0.0000   -0.4516   -0.2958   -0.0678    0.0000
        9 O1     3py       -0.0147    0.0000    0.0000    0.6879    0.6534    0.0000   -0.4218   -0.1863   -0.4346    0.0000
       10 O1     4py       -0.0002    0.0000    0.0000    0.1150    0.0604    0.0000   -0.1546   -0.0376   -0.0789    0.0000
       11 O1     2pz        0.0000   -0.7074    0.6651   -0.0000    0.0000   -0.1629    0.0000   -0.0000   -0.0000   -0.1799
       12 O1     3pz       -0.0000   -0.0360    0.1632   -0.0000    0.0000    0.3048    0.0000   -0.0000   -0.0000   -0.9428
       13 O1     4pz       -0.0000    0.0065    0.0251    0.0000    0.0000    0.1854    0.0000   -0.0000   -0.0000   -0.3773
       14 O1     3d2-      -0.0136   -0.0000    0.0000   -0.0795   -0.0526    0.0000   -0.0035   -0.0024    0.0067   -0.0000
       15 O1     4d2-      -0.0014   -0.0000    0.0000   -0.0501   -0.0355   -0.0000    0.0033    0.0143   -0.0016    0.0000
       16 O1     3d1-      -0.0000    0.0218    0.0074   -0.0000   -0.0000    0.0167   -0.0000   -0.0000   -0.0000    0.0015
       17 O1     4d1-      -0.0000    0.0055   -0.0000   -0.0000    0.0000    0.0074   -0.0000    0.0000    0.0000    0.0097
       18 O1     3d0        0.0054   -0.0000    0.0000    0.0536    0.0450    0.0000    0.0142   -0.0047   -0.0217    0.0000
       19 O1     4d0        0.0003   -0.0000    0.0000    0.0351    0.0290    0.0000    0.0046   -0.0104   -0.0067    0.0000
       20 O1     3d1+      -0.0000    0.0133    0.0053   -0.0000   -0.0000    0.0047   -0.0000   -0.0000    0.0000    0.0159
       21 O1     4d1+      -0.0000    0.0032   -0.0001    0.0000   -0.0000   -0.0000   -0.0000    0.0000    0.0000    0.0139
       22 O1     3d2+      -0.0003   -0.0000    0.0000    0.0396    0.0510   -0.0000    0.0359   -0.0002   -0.0850    0.0000
       23 O1     4d2+      -0.0011   -0.0000    0.0000    0.0234    0.0350    0.0000    0.0115   -0.0009   -0.0505    0.0000
       24 O1     4f3-       0.0026    0.0000    0.0000   -0.0005   -0.0006    0.0000    0.0016   -0.0046    0.0122   -0.0000
       25 O1     4f2-      -0.0000   -0.0047    0.0002   -0.0000    0.0000    0.0022    0.0000   -0.0000   -0.0000   -0.0053
       26 O1     4f1-      -0.0015   -0.0000    0.0000   -0.0061   -0.0041   -0.0000    0.0004    0.0050    0.0031   -0.0000
       27 O1     4f0        0.0000    0.0015    0.0014   -0.0000   -0.0000   -0.0013   -0.0000    0.0000    0.0000    0.0061
       28 O1     4f1+       0.0001   -0.0000    0.0000   -0.0023   -0.0030   -0.0000   -0.0001    0.0051   -0.0004    0.0000
       29 O1     4f2+       0.0000    0.0025   -0.0005   -0.0000   -0.0000   -0.0003   -0.0000    0.0000    0.0000    0.0020
       30 O1     4f3+      -0.0029   -0.0000    0.0000   -0.0090   -0.0048   -0.0000    0.0037    0.0086    0.0033   -0.0000
       31 O2     1s         0.0199    0.0000   -0.0000    0.0000    0.3152   -0.0000   -0.0739    0.0000   -0.1097    0.0000
       32 O2     2s         0.2439    0.0000   -0.0000    0.0001    2.2849   -0.0000   -0.6341    0.0000   -0.6623    0.0000
       33 O2     3s         0.0477    0.0000   -0.0000    0.0001    1.2669   -0.0000   -0.1646    0.0000   -0.3933    0.0000
       34 O2     4s         0.0118    0.0000    0.0000    0.0000    0.2705   -0.0000   -0.0342    0.0000   -0.0449    0.0000
       35 O2     2px       -0.4821   -0.0000    0.0000    0.0000    0.8107   -0.0000   -0.3718    0.0000   -0.5064    0.0000
       36 O2     3px       -0.0018    0.0000   -0.0000    0.0000    0.8860   -0.0000    0.2176    0.0000   -1.3561    0.0000
       37 O2     4px       -0.0011   -0.0000   -0.0000    0.0000    0.1436   -0.0000    0.1368    0.0000   -0.3057    0.0000
       38 O2     2py       -0.0000   -0.0000    0.0000    1.3361   -0.0001   -0.0000    0.0000   -0.1550    0.0000    0.0000
       39 O2     3py       -0.0000   -0.0000    0.0000    1.2861   -0.0001   -0.0000    0.0000    0.4899    0.0000   -0.0000
       40 O2     4py       -0.0000   -0.0000    0.0000    0.1330   -0.0000   -0.0000    0.0000    0.2310    0.0000   -0.0000
       41 O2     2pz       -0.0000    0.0000   -0.8563    0.0000   -0.0000    0.0305   -0.0000    0.0000   -0.0000    0.0000
       42 O2     3pz       -0.0000   -0.0000   -0.1838   -0.0000    0.0000    0.4036   -0.0000    0.0000   -0.0000    0.0000
       43 O2     4pz       -0.0000   -0.0000   -0.0216   -0.0000    0.0000    0.2102    0.0000    0.0000   -0.0000    0.0000
       44 O2     3d2-      -0.0000   -0.0000    0.0000    0.1407   -0.0000    0.0000    0.0000    0.0863   -0.0000   -0.0000
       45 O2     4d2-      -0.0000   -0.0000    0.0000    0.0877   -0.0000   -0.0000    0.0000    0.0642    0.0000   -0.0000
       46 O2     3d1-       0.0000   -0.0577   -0.0000   -0.0000   -0.0000   -0.0000   -0.0000    0.0000    0.0000    0.0940
       47 O2     4d1-       0.0000   -0.0136   -0.0000   -0.0000   -0.0000   -0.0000   -0.0000    0.0000    0.0000    0.0565
       48 O2     3d0        0.0181    0.0000   -0.0000   -0.0000   -0.0820   -0.0000   -0.0540   -0.0000    0.1401   -0.0000
       49 O2     4d0        0.0021   -0.0000    0.0000   -0.0000   -0.0538   -0.0000   -0.0279   -0.0000    0.0807   -0.0000
       50 O2     3d1+       0.0000    0.0000    0.0070   -0.0000   -0.0000   -0.0278   -0.0000   -0.0000   -0.0000    0.0000
       51 O2     4d1+       0.0000    0.0000    0.0016   -0.0000   -0.0000   -0.0105   -0.0000   -0.0000   -0.0000    0.0000
       52 O2     3d2+       0.0403   -0.0000   -0.0000   -0.0000   -0.0452   -0.0000   -0.0725   -0.0000   -0.0101    0.0000
       53 O2     4d2+       0.0086   -0.0000   -0.0000   -0.0000   -0.0233    0.0000   -0.0296    0.0000   -0.0259    0.0000
       54 O2     4f3-      -0.0000   -0.0000    0.0000   -0.0048    0.0000    0.0000   -0.0000    0.0049    0.0000   -0.0000
       55 O2     4f2-       0.0000   -0.0086   -0.0000   -0.0000    0.0000   -0.0000   -0.0000    0.0000    0.0000    0.0078
       56 O2     4f1-       0.0000    0.0000    0.0000   -0.0079    0.0000    0.0000   -0.0000   -0.0124   -0.0000    0.0000
       57 O2     4f0       -0.0000   -0.0000   -0.0020    0.0000   -0.0000   -0.0028    0.0000   -0.0000    0.0000   -0.0000
       58 O2     4f1+      -0.0003    0.0000   -0.0000   -0.0000   -0.0071   -0.0000   -0.0059   -0.0000    0.0146   -0.0000
       59 O2     4f2+       0.0000   -0.0000    0.0009   -0.0000   -0.0000   -0.0015    0.0000   -0.0000   -0.0000   -0.0000
       60 O2     4f3+       0.0062    0.0000   -0.0000   -0.0000   -0.0120    0.0000   -0.0078   -0.0000    0.0167   -0.0000
       61 O3     1s         0.0051   -0.0000    0.0000    0.1913   -0.1408    0.0000   -0.0014    0.0191    0.0758   -0.0000
       62 O3     2s         0.0333   -0.0000    0.0000    1.4184   -1.0290    0.0000    0.0888    0.0328    0.4136   -0.0000
       63 O3     3s         0.0170   -0.0000    0.0000    0.8218   -0.5938   -0.0000   -0.0850    0.0384    0.5822   -0.0000
       64 O3     4s         0.0046   -0.0000    0.0000    0.1856   -0.1259   -0.0000   -0.0320    0.0034    0.1712   -0.0000
       65 O3     2px        0.6443    0.0000   -0.0000   -0.4821    0.2560    0.0000   -0.2313    0.2625    0.1659   -0.0000
       66 O3     3px        0.0050    0.0000   -0.0000   -0.4285    0.3497   -0.0000    0.1730    0.7453    0.5659   -0.0000
       67 O3     4px       -0.0054    0.0000   -0.0000   -0.0392    0.0769   -0.0000    0.1170    0.2947    0.2258   -0.0000
       68 O3     2py        0.1240    0.0000    0.0000    0.5233   -0.7804    0.0000    0.4516   -0.2958    0.0678   -0.0000
       69 O3     3py        0.0147   -0.0000    0.0000    0.6878   -0.6535    0.0000    0.4218   -0.1864    0.4346   -0.0000
       70 O3     4py        0.0002    0.0000    0.0000    0.1150   -0.0604   -0.0000    0.1546   -0.0376    0.0789   -0.0000
       71 O3     2pz       -0.0000    0.7074    0.6651   -0.0000   -0.0000   -0.1629   -0.0000    0.0000    0.0000    0.1799
       72 O3     3pz       -0.0000    0.0360    0.1632    0.0000    0.0000    0.3048   -0.0000    0.0000    0.0000    0.9428
       73 O3     4pz        0.0000   -0.0065    0.0251    0.0000    0.0000    0.1854   -0.0000    0.0000    0.0000    0.3773
       74 O3     3d2-       0.0136    0.0000   -0.0000   -0.0795    0.0526   -0.0000    0.0035   -0.0024   -0.0067    0.0000
       75 O3     4d2-       0.0014    0.0000   -0.0000   -0.0501    0.0355   -0.0000   -0.0033    0.0143    0.0016   -0.0000
       76 O3     3d1-      -0.0000    0.0218   -0.0074    0.0000   -0.0000   -0.0167   -0.0000    0.0000    0.0000    0.0015
       77 O3     4d1-      -0.0000    0.0055    0.0000    0.0000   -0.0000   -0.0074   -0.0000    0.0000    0.0000    0.0097
       78 O3     3d0        0.0054    0.0000   -0.0000   -0.0536    0.0450   -0.0000    0.0142    0.0047   -0.0217    0.0000
       79 O3     4d0        0.0003    0.0000   -0.0000   -0.0351    0.0290   -0.0000    0.0046    0.0104   -0.0067    0.0000
       80 O3     3d1+       0.0000   -0.0133    0.0053   -0.0000    0.0000    0.0047   -0.0000   -0.0000   -0.0000   -0.0159
       81 O3     4d1+      -0.0000   -0.0032   -0.0001    0.0000    0.0000   -0.0000    0.0000   -0.0000   -0.0000   -0.0139
       82 O3     3d2+      -0.0003    0.0000   -0.0000   -0.0396    0.0510   -0.0000    0.0359    0.0002   -0.0850    0.0000
       83 O3     4d2+      -0.0011    0.0000    0.0000   -0.0234    0.0350   -0.0000    0.0115    0.0009   -0.0505    0.0000
       84 O3     4f3-      -0.0026   -0.0000    0.0000   -0.0005    0.0006    0.0000   -0.0016   -0.0046   -0.0122    0.0000
       85 O3     4f2-       0.0000   -0.0047   -0.0002    0.0000   -0.0000   -0.0022    0.0000   -0.0000   -0.0000   -0.0053
       86 O3     4f1-       0.0015   -0.0000   -0.0000   -0.0061    0.0041   -0.0000   -0.0004    0.0050   -0.0031    0.0000
       87 O3     4f0        0.0000   -0.0015    0.0014    0.0000   -0.0000   -0.0013    0.0000   -0.0000   -0.0000   -0.0061
       88 O3     4f1+       0.0001   -0.0000   -0.0000    0.0023   -0.0030    0.0000   -0.0001   -0.0051   -0.0004    0.0000
       89 O3     4f2+       0.0000   -0.0025   -0.0005    0.0000   -0.0000   -0.0003   -0.0000   -0.0000   -0.0000   -0.0020
       90 O3     4f3+      -0.0029   -0.0000    0.0000    0.0090   -0.0048    0.0000    0.0037   -0.0086    0.0033   -0.0000
 
          Orbital           21        22    
          Energy            0.4182    0.4473
          Occ. No.          0.0000    0.0000
 
        1 O1     1s        -0.0193   -0.0026
        2 O1     2s        -0.0848   -0.0955
        3 O1     3s        -0.0390    0.1667
        4 O1     4s         0.0217    0.0524
        5 O1     2px        0.2414    0.3269
        6 O1     3px        0.5866   -0.1965
        7 O1     4px        0.1383   -0.0903
        8 O1     2py       -0.0756    0.1666
        9 O1     3py        0.7053   -0.4648
       10 O1     4py        0.2328   -0.1614
       11 O1     2pz        0.0000    0.0000
       12 O1     3pz       -0.0000    0.0000
       13 O1     4pz       -0.0000    0.0000
       14 O1     3d2-      -0.1335    0.0968
       15 O1     4d2-      -0.0887    0.0518
       16 O1     3d1-      -0.0000   -0.0000
       17 O1     4d1-      -0.0000   -0.0000
       18 O1     3d0        0.0415   -0.0738
       19 O1     4d0        0.0272   -0.0438
       20 O1     3d1+       0.0000   -0.0000
       21 O1     4d1+      -0.0000   -0.0000
       22 O1     3d2+       0.0500   -0.0142
       23 O1     4d2+       0.0270   -0.0149
       24 O1     4f3-       0.0023   -0.0023
       25 O1     4f2-       0.0000    0.0000
       26 O1     4f1-      -0.0083    0.0092
       27 O1     4f0       -0.0000   -0.0000
       28 O1     4f1+      -0.0062    0.0056
       29 O1     4f2+      -0.0000   -0.0000
       30 O1     4f3+      -0.0168    0.0084
       31 O2     1s         0.1699    0.0000
       32 O2     2s         0.8873    0.0000
       33 O2     3s         0.8984    0.0000
       34 O2     4s         0.2101    0.0000
       35 O2     2px       -0.4599   -0.0000
       36 O2     3px       -0.6170   -0.0000
       37 O2     4px       -0.2721   -0.0000
       38 O2     2py       -0.0000    0.7762
       39 O2     3py       -0.0000    0.1556
       40 O2     4py       -0.0000    0.0950
       41 O2     2pz       -0.0000   -0.0000
       42 O2     3pz       -0.0000   -0.0000
       43 O2     4pz       -0.0000   -0.0000
       44 O2     3d2-       0.0000   -0.1672
       45 O2     4d2-       0.0000   -0.0628
       46 O2     3d1-       0.0000   -0.0000
       47 O2     4d1-       0.0000   -0.0000
       48 O2     3d0       -0.1134   -0.0000
       49 O2     4d0       -0.0414   -0.0000
       50 O2     3d1+      -0.0000   -0.0000
       51 O2     4d1+      -0.0000   -0.0000
       52 O2     3d2+      -0.0901   -0.0000
       53 O2     4d2+      -0.0374   -0.0000
       54 O2     4f3-       0.0000   -0.0018
       55 O2     4f2-       0.0000   -0.0000
       56 O2     4f1-       0.0000   -0.0001
       57 O2     4f0        0.0000    0.0000
       58 O2     4f1+       0.0012   -0.0000
       59 O2     4f2+       0.0000    0.0000
       60 O2     4f3+      -0.0028   -0.0000
       61 O3     1s        -0.0193    0.0026
       62 O3     2s        -0.0848    0.0955
       63 O3     3s        -0.0390   -0.1667
       64 O3     4s         0.0217   -0.0524
       65 O3     2px        0.2415   -0.3269
       66 O3     3px        0.5866    0.1965
       67 O3     4px        0.1383    0.0904
       68 O3     2py        0.0756    0.1666
       69 O3     3py       -0.7053   -0.4648
       70 O3     4py       -0.2328   -0.1614
       71 O3     2pz        0.0000    0.0000
       72 O3     3pz        0.0000   -0.0000
       73 O3     4pz        0.0000   -0.0000
       74 O3     3d2-       0.1335    0.0968
       75 O3     4d2-       0.0887    0.0518
       76 O3     3d1-       0.0000    0.0000
       77 O3     4d1-       0.0000    0.0000
       78 O3     3d0        0.0415    0.0738
       79 O3     4d0        0.0272    0.0438
       80 O3     3d1+      -0.0000    0.0000
       81 O3     4d1+      -0.0000    0.0000
       82 O3     3d2+       0.0500    0.0142
       83 O3     4d2+       0.0270    0.0149
       84 O3     4f3-      -0.0023   -0.0023
       85 O3     4f2-      -0.0000    0.0000
       86 O3     4f1-       0.0083    0.0092
       87 O3     4f0       -0.0000    0.0000
       88 O3     4f1+      -0.0062   -0.0056
       89 O3     4f2+      -0.0000    0.0000
       90 O3     4f3+      -0.0168   -0.0084
--
 
 
++    Molecular charges:
      ------------------
 
      Mulliken charges per centre and basis function type
      ---------------------------------------------------
 
                O1      O2      O3    
      1s       1.9979  1.9980  1.9979
      2s       1.9438  1.7173  1.9438
      2px      1.7049  1.5221  1.7049
      2pz      1.3676  1.1828  1.3676
      2py      1.1265  1.0523  1.1265
      3s      -0.0010 -0.0224 -0.0010
      3px     -0.0112 -0.0137 -0.0112
      3pz     -0.0115 -0.0134 -0.0115
      3py      0.0040  0.0014  0.0040
      4s       0.0045  0.0023  0.0045
      3d2+     0.0109  0.0387  0.0109
      3d1+     0.0044  0.0093  0.0044
      3d0      0.0056  0.0075  0.0056
      3d1-     0.0108  0.0452  0.0108
      3d2-     0.0171  0.0417  0.0171
      4px      0.0008  0.0018  0.0008
      4pz      0.0012  0.0016  0.0012
      4py      0.0024  0.0030  0.0024
      4d2+     0.0002  0.0076  0.0002
      4d1+     0.0008  0.0013  0.0008
      4d0     -0.0001 -0.0001 -0.0001
      4d1-     0.0010  0.0116  0.0010
      4d2-     0.0006  0.0042  0.0006
      4f3+     0.0029  0.0032  0.0029
      4f2+     0.0005  0.0008  0.0005
      4f1+     0.0004  0.0006  0.0004
      4f0      0.0009  0.0016  0.0009
      4f1-     0.0009  0.0012  0.0009
      4f2-     0.0017  0.0043  0.0017
      4f3-     0.0020  0.0071  0.0020
      Total    8.1905  7.6190  8.1905
 
      N-E     -0.1905  0.3810 -0.1905
 
      Total electronic charge=   24.000000
 
      Total            charge=   -0.000000
--
 
 
  Input file to MOLDEN was generated!
 
 
++    Static properties:
      ------------------
 
 
      LoProp Charges per center
 

                   O1       O2       O3    
      Nuclear      8.0000   8.0000   8.0000
      Electronic  -8.2086  -7.5828  -8.2086
 
      Total       -0.2086   0.4172  -0.2086
--
 
 
++    Natural Bond Order analysis
      ---------------------------
      Based on LoProp computed density
      -------------------------------------------------------------------------------------
      Atom A       Atom B       Bond Order | Atom A       Atom B       Bond Order
        O1           O2             1.997  |   O2           O3             1.997
      -------------------------------------------------------------------------------------
      NBO located      9.999 core electrons.
      NBO located      5.936 lone pair electrons.
      NBO located      7.989 electrons involved in    2 bonds.
      The remaining    0.075 electrons are to be considered as diffuse
--
 
 
++    Molecular properties:
      ---------------------
 
      Charge (e):
                      =   -0.0000
      Dipole Moment (Debye):
      Origin of the operator (Ang)=    0.0000    0.0000    0.0000
                   X= -7.8029E-01               Y= -4.4183E-07               Z= -5.4768E-14           Total=  7.8029E-01
      Quadrupole Moment (Debye*Ang):
      Origin of the operator (Ang)=    0.4388    0.0000    0.0000
                  XX= -1.5781E+01              XY= -1.0775E-07              XZ= -6.1849E-14              YY= -1.7324E+01
                  YZ= -7.2164E-14              ZZ= -1.4902E+01
      In traceless form (Debye*Ang)
                  XX=  3.3196E-01              XY= -1.6162E-07              XZ= -9.2773E-14              YY= -1.9821E+00
                  YZ= -1.0825E-13              ZZ=  1.6501E+00
--
 
 
  Input file to MOLDEN was generated!
 
 ###############################################################################
 ###############################################################################
 ###                                                                         ###
 ###                                                                         ###
 ###    RunFile label nBas                                                   ###
 ###    was used       78 times                                              ###
 ###                                                                         ###
 ###                                                                         ###
 ###############################################################################
 ###############################################################################
--- Stop Module: scf at Mon May 12 21:38:15 2025 /rc=_RC_ALL_IS_WELL_ ---
*** files: ozone_118.00.LprOrb ozone_118.00.LoProp.molden ozone_118.00.scf.molden ozone_118.00.ScfOrb ozone_118.00.scf.h5 xmldump
    saved to directory /lustre/isaac/scratch/gjones39/scpfiles/ANO-RCC-VTZP/ozone_118.00
--- Module scf spent 2 seconds ---

>>> COPY /lustre/isaac/scratch/gjones39/scpfiles/ANO-RCC-VTZP/ozone_118.00/3252707/ozone_118.00.scf.h5 /lustre/isaac/scratch/gjones39/scpfiles/ANO-RCC-VTZP/ozone_118.00/

*** symbolic link created: INPORB -> ozone_118.00.ScfOrb
--- Start Module: rasscf at Mon May 12 21:38:15 2025 ---
 
()()()()()()()()()()()()()()()()()()()()()()()()()()()()()()()()()()()()()()()()()()()()()()()()()()

                                              &RASSCF

                                   only a single process is used
                       available to each process: 62 GB of memory, 1 thread?
()()()()()()()()()()()()()()()()()()()()()()()()()()()()()()()()()()()()()()()()()()()()()()()()()()
 
 
      Header of the ONEINT file:
      --------------------------
      
      Integrals generated by seward 4.2.0  , Mon May 12 21:38:04 2025
 
 
      OrdInt status: non-squared
 
 
      Cartesian coordinates in Angstrom:
      -----------------------------------------------------
      No.  Label        X            Y            Z        
      -----------------------------------------------------
       1   O1         0.65821900   1.09546000   0.00000000
       2   O2         0.00000000   0.00000000   0.00000000
       3   O3         0.65821900  -1.09546000   0.00000000
      -----------------------------------------------------
      Nuclear repulsion energy =   68.45856609
 
++    Wave function specifications:
      -----------------------------
 
      Number of closed shell electrons          12
      Number of electrons in active shells      12
      Max number of holes in RAS1 space          0
      Max nr of electrons in RAS3 space          0
      Number of inactive orbitals                6
      Number of active orbitals                  9
      Number of secondary orbitals              75
      Spin quantum number                      0.0
      State symmetry                             1
--
 
++    Orbital specifications:
      -----------------------
 
      Symmetry species                           1
                                                 a
      Frozen orbitals                            0
      Inactive orbitals                          6
      Active orbitals                            9
      RAS1 orbitals                              0
      RAS2 orbitals                              9
      RAS3 orbitals                              0
      Secondary orbitals                        75
      Deleted orbitals                           0
      Number of basis functions                 90
--
 
++    CI expansion specifications:
      ----------------------------
 
      Number of CSFs                          2520
      Number of determinants                  3570
      Number of root(s) required                 3
      Root chosen for geometry opt.              3
      CI roots used                              1     2     3
      weights                                0.333 0.333 0.333
      highest root included in the CI            3
      max. size of the explicit Hamiltonian    500
--
 
++    Optimization specifications:
      ----------------------------
 
      RASSCF algorithm: Conventional
      Maximum number of macro iterations       200
      Maximum number of SX iterations          100
      Threshold for RASSCF energy            0.100E-07
      Threshold for max MO rotation          0.100E+00
      Threshold for max BLB element          0.100E-03
      Level shift parameter                  0.500E+00
      Make Quasi-Newton update
--
 
      The MO-coefficients are taken from the file:
      /lustre/isaac/scratch/gjones39/scpfiles/ANO-RCC-VTZP/ozone_117.75/ozone_117.75.RasOrb                                           
      Title: RASSCF average (pseudo-natural) orbitals                                      
 
      Total molecular charge    0.00
 
      ************************************************************************************************************************
      *                                                                                                                      *
      *                                            Wave function control section                                             *
      *                                                                                                                      *
      ************************************************************************************************************************
 
 
                                         RASSCF iterations: Energy and convergence statistics
                                         ----------------------------------------------------
 
      Iter CI   SX   CI       RASSCF       Energy    max ROT     max BLB   max BLB  Level Ln srch  Step   QN   Walltime
          iter iter root      energy       change     param      element    value   shift minimum  type update hh:mm:ss
 Nr of preliminary CI iterations:   5
        1   1    6    0  -224.68064181    0.00E+00  -0.46E-03    8  79 1 -0.11E-02*  0.00   0.00    SX    NO    0:00:01
        2   2    6    0  -224.68065158   -0.98E-05* -0.14E-03    4  14 1  0.19E-03*  0.00   0.00    SX    NO    0:00:00
        3   1    5    0  -224.68065167   -0.98E-07* -0.74E-04    4  14 1  0.43E-04   0.00   0.00    SX    NO    0:00:00
        4   6    5    0  -224.68065427   -0.26E-05* -0.11E-03   12  29 1 -0.15E-03*  0.00   0.00    SX    NO    0:00:00
        5   3    5    0  -224.68065439   -0.12E-06* -0.78E-04    6  22 1  0.74E-04   0.00   1.22    QN   YES    0:00:00
        6   4    5    0  -224.68065442   -0.28E-07*  0.14E-04   12  29 1  0.18E-04   0.00   0.92    QN   YES    0:00:00
        7   1    5    0  -224.68065442   -0.26E-08   0.38E-04    6  22 1  0.31E-04   0.00   1.21    QN   YES    0:00:00
      Convergence after  7 iterations
 
  Dmat in MO in SXCTL bf call to SXHAM                                                                                    
  mat. size =     9x    9
 
        1.9620071336031943
       -0.0000000000000045      1.9516367557125320
       -0.0000000000000007      0.0000000000001961      1.9746905648470285
        0.0006345799851040     -0.0000000000001214      0.0000000000000164      1.6583137954387537
       -0.0000000000001681     -0.0005001222042456     -0.0000000000057616      0.0000000000000105      1.6571815748471470
       -0.0000000000003350      0.0000000000000123     -0.0000000000004070     -0.0000000000030768     -0.0000000000000130
        1.7898092209202936
        0.0000000000000061     -0.0000000000009821      0.0002756901827244      0.0000000000000104      0.0000000000034972
       -0.0000000000011440      0.9004551154217967
        0.0011000995132336     -0.0000000000002901      0.0000000000000050      0.0026984413657481     -0.0000000000002817
        0.0000000000001995      0.0000000000000093      0.0586168257215041
       -0.0000000000002418     -0.0000664580614898      0.0000000000002327     -0.0000000000011283     -0.0020294389968303
       -0.0000000000000288     -0.0000000000003505     -0.0000000000000357      0.0472890134877545
        8   1    5    0  -224.68065442   -0.71E-09   0.38E-04    1  14 1 -0.14E-04   0.00   1.21    QN   YES    0:00:00
 
      ************************************************************************************************************************
                                                      Wave function printout:
                       occupation of active orbitals, and spin coupling of open shells (u,d: Spin up or down)
      ************************************************************************************************************************
 
      Note: transformation to natural orbitals
      has been made, which may change the order of the CSFs.
 
      printout of CI-coefficients larger than  0.05 for root  1
      energy=    -224.737907
      conf/sym  111111111     Coeff  Weight
             1  222222000  -0.89824 0.80683
             4  222220200   0.32104 0.10306
            10  2222udud0   0.05289 0.00280
            12  2222uudd0   0.05196 0.00270
            72  222u2du0d  -0.05581 0.00312
            74  222u2ud0d  -0.05530 0.00306
           126  22u222d00  -0.06797 0.00462
           205  2u222dud0   0.06546 0.00429
           207  2u222udd0   0.05837 0.00341
           551  220222200   0.07106 0.00505
           611  2ud222u0d   0.06453 0.00416
           652  u2d222ud0  -0.06102 0.00372
           731  202222002   0.06371 0.00406
           764  ud22220ud  -0.07299 0.00533
           805  022222020   0.06519 0.00425
           992  2uu222d0d   0.06672 0.00445
          1031  u2u222dd0  -0.05517 0.00304
 
      printout of CI-coefficients larger than  0.05 for root  2
      energy=    -224.655284
      conf/sym  111111111     Coeff  Weight
             3  2222u2d00   0.86923 0.75556
            52  222u2d200  -0.41210 0.16982
           128  22u2d2200  -0.05201 0.00271
           277  u2222d200   0.05738 0.00329
           361  222022u0d   0.05727 0.00328
           654  u2d2u22d0   0.05396 0.00291
           733  2022u2d02  -0.06484 0.00420
           766  ud22u2dud   0.07631 0.00582
           807  0222u2d20  -0.06974 0.00486
           994  2uu2d220d  -0.05890 0.00347
          1033  u2u2d22d0   0.05269 0.00278
 
      printout of CI-coefficients larger than  0.05 for root  3
      energy=    -224.648772
      conf/sym  111111111     Coeff  Weight
             5  2222ud200   0.41926 0.17578
            51  222u22d00  -0.86780 0.75307
           202  2u222d200  -0.06591 0.00434
          1285  2udu2220d   0.05152 0.00265
          1381  202u22d02   0.06440 0.00415
          1406  ud2u22dud  -0.07649 0.00585
          1442  022u22d20   0.06881 0.00473
          1485  2uud2220d   0.05943 0.00353
          1521  u2ud222d0  -0.05262 0.00277
 
      Natural orbitals and occupation numbers for root  1
      sym 1:   1.955709   1.947594   1.962886   1.991710   1.991662   1.752773   0.284289   0.062376   0.051001
 
      Natural orbitals and occupation numbers for root  2
      sym 1:   1.959652   1.955346   1.983725   1.791685   1.193656   1.812622   1.201195   0.056345   0.045773
 
      Natural orbitals and occupation numbers for root  3
      sym 1:   1.964779   1.952350   1.984395   1.198339   1.786883   1.804032   1.208946   0.056219   0.044056
 
      ************************************************************************************************************************
      *                                                                                                                      *
      *                                                    Final results                                                     *
      *                                                                                                                      *
      ************************************************************************************************************************
 
 
++    Wave function specifications:
      -----------------------------
 
      Number of closed shell electrons          12
      Number of electrons in active shells      12
      Max number of holes in RAS1 space          0
      Max nr of electrons in RAS3 space          0
      Number of inactive orbitals                6
      Number of active orbitals                  9
      Number of secondary orbitals              75
      Spin quantum number                      0.0
      State symmetry                             1
--
 
++    Orbital specifications:
      -----------------------
 
      Symmetry species                           1
                                                 a
      Frozen orbitals                            0
      Inactive orbitals                          6
      Active orbitals                            9
      RAS1 orbitals                              0
      RAS2 orbitals                              9
      RAS3 orbitals                              0
      Secondary orbitals                        75
      Deleted orbitals                           0
      Number of basis functions                 90
--
 
++    CI expansion specifications:
      ----------------------------
 
      Number of CSFs                          2520
      Number of determinants                  3570
      Number of root(s) required                 3
      CI roots used                              1     2     3
      weights                                0.333 0.333 0.333
      highest root included in the CI            3
      Root passed to geometry opt.               3
--
 
++    Final optimization conditions:
      ------------------------------
 
      Average CI energy                            -224.68065442
      RASSCF energy for state  3                   -224.64877247
      Super-CI energy                                -0.00000000
      RASSCF energy change                            0.00000000
      Max change in MO coefficients              -0.281E-04
      Max non-diagonal density matrix element     0.380E-04
      Maximum BLB matrix element                 -0.140E-04
      (orbital pair   1,  14 in symmetry   1)
      Norm of electronic gradient            0.649E-01
--
 
 
      Final state energy(ies):
      ------------------------
 
::    RASSCF root number  1 Total energy:   -224.73790687
::    RASSCF root number  2 Total energy:   -224.65528393
::    RASSCF root number  3 Total energy:   -224.64877247
 
++    Molecular orbitals:
      -------------------
 
      Pseudonatural active orbitals and approximate occupation numbers
 
 
 
 
      Molecular orbitals for symmetry species 1: a  
 
 
      Orbital                1         2         3         4         5         6         7         8         9        10
      Energy          -20.7991  -20.6987  -20.6987   -1.5134   -1.2957   -1.0578    0.0000    0.0000    0.0000    0.0000
      Occ. No.          2.0000    2.0000    2.0000    2.0000    2.0000    2.0000    1.9620    1.9516    1.9747    1.6583
 
    1 O1     1s         0.0037   -0.7065    0.7064   -0.0059   -0.0002    0.0105   -0.0171   -0.0244    0.0000    0.0006
    2 O1     2s         0.0041    0.0044   -0.0048    0.4783   -0.7068    0.5423   -0.1041   -0.1090   -0.0000   -0.0389
    3 O1     3s         0.0023    0.0033   -0.0035    0.0033   -0.0076    0.0181   -0.0307   -0.0549    0.0000    0.0113
    4 O1     4s         0.0004    0.0006   -0.0006    0.0016   -0.0009    0.0019   -0.0053   -0.0112   -0.0000    0.0037
    5 O1     2px       -0.0010   -0.0011    0.0011   -0.0248   -0.0544    0.0851   -0.0183   -0.2736   -0.0000    0.6811
    6 O1     3px       -0.0008   -0.0013    0.0011    0.0129    0.0048   -0.0202    0.0026    0.0321   -0.0000    0.0021
    7 O1     4px        0.0001    0.0006   -0.0007    0.0017    0.0008    0.0005    0.0003    0.0012    0.0000   -0.0068
    8 O1     2py       -0.0024   -0.0016    0.0019    0.0588   -0.0830    0.0507   -0.3738   -0.3419    0.0000   -0.1394
    9 O1     3py       -0.0013   -0.0019    0.0021   -0.0022    0.0030   -0.0124    0.0424    0.0430    0.0000   -0.0098
   10 O1     4py        0.0006    0.0012   -0.0012   -0.0016   -0.0016    0.0025    0.0034    0.0037   -0.0000    0.0010
   11 O1     2pz       -0.0000   -0.0000   -0.0000   -0.0000   -0.0000   -0.0000   -0.0000    0.0000    0.3385    0.0000
   12 O1     3pz       -0.0000   -0.0000   -0.0000   -0.0000   -0.0000    0.0000    0.0000   -0.0000   -0.0264    0.0000
   13 O1     4pz        0.0000   -0.0000    0.0000   -0.0000   -0.0000   -0.0000    0.0000   -0.0000   -0.0048   -0.0000
   14 O1     3d2-       0.0005    0.0008   -0.0009    0.0098   -0.0015   -0.0115    0.0131    0.0295   -0.0000   -0.0124
   15 O1     4d2-       0.0002    0.0005   -0.0005    0.0011   -0.0005   -0.0008    0.0010    0.0024   -0.0000   -0.0012
   16 O1     3d1-       0.0000    0.0000    0.0000   -0.0000    0.0000   -0.0000   -0.0000   -0.0000   -0.0234   -0.0000
   17 O1     4d1-       0.0000    0.0000    0.0000    0.0000   -0.0000    0.0000    0.0000   -0.0000   -0.0028    0.0000
   18 O1     3d0       -0.0004   -0.0005    0.0005   -0.0045    0.0015    0.0040   -0.0137   -0.0169    0.0000    0.0027
   19 O1     4d0       -0.0002   -0.0004    0.0003   -0.0001    0.0007   -0.0000   -0.0005   -0.0012   -0.0000   -0.0005
   20 O1     3d1+       0.0000    0.0000   -0.0000   -0.0000    0.0000   -0.0000   -0.0000   -0.0000   -0.0133   -0.0000
   21 O1     4d1+       0.0000   -0.0000    0.0000    0.0000   -0.0000    0.0000   -0.0000    0.0000   -0.0018   -0.0000
   22 O1     3d2+      -0.0005   -0.0005    0.0005    0.0007    0.0012   -0.0014   -0.0268   -0.0088    0.0000   -0.0060
   23 O1     4d2+      -0.0003   -0.0003    0.0003   -0.0001    0.0005    0.0000   -0.0023   -0.0005    0.0000   -0.0017
   24 O1     4f3-       0.0001   -0.0000    0.0000   -0.0014    0.0001    0.0022    0.0048   -0.0021   -0.0000    0.0026
   25 O1     4f2-      -0.0000   -0.0000   -0.0000    0.0000    0.0000    0.0000   -0.0000    0.0000    0.0050    0.0000
   26 O1     4f1-       0.0001    0.0001   -0.0001    0.0016   -0.0011   -0.0005    0.0041    0.0042   -0.0000   -0.0007
   27 O1     4f0        0.0000    0.0000    0.0000    0.0000    0.0000    0.0000   -0.0000   -0.0000   -0.0043   -0.0000
   28 O1     4f1+       0.0000    0.0001   -0.0001    0.0014   -0.0007   -0.0010    0.0011    0.0029   -0.0000   -0.0012
   29 O1     4f2+      -0.0000    0.0000    0.0000    0.0000   -0.0000   -0.0000    0.0000   -0.0000   -0.0031   -0.0000
   30 O1     4f3+       0.0000    0.0002   -0.0002    0.0028   -0.0017   -0.0018    0.0056    0.0071   -0.0000   -0.0019
   31 O2     1s         0.9989   -0.0000   -0.0029   -0.0190   -0.0000   -0.0190   -0.0244   -0.0000   -0.0000    0.0233
   32 O2     2s        -0.0076    0.0000    0.0099    0.5463    0.0000   -0.7566    0.1712   -0.0000   -0.0000    0.2446
   33 O2     3s        -0.0057    0.0000    0.0056   -0.0366   -0.0000   -0.0334   -0.0579   -0.0000   -0.0000    0.0626
   34 O2     4s        -0.0010    0.0000    0.0009   -0.0067   -0.0000   -0.0063   -0.0116   -0.0000   -0.0000    0.0138
   35 O2     2px       -0.0020    0.0000    0.0037   -0.2064   -0.0000    0.3101    0.6500    0.0000   -0.0000   -0.3037
   36 O2     3px       -0.0025    0.0000    0.0021   -0.0138   -0.0000   -0.0281   -0.0639   -0.0000   -0.0000   -0.0205
   37 O2     4px        0.0019   -0.0000   -0.0007    0.0021    0.0000   -0.0006   -0.0089    0.0000    0.0000   -0.0029
   38 O2     2py        0.0000   -0.0052    0.0000    0.0000   -0.0349   -0.0000   -0.0000    0.6162   -0.0000   -0.0000
   39 O2     3py        0.0000   -0.0030    0.0000   -0.0000    0.0319    0.0000   -0.0000   -0.0766    0.0000   -0.0000
   40 O2     4py       -0.0000    0.0011   -0.0000    0.0000   -0.0053    0.0000    0.0000   -0.0043   -0.0000   -0.0000
   41 O2     2pz        0.0000    0.0000    0.0000   -0.0000   -0.0000    0.0000    0.0000    0.0000    0.7383    0.0000
   42 O2     3pz        0.0000    0.0000    0.0000    0.0000    0.0000    0.0000   -0.0000   -0.0000   -0.0494    0.0000
   43 O2     4pz       -0.0000    0.0000    0.0000    0.0000    0.0000   -0.0000    0.0000    0.0000   -0.0126   -0.0000
   44 O2     3d2-       0.0000   -0.0013    0.0000    0.0000   -0.0195   -0.0000   -0.0000    0.0468   -0.0000    0.0000
   45 O2     4d2-       0.0000   -0.0006    0.0000   -0.0000   -0.0018   -0.0000   -0.0000    0.0041   -0.0000    0.0000
   46 O2     3d1-       0.0000    0.0000    0.0000    0.0000    0.0000    0.0000   -0.0000   -0.0000    0.0000    0.0000
   47 O2     4d1-       0.0000    0.0000   -0.0000    0.0000    0.0000   -0.0000   -0.0000   -0.0000    0.0000   -0.0000
   48 O2     3d0        0.0010   -0.0000   -0.0010   -0.0055    0.0000   -0.0104   -0.0235    0.0000    0.0000    0.0162
   49 O2     4d0        0.0006   -0.0000   -0.0005    0.0009    0.0000   -0.0010   -0.0011    0.0000   -0.0000    0.0019
   50 O2     3d1+       0.0000    0.0000    0.0000   -0.0000    0.0000    0.0000    0.0000    0.0000    0.0289    0.0000
   51 O2     4d1+      -0.0000   -0.0000    0.0000   -0.0000    0.0000   -0.0000    0.0000   -0.0000    0.0033    0.0000
   52 O2     3d2+       0.0004   -0.0000   -0.0007   -0.0150   -0.0000    0.0047    0.0126    0.0000    0.0000    0.0395
   53 O2     4d2+       0.0002   -0.0000   -0.0003   -0.0015    0.0000    0.0008    0.0017    0.0000    0.0000    0.0070
   54 O2     4f3-      -0.0000   -0.0000    0.0000    0.0000   -0.0008   -0.0000   -0.0000   -0.0022   -0.0000    0.0000
   55 O2     4f2-       0.0000    0.0000    0.0000   -0.0000    0.0000    0.0000    0.0000   -0.0000    0.0000    0.0000
   56 O2     4f1-      -0.0000    0.0001   -0.0000   -0.0000    0.0032    0.0000    0.0000   -0.0079    0.0000   -0.0000
   57 O2     4f0       -0.0000    0.0000   -0.0000    0.0000    0.0000    0.0000   -0.0000   -0.0000   -0.0078    0.0000
   58 O2     4f1+       0.0002   -0.0000   -0.0001   -0.0016    0.0000   -0.0016   -0.0056    0.0000   -0.0000    0.0005
   59 O2     4f2+      -0.0000    0.0000    0.0000    0.0000   -0.0000    0.0000   -0.0000   -0.0000   -0.0042   -0.0000
   60 O2     4f3+       0.0002   -0.0000   -0.0002   -0.0056    0.0000   -0.0010   -0.0078    0.0000    0.0000    0.0061
   61 O3     1s         0.0037    0.7065    0.7064   -0.0059    0.0002    0.0105   -0.0171    0.0244    0.0000    0.0006
   62 O3     2s         0.0041   -0.0044   -0.0048    0.4783    0.7068    0.5423   -0.1041    0.1090    0.0000   -0.0389
   63 O3     3s         0.0023   -0.0033   -0.0035    0.0033    0.0076    0.0181   -0.0307    0.0549    0.0000    0.0113
   64 O3     4s         0.0004   -0.0006   -0.0006    0.0016    0.0009    0.0019   -0.0053    0.0112   -0.0000    0.0037
   65 O3     2px       -0.0010    0.0011    0.0011   -0.0248    0.0544    0.0851   -0.0183    0.2736    0.0000    0.6811
   66 O3     3px       -0.0008    0.0013    0.0011    0.0129   -0.0048   -0.0202    0.0026   -0.0321    0.0000    0.0021
   67 O3     4px        0.0001   -0.0006   -0.0007    0.0017   -0.0008    0.0005    0.0003   -0.0012    0.0000   -0.0068
   68 O3     2py        0.0024   -0.0016   -0.0019   -0.0588   -0.0830   -0.0507    0.3738   -0.3419    0.0000    0.1394
   69 O3     3py        0.0013   -0.0019   -0.0021    0.0022    0.0030    0.0124   -0.0424    0.0430    0.0000    0.0098
   70 O3     4py       -0.0006    0.0012    0.0012    0.0016   -0.0016   -0.0025   -0.0034    0.0037   -0.0000   -0.0010
   71 O3     2pz       -0.0000    0.0000   -0.0000    0.0000   -0.0000    0.0000    0.0000    0.0000    0.3385   -0.0000
   72 O3     3pz       -0.0000    0.0000   -0.0000   -0.0000    0.0000   -0.0000    0.0000   -0.0000   -0.0264    0.0000
   73 O3     4pz       -0.0000    0.0000    0.0000   -0.0000   -0.0000   -0.0000   -0.0000   -0.0000   -0.0048    0.0000
   74 O3     3d2-      -0.0005    0.0008    0.0009   -0.0098   -0.0015    0.0115   -0.0131    0.0295   -0.0000    0.0124
   75 O3     4d2-      -0.0002    0.0005    0.0005   -0.0011   -0.0005    0.0008   -0.0010    0.0024   -0.0000    0.0012
   76 O3     3d1-       0.0000    0.0000   -0.0000    0.0000    0.0000   -0.0000    0.0000    0.0000    0.0234   -0.0000
   77 O3     4d1-      -0.0000    0.0000    0.0000    0.0000    0.0000    0.0000    0.0000   -0.0000    0.0028   -0.0000
   78 O3     3d0       -0.0004    0.0005    0.0005   -0.0045   -0.0015    0.0040   -0.0137    0.0169   -0.0000    0.0027
   79 O3     4d0       -0.0002    0.0004    0.0003   -0.0001   -0.0007   -0.0000   -0.0005    0.0012   -0.0000   -0.0005
   80 O3     3d1+       0.0000   -0.0000   -0.0000    0.0000   -0.0000    0.0000   -0.0000    0.0000   -0.0133    0.0000
   81 O3     4d1+      -0.0000    0.0000    0.0000    0.0000   -0.0000    0.0000   -0.0000    0.0000   -0.0018    0.0000
   82 O3     3d2+      -0.0005    0.0005    0.0005    0.0007   -0.0012   -0.0014   -0.0268    0.0088   -0.0000   -0.0060
   83 O3     4d2+      -0.0003    0.0003    0.0003   -0.0001   -0.0005    0.0000   -0.0023    0.0005   -0.0000   -0.0017
   84 O3     4f3-      -0.0001   -0.0000   -0.0000    0.0014    0.0001   -0.0022   -0.0048   -0.0021   -0.0000   -0.0026
   85 O3     4f2-       0.0000   -0.0000    0.0000   -0.0000   -0.0000    0.0000   -0.0000   -0.0000   -0.0050    0.0000
   86 O3     4f1-      -0.0001    0.0001    0.0001   -0.0016   -0.0011    0.0005   -0.0041    0.0042   -0.0000    0.0007
   87 O3     4f0        0.0000    0.0000    0.0000   -0.0000    0.0000    0.0000   -0.0000   -0.0000   -0.0043    0.0000
   88 O3     4f1+       0.0000   -0.0001   -0.0001    0.0014    0.0007   -0.0010    0.0011   -0.0029   -0.0000   -0.0012
   89 O3     4f2+       0.0000   -0.0000   -0.0000   -0.0000   -0.0000    0.0000    0.0000    0.0000   -0.0031   -0.0000
   90 O3     4f3+       0.0000   -0.0002   -0.0002    0.0028    0.0017   -0.0018    0.0056   -0.0071    0.0000   -0.0019
 
 
      Orbital               11        12        13        14        15        16        17        18        19        20
      Energy            0.0000    0.0000    0.0000    0.0000    0.0000    0.1896    0.2031    0.2378    0.3260    0.3548
      Occ. No.          1.6572    1.7898    0.9005    0.0586    0.0473    0.0000    0.0000    0.0000    0.0000    0.0000
 
    1 O1     1s         0.0012    0.0000   -0.0000   -0.0307   -0.0413   -0.1906   -0.1417   -0.0000    0.0723   -0.0076
    2 O1     2s        -0.0282   -0.0000   -0.0000   -0.3581   -0.4246   -1.3817   -0.9812   -0.0000    0.5015    0.0173
    3 O1     3s         0.0054    0.0000   -0.0000   -0.0538   -0.0835   -0.8463   -0.6320   -0.0000    0.3392    0.0436
    4 O1     4s         0.0016   -0.0000    0.0000   -0.0056   -0.0126   -0.1925   -0.1364   -0.0000    0.0695    0.0168
    5 O1     2px       -0.5578    0.0000   -0.0000    0.2235    0.4257    0.3905    0.1760   -0.0000   -0.1975   -0.2057
    6 O1     3px       -0.0072    0.0000   -0.0000    0.0105   -0.0750    0.4328    0.4148    0.0000    0.1597   -0.8284
    7 O1     4px        0.0053   -0.0000    0.0000   -0.0065    0.0039    0.0415    0.1107   -0.0000    0.1480   -0.3230
    8 O1     2py        0.4760   -0.0000    0.0000    0.6537    0.5137    0.4342    0.5636   -0.0000   -0.4598   -0.2269
    9 O1     3py        0.0014   -0.0000    0.0000   -0.0805   -0.0101    0.7256    0.6070    0.0000   -0.9322   -0.2616
   10 O1     4py       -0.0046    0.0000   -0.0000   -0.0055   -0.0126    0.1316    0.0421    0.0000   -0.2568   -0.0573
   11 O1     2pz       -0.0000   -0.7107    0.6513   -0.0000    0.0000    0.0000    0.0000   -0.0674    0.0000    0.0000
   12 O1     3pz        0.0000   -0.0022    0.0100   -0.0000    0.0000   -0.0000    0.0000    0.3717    0.0000   -0.0000
   13 O1     4pz        0.0000    0.0086   -0.0044   -0.0000   -0.0000   -0.0000    0.0000    0.2014    0.0000   -0.0000
   14 O1     3d2-       0.0039   -0.0000    0.0000   -0.0204   -0.0079   -0.0971   -0.0677   -0.0000    0.0586    0.0248
   15 O1     4d2-       0.0013   -0.0000   -0.0000   -0.0066   -0.0057   -0.0581   -0.0432   -0.0000    0.0394    0.0281
   16 O1     3d1-       0.0000    0.0154    0.0039    0.0000    0.0000    0.0000   -0.0000    0.0115   -0.0000   -0.0000
   17 O1     4d1-       0.0000    0.0028    0.0006    0.0000   -0.0000    0.0000   -0.0000    0.0037   -0.0000   -0.0000
   18 O1     3d0        0.0024    0.0000    0.0000    0.0098    0.0118    0.0647    0.0566    0.0000   -0.0296   -0.0243
   19 O1     4d0        0.0002   -0.0000    0.0000    0.0020    0.0061    0.0406    0.0343    0.0000   -0.0188   -0.0212
   20 O1     3d1+       0.0000    0.0088    0.0031    0.0000    0.0000   -0.0000   -0.0000    0.0038   -0.0000    0.0000
   21 O1     4d1+      -0.0000    0.0013    0.0003    0.0000    0.0000    0.0000   -0.0000   -0.0007   -0.0000    0.0000
   22 O1     3d2+       0.0171   -0.0000    0.0000    0.0121    0.0219    0.0428    0.0718    0.0000   -0.0436   -0.0047
   23 O1     4d2+       0.0030   -0.0000    0.0000    0.0054    0.0080    0.0261    0.0433    0.0000   -0.0329   -0.0041
   24 O1     4f3-      -0.0042    0.0000   -0.0000    0.0001   -0.0036   -0.0002   -0.0006    0.0000    0.0074   -0.0059
   25 O1     4f2-      -0.0000   -0.0030   -0.0006   -0.0000   -0.0000   -0.0000    0.0000    0.0030   -0.0000   -0.0000
   26 O1     4f1-      -0.0013    0.0000   -0.0000   -0.0025   -0.0040   -0.0070   -0.0052   -0.0000    0.0059    0.0069
   27 O1     4f0        0.0000    0.0024    0.0017    0.0000    0.0000   -0.0000   -0.0000   -0.0016    0.0000   -0.0000
   28 O1     4f1+       0.0001    0.0000   -0.0000   -0.0019   -0.0012   -0.0029   -0.0036   -0.0000    0.0027    0.0063
   29 O1     4f2+       0.0000    0.0017   -0.0000    0.0000    0.0000   -0.0000   -0.0000   -0.0009    0.0000    0.0000
   30 O1     4f3+      -0.0012   -0.0000   -0.0000   -0.0035   -0.0039   -0.0100   -0.0057   -0.0000    0.0113    0.0105
   31 O2     1s         0.0000    0.0000    0.0000    0.0829   -0.0000   -0.0000    0.3009   -0.0000   -0.2267   -0.0000
   32 O2     2s         0.0000    0.0000    0.0000    0.8363   -0.0000   -0.0000    2.0953   -0.0000   -1.5197   -0.0000
   33 O2     3s         0.0000    0.0000    0.0000    0.0894    0.0000   -0.0000    1.3024   -0.0000   -0.9164   -0.0000
   34 O2     4s         0.0000    0.0000    0.0000    0.0293    0.0000   -0.0000    0.2796   -0.0000   -0.1869   -0.0000
   35 O2     2px       -0.0000   -0.0000    0.0000    0.6983   -0.0000   -0.0000    0.6020    0.0000   -0.5195    0.0000
   36 O2     3px       -0.0000   -0.0000    0.0000   -0.1412    0.0000   -0.0000    0.9355   -0.0000   -0.5086    0.0000
   37 O2     4px       -0.0000   -0.0000   -0.0000    0.0242   -0.0000   -0.0000    0.1707   -0.0000    0.0112    0.0000
   38 O2     2py       -0.0297   -0.0000   -0.0000    0.0000    1.0266    1.1502    0.0000   -0.0000    0.0000   -0.0454
   39 O2     3py       -0.0160   -0.0000   -0.0000   -0.0000   -0.1152    1.3251    0.0000    0.0000    0.0000    0.3616
   40 O2     4py       -0.0032    0.0000    0.0000    0.0000    0.0050    0.1424    0.0000    0.0000    0.0000    0.2185
   41 O2     2pz       -0.0000   -0.0000   -0.7314    0.0000   -0.0000    0.0000    0.0000   -0.0938   -0.0000   -0.0000
   42 O2     3pz        0.0000    0.0000   -0.0268   -0.0000   -0.0000    0.0000    0.0000    0.2872   -0.0000   -0.0000
[...]

>>> EXPORT i = B

>>> EXPORT j = P

>>> IF (-FILE GMJ_e2_${i}_${j}_${k}_.csv)

>>> COPY /lustre/isaac/scratch/gjones39/scpfiles/ANO-RCC-VTZP/ozone_118.00/3252707/GMJ_RHS_B_P_3_.csv /lustre/isaac/scratch/gjones39/scpfiles/ANO-RCC-VTZP/ozone_118.00/GMJ_RHS_B_P_3_.csv

>>> COPY /lustre/isaac/scratch/gjones39/scpfiles/ANO-RCC-VTZP/ozone_118.00/3252707/GMJ_IVECW_B_P_3_.csv /lustre/isaac/scratch/gjones39/scpfiles/ANO-RCC-VTZP/ozone_118.00/GMJ_IVECW_B_P_3_.csv

>>> COPY /lustre/isaac/scratch/gjones39/scpfiles/ANO-RCC-VTZP/ozone_118.00/3252707/GMJ_IVECX_B_P_3_.csv /lustre/isaac/scratch/gjones39/scpfiles/ANO-RCC-VTZP/ozone_118.00/GMJ_IVECX_B_P_3_.csv

>>> COPY /lustre/isaac/scratch/gjones39/scpfiles/ANO-RCC-VTZP/ozone_118.00/3252707/GMJ_IVECC2_B_P_3_.csv /lustre/isaac/scratch/gjones39/scpfiles/ANO-RCC-VTZP/ozone_118.00/GMJ_IVECC2_B_P_3_.csv

>>> COPY /lustre/isaac/scratch/gjones39/scpfiles/ANO-RCC-VTZP/ozone_118.00/3252707/GMJ_e2_B_P_3_.csv /lustre/isaac/scratch/gjones39/scpfiles/ANO-RCC-VTZP/ozone_118.00/GMJ_e2_B_P_3_.csv

>>> END FOREACH

>>> EXPORT j = M

>>> IF (-FILE GMJ_e2_${i}_${j}_${k}_.csv)

>>> COPY /lustre/isaac/scratch/gjones39/scpfiles/ANO-RCC-VTZP/ozone_118.00/3252707/GMJ_RHS_B_M_3_.csv /lustre/isaac/scratch/gjones39/scpfiles/ANO-RCC-VTZP/ozone_118.00/GMJ_RHS_B_M_3_.csv

>>> COPY /lustre/isaac/scratch/gjones39/scpfiles/ANO-RCC-VTZP/ozone_118.00/3252707/GMJ_IVECW_B_M_3_.csv /lustre/isaac/scratch/gjones39/scpfiles/ANO-RCC-VTZP/ozone_118.00/GMJ_IVECW_B_M_3_.csv

>>> COPY /lustre/isaac/scratch/gjones39/scpfiles/ANO-RCC-VTZP/ozone_118.00/3252707/GMJ_IVECX_B_M_3_.csv /lustre/isaac/scratch/gjones39/scpfiles/ANO-RCC-VTZP/ozone_118.00/GMJ_IVECX_B_M_3_.csv

>>> COPY /lustre/isaac/scratch/gjones39/scpfiles/ANO-RCC-VTZP/ozone_118.00/3252707/GMJ_IVECC2_B_M_3_.csv /lustre/isaac/scratch/gjones39/scpfiles/ANO-RCC-VTZP/ozone_118.00/GMJ_IVECC2_B_M_3_.csv

>>> COPY /lustre/isaac/scratch/gjones39/scpfiles/ANO-RCC-VTZP/ozone_118.00/3252707/GMJ_e2_B_M_3_.csv /lustre/isaac/scratch/gjones39/scpfiles/ANO-RCC-VTZP/ozone_118.00/GMJ_e2_B_M_3_.csv

>>> END FOREACH

>>> END FOREACH

>>> EXPORT i = E

>>> EXPORT j = P

>>> IF (-FILE GMJ_e2_${i}_${j}_${k}_.csv)

>>> COPY /lustre/isaac/scratch/gjones39/scpfiles/ANO-RCC-VTZP/ozone_118.00/3252707/GMJ_RHS_E_P_3_.csv /lustre/isaac/scratch/gjones39/scpfiles/ANO-RCC-VTZP/ozone_118.00/GMJ_RHS_E_P_3_.csv

>>> COPY /lustre/isaac/scratch/gjones39/scpfiles/ANO-RCC-VTZP/ozone_118.00/3252707/GMJ_IVECW_E_P_3_.csv /lustre/isaac/scratch/gjones39/scpfiles/ANO-RCC-VTZP/ozone_118.00/GMJ_IVECW_E_P_3_.csv

>>> COPY /lustre/isaac/scratch/gjones39/scpfiles/ANO-RCC-VTZP/ozone_118.00/3252707/GMJ_IVECX_E_P_3_.csv /lustre/isaac/scratch/gjones39/scpfiles/ANO-RCC-VTZP/ozone_118.00/GMJ_IVECX_E_P_3_.csv

>>> COPY /lustre/isaac/scratch/gjones39/scpfiles/ANO-RCC-VTZP/ozone_118.00/3252707/GMJ_IVECC2_E_P_3_.csv /lustre/isaac/scratch/gjones39/scpfiles/ANO-RCC-VTZP/ozone_118.00/GMJ_IVECC2_E_P_3_.csv

>>> COPY /lustre/isaac/scratch/gjones39/scpfiles/ANO-RCC-VTZP/ozone_118.00/3252707/GMJ_e2_E_P_3_.csv /lustre/isaac/scratch/gjones39/scpfiles/ANO-RCC-VTZP/ozone_118.00/GMJ_e2_E_P_3_.csv

>>> END FOREACH

>>> EXPORT j = M

>>> IF (-FILE GMJ_e2_${i}_${j}_${k}_.csv)

>>> COPY /lustre/isaac/scratch/gjones39/scpfiles/ANO-RCC-VTZP/ozone_118.00/3252707/GMJ_RHS_E_M_3_.csv /lustre/isaac/scratch/gjones39/scpfiles/ANO-RCC-VTZP/ozone_118.00/GMJ_RHS_E_M_3_.csv

>>> COPY /lustre/isaac/scratch/gjones39/scpfiles/ANO-RCC-VTZP/ozone_118.00/3252707/GMJ_IVECW_E_M_3_.csv /lustre/isaac/scratch/gjones39/scpfiles/ANO-RCC-VTZP/ozone_118.00/GMJ_IVECW_E_M_3_.csv

>>> COPY /lustre/isaac/scratch/gjones39/scpfiles/ANO-RCC-VTZP/ozone_118.00/3252707/GMJ_IVECX_E_M_3_.csv /lustre/isaac/scratch/gjones39/scpfiles/ANO-RCC-VTZP/ozone_118.00/GMJ_IVECX_E_M_3_.csv

>>> COPY /lustre/isaac/scratch/gjones39/scpfiles/ANO-RCC-VTZP/ozone_118.00/3252707/GMJ_IVECC2_E_M_3_.csv /lustre/isaac/scratch/gjones39/scpfiles/ANO-RCC-VTZP/ozone_118.00/GMJ_IVECC2_E_M_3_.csv

>>> COPY /lustre/isaac/scratch/gjones39/scpfiles/ANO-RCC-VTZP/ozone_118.00/3252707/GMJ_e2_E_M_3_.csv /lustre/isaac/scratch/gjones39/scpfiles/ANO-RCC-VTZP/ozone_118.00/GMJ_e2_E_M_3_.csv

>>> END FOREACH

>>> END FOREACH

>>> EXPORT i = F

>>> EXPORT j = P

>>> IF (-FILE GMJ_e2_${i}_${j}_${k}_.csv)

>>> COPY /lustre/isaac/scratch/gjones39/scpfiles/ANO-RCC-VTZP/ozone_118.00/3252707/GMJ_RHS_F_P_3_.csv /lustre/isaac/scratch/gjones39/scpfiles/ANO-RCC-VTZP/ozone_118.00/GMJ_RHS_F_P_3_.csv

>>> COPY /lustre/isaac/scratch/gjones39/scpfiles/ANO-RCC-VTZP/ozone_118.00/3252707/GMJ_IVECW_F_P_3_.csv /lustre/isaac/scratch/gjones39/scpfiles/ANO-RCC-VTZP/ozone_118.00/GMJ_IVECW_F_P_3_.csv

>>> COPY /lustre/isaac/scratch/gjones39/scpfiles/ANO-RCC-VTZP/ozone_118.00/3252707/GMJ_IVECX_F_P_3_.csv /lustre/isaac/scratch/gjones39/scpfiles/ANO-RCC-VTZP/ozone_118.00/GMJ_IVECX_F_P_3_.csv

>>> COPY /lustre/isaac/scratch/gjones39/scpfiles/ANO-RCC-VTZP/ozone_118.00/3252707/GMJ_IVECC2_F_P_3_.csv /lustre/isaac/scratch/gjones39/scpfiles/ANO-RCC-VTZP/ozone_118.00/GMJ_IVECC2_F_P_3_.csv

>>> COPY /lustre/isaac/scratch/gjones39/scpfiles/ANO-RCC-VTZP/ozone_118.00/3252707/GMJ_e2_F_P_3_.csv /lustre/isaac/scratch/gjones39/scpfiles/ANO-RCC-VTZP/ozone_118.00/GMJ_e2_F_P_3_.csv

>>> END FOREACH

>>> EXPORT j = M

>>> IF (-FILE GMJ_e2_${i}_${j}_${k}_.csv)

>>> COPY /lustre/isaac/scratch/gjones39/scpfiles/ANO-RCC-VTZP/ozone_118.00/3252707/GMJ_RHS_F_M_3_.csv /lustre/isaac/scratch/gjones39/scpfiles/ANO-RCC-VTZP/ozone_118.00/GMJ_RHS_F_M_3_.csv

>>> COPY /lustre/isaac/scratch/gjones39/scpfiles/ANO-RCC-VTZP/ozone_118.00/3252707/GMJ_IVECW_F_M_3_.csv /lustre/isaac/scratch/gjones39/scpfiles/ANO-RCC-VTZP/ozone_118.00/GMJ_IVECW_F_M_3_.csv

>>> COPY /lustre/isaac/scratch/gjones39/scpfiles/ANO-RCC-VTZP/ozone_118.00/3252707/GMJ_IVECX_F_M_3_.csv /lustre/isaac/scratch/gjones39/scpfiles/ANO-RCC-VTZP/ozone_118.00/GMJ_IVECX_F_M_3_.csv

>>> COPY /lustre/isaac/scratch/gjones39/scpfiles/ANO-RCC-VTZP/ozone_118.00/3252707/GMJ_IVECC2_F_M_3_.csv /lustre/isaac/scratch/gjones39/scpfiles/ANO-RCC-VTZP/ozone_118.00/GMJ_IVECC2_F_M_3_.csv

>>> COPY /lustre/isaac/scratch/gjones39/scpfiles/ANO-RCC-VTZP/ozone_118.00/3252707/GMJ_e2_F_M_3_.csv /lustre/isaac/scratch/gjones39/scpfiles/ANO-RCC-VTZP/ozone_118.00/GMJ_e2_F_M_3_.csv

>>> END FOREACH

>>> END FOREACH

>>> EXPORT i = G

>>> EXPORT j = P

>>> IF (-FILE GMJ_e2_${i}_${j}_${k}_.csv)

>>> COPY /lustre/isaac/scratch/gjones39/scpfiles/ANO-RCC-VTZP/ozone_118.00/3252707/GMJ_RHS_G_P_3_.csv /lustre/isaac/scratch/gjones39/scpfiles/ANO-RCC-VTZP/ozone_118.00/GMJ_RHS_G_P_3_.csv

>>> COPY /lustre/isaac/scratch/gjones39/scpfiles/ANO-RCC-VTZP/ozone_118.00/3252707/GMJ_IVECW_G_P_3_.csv /lustre/isaac/scratch/gjones39/scpfiles/ANO-RCC-VTZP/ozone_118.00/GMJ_IVECW_G_P_3_.csv

>>> COPY /lustre/isaac/scratch/gjones39/scpfiles/ANO-RCC-VTZP/ozone_118.00/3252707/GMJ_IVECX_G_P_3_.csv /lustre/isaac/scratch/gjones39/scpfiles/ANO-RCC-VTZP/ozone_118.00/GMJ_IVECX_G_P_3_.csv

>>> COPY /lustre/isaac/scratch/gjones39/scpfiles/ANO-RCC-VTZP/ozone_118.00/3252707/GMJ_IVECC2_G_P_3_.csv /lustre/isaac/scratch/gjones39/scpfiles/ANO-RCC-VTZP/ozone_118.00/GMJ_IVECC2_G_P_3_.csv

>>> COPY /lustre/isaac/scratch/gjones39/scpfiles/ANO-RCC-VTZP/ozone_118.00/3252707/GMJ_e2_G_P_3_.csv /lustre/isaac/scratch/gjones39/scpfiles/ANO-RCC-VTZP/ozone_118.00/GMJ_e2_G_P_3_.csv

>>> END FOREACH

>>> EXPORT j = M

>>> IF (-FILE GMJ_e2_${i}_${j}_${k}_.csv)

>>> COPY /lustre/isaac/scratch/gjones39/scpfiles/ANO-RCC-VTZP/ozone_118.00/3252707/GMJ_RHS_G_M_3_.csv /lustre/isaac/scratch/gjones39/scpfiles/ANO-RCC-VTZP/ozone_118.00/GMJ_RHS_G_M_3_.csv

>>> COPY /lustre/isaac/scratch/gjones39/scpfiles/ANO-RCC-VTZP/ozone_118.00/3252707/GMJ_IVECW_G_M_3_.csv /lustre/isaac/scratch/gjones39/scpfiles/ANO-RCC-VTZP/ozone_118.00/GMJ_IVECW_G_M_3_.csv

>>> COPY /lustre/isaac/scratch/gjones39/scpfiles/ANO-RCC-VTZP/ozone_118.00/3252707/GMJ_IVECX_G_M_3_.csv /lustre/isaac/scratch/gjones39/scpfiles/ANO-RCC-VTZP/ozone_118.00/GMJ_IVECX_G_M_3_.csv

>>> COPY /lustre/isaac/scratch/gjones39/scpfiles/ANO-RCC-VTZP/ozone_118.00/3252707/GMJ_IVECC2_G_M_3_.csv /lustre/isaac/scratch/gjones39/scpfiles/ANO-RCC-VTZP/ozone_118.00/GMJ_IVECC2_G_M_3_.csv

>>> COPY /lustre/isaac/scratch/gjones39/scpfiles/ANO-RCC-VTZP/ozone_118.00/3252707/GMJ_e2_G_M_3_.csv /lustre/isaac/scratch/gjones39/scpfiles/ANO-RCC-VTZP/ozone_118.00/GMJ_e2_G_M_3_.csv

>>> END FOREACH

>>> END FOREACH

>>> EXPORT i = H

>>> EXPORT j = P

>>> IF (-FILE GMJ_e2_${i}_${j}_${k}_.csv)

>>> COPY /lustre/isaac/scratch/gjones39/scpfiles/ANO-RCC-VTZP/ozone_118.00/3252707/GMJ_RHS_H_P_3_.csv /lustre/isaac/scratch/gjones39/scpfiles/ANO-RCC-VTZP/ozone_118.00/GMJ_RHS_H_P_3_.csv

>>> COPY /lustre/isaac/scratch/gjones39/scpfiles/ANO-RCC-VTZP/ozone_118.00/3252707/GMJ_IVECW_H_P_3_.csv /lustre/isaac/scratch/gjones39/scpfiles/ANO-RCC-VTZP/ozone_118.00/GMJ_IVECW_H_P_3_.csv

>>> COPY /lustre/isaac/scratch/gjones39/scpfiles/ANO-RCC-VTZP/ozone_118.00/3252707/GMJ_IVECX_H_P_3_.csv /lustre/isaac/scratch/gjones39/scpfiles/ANO-RCC-VTZP/ozone_118.00/GMJ_IVECX_H_P_3_.csv

>>> COPY /lustre/isaac/scratch/gjones39/scpfiles/ANO-RCC-VTZP/ozone_118.00/3252707/GMJ_IVECC2_H_P_3_.csv /lustre/isaac/scratch/gjones39/scpfiles/ANO-RCC-VTZP/ozone_118.00/GMJ_IVECC2_H_P_3_.csv

>>> COPY /lustre/isaac/scratch/gjones39/scpfiles/ANO-RCC-VTZP/ozone_118.00/3252707/GMJ_e2_H_P_3_.csv /lustre/isaac/scratch/gjones39/scpfiles/ANO-RCC-VTZP/ozone_118.00/GMJ_e2_H_P_3_.csv

>>> END FOREACH

>>> EXPORT j = M

>>> IF (-FILE GMJ_e2_${i}_${j}_${k}_.csv)

>>> COPY /lustre/isaac/scratch/gjones39/scpfiles/ANO-RCC-VTZP/ozone_118.00/3252707/GMJ_RHS_H_M_3_.csv /lustre/isaac/scratch/gjones39/scpfiles/ANO-RCC-VTZP/ozone_118.00/GMJ_RHS_H_M_3_.csv

>>> COPY /lustre/isaac/scratch/gjones39/scpfiles/ANO-RCC-VTZP/ozone_118.00/3252707/GMJ_IVECW_H_M_3_.csv /lustre/isaac/scratch/gjones39/scpfiles/ANO-RCC-VTZP/ozone_118.00/GMJ_IVECW_H_M_3_.csv

>>> COPY /lustre/isaac/scratch/gjones39/scpfiles/ANO-RCC-VTZP/ozone_118.00/3252707/GMJ_IVECX_H_M_3_.csv /lustre/isaac/scratch/gjones39/scpfiles/ANO-RCC-VTZP/ozone_118.00/GMJ_IVECX_H_M_3_.csv

>>> COPY /lustre/isaac/scratch/gjones39/scpfiles/ANO-RCC-VTZP/ozone_118.00/3252707/GMJ_IVECC2_H_M_3_.csv /lustre/isaac/scratch/gjones39/scpfiles/ANO-RCC-VTZP/ozone_118.00/GMJ_IVECC2_H_M_3_.csv

>>> COPY /lustre/isaac/scratch/gjones39/scpfiles/ANO-RCC-VTZP/ozone_118.00/3252707/GMJ_e2_H_M_3_.csv /lustre/isaac/scratch/gjones39/scpfiles/ANO-RCC-VTZP/ozone_118.00/GMJ_e2_H_M_3_.csv

>>> END FOREACH

>>> END FOREACH

>>> END FOREACH

>>> EXPORT j = 1

>>> EXPORT i = A

>>> IF (-FILE GMJ_e2_${i}_${j}_.csv)

>>> COPY /lustre/isaac/scratch/gjones39/scpfiles/ANO-RCC-VTZP/ozone_118.00/3252707/GMJ_RHS_A_1_.csv /lustre/isaac/scratch/gjones39/scpfiles/ANO-RCC-VTZP/ozone_118.00/GMJ_RHS_A_1_.csv

>>> COPY /lustre/isaac/scratch/gjones39/scpfiles/ANO-RCC-VTZP/ozone_118.00/3252707/GMJ_IVECW_A_1_.csv /lustre/isaac/scratch/gjones39/scpfiles/ANO-RCC-VTZP/ozone_118.00/GMJ_IVECW_A_1_.csv

>>> COPY /lustre/isaac/scratch/gjones39/scpfiles/ANO-RCC-VTZP/ozone_118.00/3252707/GMJ_IVECX_A_1_.csv /lustre/isaac/scratch/gjones39/scpfiles/ANO-RCC-VTZP/ozone_118.00/GMJ_IVECX_A_1_.csv

>>> COPY /lustre/isaac/scratch/gjones39/scpfiles/ANO-RCC-VTZP/ozone_118.00/3252707/GMJ_IVECC2_A_1_.csv /lustre/isaac/scratch/gjones39/scpfiles/ANO-RCC-VTZP/ozone_118.00/GMJ_IVECC2_A_1_.csv

>>> COPY /lustre/isaac/scratch/gjones39/scpfiles/ANO-RCC-VTZP/ozone_118.00/3252707/GMJ_e2_A_1_.csv /lustre/isaac/scratch/gjones39/scpfiles/ANO-RCC-VTZP/ozone_118.00/GMJ_e2_A_1_.csv

>>> END FOREACH

>>> EXPORT i = C

>>> IF (-FILE GMJ_e2_${i}_${j}_.csv)

>>> COPY /lustre/isaac/scratch/gjones39/scpfiles/ANO-RCC-VTZP/ozone_118.00/3252707/GMJ_RHS_C_1_.csv /lustre/isaac/scratch/gjones39/scpfiles/ANO-RCC-VTZP/ozone_118.00/GMJ_RHS_C_1_.csv

>>> COPY /lustre/isaac/scratch/gjones39/scpfiles/ANO-RCC-VTZP/ozone_118.00/3252707/GMJ_IVECW_C_1_.csv /lustre/isaac/scratch/gjones39/scpfiles/ANO-RCC-VTZP/ozone_118.00/GMJ_IVECW_C_1_.csv

>>> COPY /lustre/isaac/scratch/gjones39/scpfiles/ANO-RCC-VTZP/ozone_118.00/3252707/GMJ_IVECX_C_1_.csv /lustre/isaac/scratch/gjones39/scpfiles/ANO-RCC-VTZP/ozone_118.00/GMJ_IVECX_C_1_.csv

>>> COPY /lustre/isaac/scratch/gjones39/scpfiles/ANO-RCC-VTZP/ozone_118.00/3252707/GMJ_IVECC2_C_1_.csv /lustre/isaac/scratch/gjones39/scpfiles/ANO-RCC-VTZP/ozone_118.00/GMJ_IVECC2_C_1_.csv

>>> COPY /lustre/isaac/scratch/gjones39/scpfiles/ANO-RCC-VTZP/ozone_118.00/3252707/GMJ_e2_C_1_.csv /lustre/isaac/scratch/gjones39/scpfiles/ANO-RCC-VTZP/ozone_118.00/GMJ_e2_C_1_.csv

>>> END FOREACH

>>> EXPORT i = D

>>> IF (-FILE GMJ_e2_${i}_${j}_.csv)

>>> COPY /lustre/isaac/scratch/gjones39/scpfiles/ANO-RCC-VTZP/ozone_118.00/3252707/GMJ_RHS_D_1_.csv /lustre/isaac/scratch/gjones39/scpfiles/ANO-RCC-VTZP/ozone_118.00/GMJ_RHS_D_1_.csv

>>> COPY /lustre/isaac/scratch/gjones39/scpfiles/ANO-RCC-VTZP/ozone_118.00/3252707/GMJ_IVECW_D_1_.csv /lustre/isaac/scratch/gjones39/scpfiles/ANO-RCC-VTZP/ozone_118.00/GMJ_IVECW_D_1_.csv

>>> COPY /lustre/isaac/scratch/gjones39/scpfiles/ANO-RCC-VTZP/ozone_118.00/3252707/GMJ_IVECX_D_1_.csv /lustre/isaac/scratch/gjones39/scpfiles/ANO-RCC-VTZP/ozone_118.00/GMJ_IVECX_D_1_.csv

>>> COPY /lustre/isaac/scratch/gjones39/scpfiles/ANO-RCC-VTZP/ozone_118.00/3252707/GMJ_IVECC2_D_1_.csv /lustre/isaac/scratch/gjones39/scpfiles/ANO-RCC-VTZP/ozone_118.00/GMJ_IVECC2_D_1_.csv

>>> COPY /lustre/isaac/scratch/gjones39/scpfiles/ANO-RCC-VTZP/ozone_118.00/3252707/GMJ_e2_D_1_.csv /lustre/isaac/scratch/gjones39/scpfiles/ANO-RCC-VTZP/ozone_118.00/GMJ_e2_D_1_.csv

>>> END FOREACH

>>> END FOREACH

>>> EXPORT j = 2

>>> EXPORT i = A

>>> IF (-FILE GMJ_e2_${i}_${j}_.csv)

>>> COPY /lustre/isaac/scratch/gjones39/scpfiles/ANO-RCC-VTZP/ozone_118.00/3252707/GMJ_RHS_A_2_.csv /lustre/isaac/scratch/gjones39/scpfiles/ANO-RCC-VTZP/ozone_118.00/GMJ_RHS_A_2_.csv

>>> COPY /lustre/isaac/scratch/gjones39/scpfiles/ANO-RCC-VTZP/ozone_118.00/3252707/GMJ_IVECW_A_2_.csv /lustre/isaac/scratch/gjones39/scpfiles/ANO-RCC-VTZP/ozone_118.00/GMJ_IVECW_A_2_.csv

>>> COPY /lustre/isaac/scratch/gjones39/scpfiles/ANO-RCC-VTZP/ozone_118.00/3252707/GMJ_IVECX_A_2_.csv /lustre/isaac/scratch/gjones39/scpfiles/ANO-RCC-VTZP/ozone_118.00/GMJ_IVECX_A_2_.csv

>>> COPY /lustre/isaac/scratch/gjones39/scpfiles/ANO-RCC-VTZP/ozone_118.00/3252707/GMJ_IVECC2_A_2_.csv /lustre/isaac/scratch/gjones39/scpfiles/ANO-RCC-VTZP/ozone_118.00/GMJ_IVECC2_A_2_.csv

>>> COPY /lustre/isaac/scratch/gjones39/scpfiles/ANO-RCC-VTZP/ozone_118.00/3252707/GMJ_e2_A_2_.csv /lustre/isaac/scratch/gjones39/scpfiles/ANO-RCC-VTZP/ozone_118.00/GMJ_e2_A_2_.csv

>>> END FOREACH

>>> EXPORT i = C

>>> IF (-FILE GMJ_e2_${i}_${j}_.csv)

>>> COPY /lustre/isaac/scratch/gjones39/scpfiles/ANO-RCC-VTZP/ozone_118.00/3252707/GMJ_RHS_C_2_.csv /lustre/isaac/scratch/gjones39/scpfiles/ANO-RCC-VTZP/ozone_118.00/GMJ_RHS_C_2_.csv

>>> COPY /lustre/isaac/scratch/gjones39/scpfiles/ANO-RCC-VTZP/ozone_118.00/3252707/GMJ_IVECW_C_2_.csv /lustre/isaac/scratch/gjones39/scpfiles/ANO-RCC-VTZP/ozone_118.00/GMJ_IVECW_C_2_.csv

>>> COPY /lustre/isaac/scratch/gjones39/scpfiles/ANO-RCC-VTZP/ozone_118.00/3252707/GMJ_IVECX_C_2_.csv /lustre/isaac/scratch/gjones39/scpfiles/ANO-RCC-VTZP/ozone_118.00/GMJ_IVECX_C_2_.csv

>>> COPY /lustre/isaac/scratch/gjones39/scpfiles/ANO-RCC-VTZP/ozone_118.00/3252707/GMJ_IVECC2_C_2_.csv /lustre/isaac/scratch/gjones39/scpfiles/ANO-RCC-VTZP/ozone_118.00/GMJ_IVECC2_C_2_.csv

>>> COPY /lustre/isaac/scratch/gjones39/scpfiles/ANO-RCC-VTZP/ozone_118.00/3252707/GMJ_e2_C_2_.csv /lustre/isaac/scratch/gjones39/scpfiles/ANO-RCC-VTZP/ozone_118.00/GMJ_e2_C_2_.csv

>>> END FOREACH

>>> EXPORT i = D

>>> IF (-FILE GMJ_e2_${i}_${j}_.csv)

>>> COPY /lustre/isaac/scratch/gjones39/scpfiles/ANO-RCC-VTZP/ozone_118.00/3252707/GMJ_RHS_D_2_.csv /lustre/isaac/scratch/gjones39/scpfiles/ANO-RCC-VTZP/ozone_118.00/GMJ_RHS_D_2_.csv

>>> COPY /lustre/isaac/scratch/gjones39/scpfiles/ANO-RCC-VTZP/ozone_118.00/3252707/GMJ_IVECW_D_2_.csv /lustre/isaac/scratch/gjones39/scpfiles/ANO-RCC-VTZP/ozone_118.00/GMJ_IVECW_D_2_.csv

>>> COPY /lustre/isaac/scratch/gjones39/scpfiles/ANO-RCC-VTZP/ozone_118.00/3252707/GMJ_IVECX_D_2_.csv /lustre/isaac/scratch/gjones39/scpfiles/ANO-RCC-VTZP/ozone_118.00/GMJ_IVECX_D_2_.csv

>>> COPY /lustre/isaac/scratch/gjones39/scpfiles/ANO-RCC-VTZP/ozone_118.00/3252707/GMJ_IVECC2_D_2_.csv /lustre/isaac/scratch/gjones39/scpfiles/ANO-RCC-VTZP/ozone_118.00/GMJ_IVECC2_D_2_.csv

>>> COPY /lustre/isaac/scratch/gjones39/scpfiles/ANO-RCC-VTZP/ozone_118.00/3252707/GMJ_e2_D_2_.csv /lustre/isaac/scratch/gjones39/scpfiles/ANO-RCC-VTZP/ozone_118.00/GMJ_e2_D_2_.csv

>>> END FOREACH

>>> END FOREACH

>>> EXPORT j = 3

>>> EXPORT i = A

>>> IF (-FILE GMJ_e2_${i}_${j}_.csv)

>>> COPY /lustre/isaac/scratch/gjones39/scpfiles/ANO-RCC-VTZP/ozone_118.00/3252707/GMJ_RHS_A_3_.csv /lustre/isaac/scratch/gjones39/scpfiles/ANO-RCC-VTZP/ozone_118.00/GMJ_RHS_A_3_.csv

>>> COPY /lustre/isaac/scratch/gjones39/scpfiles/ANO-RCC-VTZP/ozone_118.00/3252707/GMJ_IVECW_A_3_.csv /lustre/isaac/scratch/gjones39/scpfiles/ANO-RCC-VTZP/ozone_118.00/GMJ_IVECW_A_3_.csv

>>> COPY /lustre/isaac/scratch/gjones39/scpfiles/ANO-RCC-VTZP/ozone_118.00/3252707/GMJ_IVECX_A_3_.csv /lustre/isaac/scratch/gjones39/scpfiles/ANO-RCC-VTZP/ozone_118.00/GMJ_IVECX_A_3_.csv

>>> COPY /lustre/isaac/scratch/gjones39/scpfiles/ANO-RCC-VTZP/ozone_118.00/3252707/GMJ_IVECC2_A_3_.csv /lustre/isaac/scratch/gjones39/scpfiles/ANO-RCC-VTZP/ozone_118.00/GMJ_IVECC2_A_3_.csv

>>> COPY /lustre/isaac/scratch/gjones39/scpfiles/ANO-RCC-VTZP/ozone_118.00/3252707/GMJ_e2_A_3_.csv /lustre/isaac/scratch/gjones39/scpfiles/ANO-RCC-VTZP/ozone_118.00/GMJ_e2_A_3_.csv

>>> END FOREACH

>>> EXPORT i = C

>>> IF (-FILE GMJ_e2_${i}_${j}_.csv)

>>> COPY /lustre/isaac/scratch/gjones39/scpfiles/ANO-RCC-VTZP/ozone_118.00/3252707/GMJ_RHS_C_3_.csv /lustre/isaac/scratch/gjones39/scpfiles/ANO-RCC-VTZP/ozone_118.00/GMJ_RHS_C_3_.csv

>>> COPY /lustre/isaac/scratch/gjones39/scpfiles/ANO-RCC-VTZP/ozone_118.00/3252707/GMJ_IVECW_C_3_.csv /lustre/isaac/scratch/gjones39/scpfiles/ANO-RCC-VTZP/ozone_118.00/GMJ_IVECW_C_3_.csv

>>> COPY /lustre/isaac/scratch/gjones39/scpfiles/ANO-RCC-VTZP/ozone_118.00/3252707/GMJ_IVECX_C_3_.csv /lustre/isaac/scratch/gjones39/scpfiles/ANO-RCC-VTZP/ozone_118.00/GMJ_IVECX_C_3_.csv

>>> COPY /lustre/isaac/scratch/gjones39/scpfiles/ANO-RCC-VTZP/ozone_118.00/3252707/GMJ_IVECC2_C_3_.csv /lustre/isaac/scratch/gjones39/scpfiles/ANO-RCC-VTZP/ozone_118.00/GMJ_IVECC2_C_3_.csv

>>> COPY /lustre/isaac/scratch/gjones39/scpfiles/ANO-RCC-VTZP/ozone_118.00/3252707/GMJ_e2_C_3_.csv /lustre/isaac/scratch/gjones39/scpfiles/ANO-RCC-VTZP/ozone_118.00/GMJ_e2_C_3_.csv

>>> END FOREACH

>>> EXPORT i = D

>>> IF (-FILE GMJ_e2_${i}_${j}_.csv)

>>> COPY /lustre/isaac/scratch/gjones39/scpfiles/ANO-RCC-VTZP/ozone_118.00/3252707/GMJ_RHS_D_3_.csv /lustre/isaac/scratch/gjones39/scpfiles/ANO-RCC-VTZP/ozone_118.00/GMJ_RHS_D_3_.csv

>>> COPY /lustre/isaac/scratch/gjones39/scpfiles/ANO-RCC-VTZP/ozone_118.00/3252707/GMJ_IVECW_D_3_.csv /lustre/isaac/scratch/gjones39/scpfiles/ANO-RCC-VTZP/ozone_118.00/GMJ_IVECW_D_3_.csv

>>> COPY /lustre/isaac/scratch/gjones39/scpfiles/ANO-RCC-VTZP/ozone_118.00/3252707/GMJ_IVECX_D_3_.csv /lustre/isaac/scratch/gjones39/scpfiles/ANO-RCC-VTZP/ozone_118.00/GMJ_IVECX_D_3_.csv

>>> COPY /lustre/isaac/scratch/gjones39/scpfiles/ANO-RCC-VTZP/ozone_118.00/3252707/GMJ_IVECC2_D_3_.csv /lustre/isaac/scratch/gjones39/scpfiles/ANO-RCC-VTZP/ozone_118.00/GMJ_IVECC2_D_3_.csv

>>> COPY /lustre/isaac/scratch/gjones39/scpfiles/ANO-RCC-VTZP/ozone_118.00/3252707/GMJ_e2_D_3_.csv /lustre/isaac/scratch/gjones39/scpfiles/ANO-RCC-VTZP/ozone_118.00/GMJ_e2_D_3_.csv

>>> END FOREACH

>>> END FOREACH

    Timing: Wall=65.57 User=42.33 System=20.15
****************************************************************************************************
*** WorkDir at /lustre/isaac/scratch/gjones39/scpfiles/ANO-RCC-VTZP/ozone_118.00/3252707 cleaned ***
****************************************************************************************************
