[Molden Format]
[N_Atoms]
                     2
[Atoms] (AU)
C1          1      6           0.00000000      0.00000000      0.00000000
N2          2      7           0.00000000      0.00000000      1.88972612
[Charge] (Mulliken)
  0.265937976390171     
 -0.265937976390202     
[GTO] (AU)
   1
   s  14
  5.055750100E+04  1.128874000E-04
  7.524785600E+03  5.295373000E-04
  1.694327600E+03  2.450038300E-03
  4.728227900E+02  1.005398470E-02
  1.517107500E+02  3.545398060E-02
  5.391874600E+01  1.044071086E-01
  2.065931100E+01  2.412894918E-01
  8.383976000E+00  3.834225483E-01
  3.577015000E+00  3.078514393E-01
  1.547118000E+00  6.872442990E-02
  6.130130000E-01  2.224445000E-04
  2.460680000E-01  1.976748900E-03
  9.908700000E-02  2.057859400E-03
  3.468000000E-02  4.182020000E-04
   s  14
  5.055750100E+04 -2.507420000E-05
  7.524785600E+03 -1.175945000E-04
  1.694327600E+03 -5.456275000E-04
  4.728227900E+02 -2.245077100E-03
  1.517107500E+02 -8.043471800E-03
  5.391874600E+01 -2.442588710E-02
  2.065931100E+01 -6.136791180E-02
  8.383976000E+00 -1.177767835E-01
  3.577015000E+00 -1.550487783E-01
  1.547118000E+00 -1.933316860E-02
  6.130130000E-01  3.996930678E-01
  2.460680000E-01  5.589420949E-01
  9.908700000E-02  1.711195023E-01
  3.468000000E-02  7.456244600E-03
   p   9
  8.333315500E+01  1.344656000E-03
  1.955761100E+01  1.023555500E-02
  6.080365000E+00  4.520067100E-02
  2.179317000E+00  1.410756198E-01
  8.651500000E-01  3.047388085E-01
  3.619440000E-01  3.995281011E-01
  1.547400000E-01  2.719163432E-01
  6.542900000E-02  5.857669330E-02
  2.290000000E-02 -1.263813000E-04
 
   2
   s  14
  7.476171500E+04  1.182599996E-04
  1.112365400E+04  5.172899983E-04
  2.512685700E+03  2.266659992E-03
  7.037772900E+02  9.145289970E-03
  2.254787900E+02  3.239342989E-02
  7.961581000E+01  9.770792967E-02
  3.023728300E+01  2.317036792E-01
  1.226362200E+01  3.768898887E-01
  5.265086000E+00  3.177420689E-01
  2.333471000E+00  8.211308973E-02
  9.018560000E-01  3.312089989E-03
  3.583360000E-01  3.720819988E-03
  1.410930000E-01  3.165419989E-03
  4.938300000E-02  4.595799985E-04
   s  14
  7.476171500E+04 -2.707000010E-05
  1.112365400E+04 -1.183700004E-04
  2.512685700E+03 -5.203800020E-04
  7.037772900E+02 -2.102930008E-03
  2.254787900E+02 -7.568200028E-03
  7.961581000E+01 -2.346767009E-02
  3.023728300E+01 -6.042901023E-02
  1.226362200E+01 -1.170549104E-01
  5.265086000E+00 -1.555321506E-01
  2.333471000E+00 -2.468935009E-02
  9.018560000E-01  3.625054514E-01
  3.583360000E-01  5.550845021E-01
  1.410930000E-01  2.148376908E-01
  4.938300000E-02  8.983850034E-03
   p   9
  1.266665700E+02  1.233630000E-03
  2.983738900E+01  9.493409996E-03
  9.394038000E+00  4.293961998E-02
  3.405104000E+00  1.362925399E-01
  1.350000000E+00  2.921362499E-01
  5.576960000E-01  3.887887598E-01
  2.324490000E-01  2.946801399E-01
  9.426400000E-02  8.012875997E-02
  3.299200000E-02  5.405199998E-04
 
[MO]
Sym=     1a  
Ene=   -15.7360
Spin= Alpha
Occup=    1.00000
   1        -0.00074663
   2        -0.00509222
   3        -0.00000000
   4         0.00000000
   5        -0.00203223
   6         1.00069294
   7        -0.00120314
   8         0.00000000
   9         0.00000000
  10        -0.00605901
Sym=     1a  
Ene=   -15.7460
Spin= Beta
Occup=    1.00000
   1        -0.00102433
   2        -0.00564946
   3        -0.00000000
   4         0.00000000
   5        -0.00259802
   6         1.00082068
   7         0.00006024
   8         0.00000000
   9         0.00000000
  10        -0.00643435
Sym=     2a  
Ene=   -11.5520
Spin= Alpha
Occup=    1.00000
   1         0.99979004
   2        -0.00007971
   3        -0.00000000
   4         0.00000000
   5         0.00289542
   6        -0.00248991
   7        -0.00088177
   8        -0.00000000
   9        -0.00000000
  10        -0.00191714
Sym=     2a  
Ene=   -11.5110
Spin= Beta
Occup=    1.00000
   1         0.99986809
   2        -0.00178139
   3         0.00000000
   4         0.00000000
   5         0.00372900
   6        -0.00235724
   7        -0.00104773
   8        -0.00000000
   9        -0.00000000
  10        -0.00148380
Sym=     3a  
Ene=    -1.4242
Spin= Alpha
Occup=    1.00000
   1        -0.10194868
   2         0.33079068
   3        -0.00000000
   4         0.00000000
   5         0.24845023
   6        -0.05900806
   7         0.52278723
   8        -0.00000000
   9         0.00000000
  10        -0.33860644
Sym=     3a  
Ene=    -1.4166
Spin= Beta
Occup=    1.00000
   1        -0.10405885
   2         0.26453831
   3        -0.00000000
   4         0.00000000
   5         0.25879421
   6        -0.05502274
   7         0.58400364
   8        -0.00000000
   9         0.00000000
  10        -0.32154232
Sym=     4a  
Ene=    -0.7575
Spin= Alpha
Occup=    1.00000
   1        -0.02753890
   2        -0.77409826
   3        -0.00000000
   4        -0.00000000
   5         0.59294663
   6        -0.01335729
   7         0.32909725
   8        -0.00000000
   9        -0.00000000
  10         0.03189783
Sym=     4a  
Ene=    -0.6389
Spin= Beta
Occup=    1.00000
   1         0.00000000
   2        -0.00000000
   3         0.49629641
   4         0.01509813
   5        -0.00000000
   6         0.00000000
   7         0.00000000
   8         0.68149023
   9         0.02073203
  10         0.00000000
Sym=     5a  
Ene=    -0.6535
Spin= Alpha
Occup=    1.00000
   1         0.00000000
   2        -0.00000000
   3         0.64910271
   4         0.13680157
   5        -0.00000000
   6         0.00000000
   7         0.00000000
   8         0.50606272
   9         0.10665519
  10         0.00000000
Sym=     5a  
Ene=    -0.6389
Spin= Beta
Occup=    1.00000
   1         0.00000000
   2        -0.00000000
   3        -0.01509813
   4         0.49629641
   5        -0.00000000
   6         0.00000000
   7         0.00000000
   8        -0.02073203
   9         0.68149023
  10         0.00000000
Sym=     6a  
Ene=    -0.6535
Spin= Alpha
Occup=    1.00000
   1        -0.00000000
   2        -0.00000000
   3        -0.13680157
   4         0.64910271
   5        -0.00000000
   6         0.00000000
   7         0.00000000
   8        -0.10665519
   9         0.50606272
  10        -0.00000000
Sym=     6a  
Ene=    -0.6288
Spin= Beta
Occup=    1.00000
   1         0.03815337
   2        -0.30120642
   3        -0.00000000
   4        -0.00000000
   5        -0.14149748
   6         0.04974890
   7         0.73302055
   8        -0.00000000
   9        -0.00000000
  10         0.70235548
Sym=     7a  
Ene=    -0.6082
Spin= Alpha
Occup=    1.00000
   1         0.05618310
   2         0.09281788
   3        -0.00000000
   4        -0.00000000
   5        -0.40373623
   6         0.05231725
   7         0.65902179
   8        -0.00000000
   9        -0.00000000
  10         0.76549251
Sym=     7a  
Ene=    -0.0290
Spin= Beta
Occup=    0.00000
   1         0.06287866
   2         0.82944226
   3         0.00000000
   4         0.00000000
   5        -0.63160465
   6         0.01640608
   7        -0.06736572
   8        -0.00000000
   9        -0.00000000
  10         0.34804314
Sym=     8a  
Ene=     0.2654
Spin= Alpha
Occup=    0.00000
   1         0.00000000
   2         0.00000000
   3        -0.87931849
   4        -0.09372627
   5        -0.00000000
   6        -0.00000000
   7        -0.00000000
   8         0.97151250
   9         0.10355320
  10         0.00000000
Sym=     8a  
Ene=     0.3003
Spin= Beta
Occup=    0.00000
   1         0.00000000
   2         0.00000000
   3        -0.97542367
   4        -0.15506515
   5        -0.00000000
   6        -0.00000000
   7        -0.00000000
   8         0.85936726
   9         0.13661542
  10         0.00000000
Sym=     9a  
Ene=     0.2654
Spin= Alpha
Occup=    0.00000
   1         0.00000000
   2         0.00000000
   3         0.09372627
   4        -0.87931849
   5         0.00000000
   6        -0.00000000
   7        -0.00000000
   8        -0.10355320
   9         0.97151250
  10         0.00000000
Sym=     9a  
Ene=     0.3003
Spin= Beta
Occup=    0.00000
   1         0.00000000
   2         0.00000000
   3         0.15506515
   4        -0.97542367
   5         0.00000000
   6        -0.00000000
   7        -0.00000000
   8        -0.13661542
   9         0.85936726
  10         0.00000000
Sym=    10a  
Ene=     1.3145
Spin= Alpha
Occup=    0.00000
   1         0.36816669
   2         1.79317970
   3         0.00000000
   4         0.00000000
   5         1.47682312
   6        -0.35335874
   7        -1.90336802
   8        -0.00000000
   9        -0.00000000
  10         1.25159080
Sym=    10a  
Ene=     1.3606
Spin= Beta
Occup=    0.00000
   1         0.36532307
   2         1.75615197
   3         0.00000000
   4         0.00000000
   5         1.50711451
   6        -0.35388306
   7        -1.88568678
   8        -0.00000000
   9        -0.00000000
  10         1.24511050
