[Molden Format]
[N_Atoms]
                     2
[Atoms] (AU)
N1          1      7           0.00000000      0.00000000      0.00000000
O2          2      8           0.00000000      0.00000000      4.34637009
[Charge] (Mulliken)
  9.936910846445102E-002
 -9.936910846450431E-002
[GTO] (AU)
   1
   s  14
  7.476171500E+04  1.182599996E-04
  1.112365400E+04  5.172899983E-04
  2.512685700E+03  2.266659992E-03
  7.037772900E+02  9.145289970E-03
  2.254787900E+02  3.239342989E-02
  7.961581000E+01  9.770792967E-02
  3.023728300E+01  2.317036792E-01
  1.226362200E+01  3.768898887E-01
  5.265086000E+00  3.177420689E-01
  2.333471000E+00  8.211308973E-02
  9.018560000E-01  3.312089989E-03
  3.583360000E-01  3.720819988E-03
  1.410930000E-01  3.165419989E-03
  4.938300000E-02  4.595799985E-04
   s  14
  7.476171500E+04 -2.707000010E-05
  1.112365400E+04 -1.183700004E-04
  2.512685700E+03 -5.203800020E-04
  7.037772900E+02 -2.102930008E-03
  2.254787900E+02 -7.568200028E-03
  7.961581000E+01 -2.346767009E-02
  3.023728300E+01 -6.042901023E-02
  1.226362200E+01 -1.170549104E-01
  5.265086000E+00 -1.555321506E-01
  2.333471000E+00 -2.468935009E-02
  9.018560000E-01  3.625054514E-01
  3.583360000E-01  5.550845021E-01
  1.410930000E-01  2.148376908E-01
  4.938300000E-02  8.983850034E-03
   p   9
  1.266665700E+02  1.233630000E-03
  2.983738900E+01  9.493409996E-03
  9.394038000E+00  4.293961998E-02
  3.405104000E+00  1.362925399E-01
  1.350000000E+00  2.921362499E-01
  5.576960000E-01  3.887887598E-01
  2.324490000E-01  2.946801399E-01
  9.426400000E-02  8.012875997E-02
  3.299200000E-02  5.405199998E-04
 
   2
   s  14
  1.053749500E+05  1.238600013E-04
  1.567924000E+04  5.120100053E-04
  3.534544700E+03  2.152910022E-03
  9.873651600E+02  8.528440089E-03
  3.159787500E+02  3.018049031E-02
  1.116542800E+02  9.099702095E-02
  4.269945100E+01  2.177936423E-01
  1.739559600E+01  3.686245738E-01
  7.438309000E+00  3.366707335E-01
  3.222862000E+00  9.657630101E-02
  1.253877000E+00  2.144520022E-03
  4.951550000E-01  1.194350012E-03
  1.916650000E-01  5.390200056E-04
  6.708300000E-02  2.103400022E-04
   s  14
  1.053749500E+05 -2.815000008E-05
  1.567924000E+04 -1.163000003E-04
  3.534544700E+03 -4.909200013E-04
  9.873651600E+02 -1.946160005E-03
  3.159787500E+02 -7.005300019E-03
  1.116542800E+02 -2.167814006E-02
  4.269945100E+01 -5.641213015E-02
  1.739559600E+01 -1.127053003E-01
  7.438309000E+00 -1.589119704E-01
  3.222862000E+00 -3.355083009E-02
  1.253877000E+00  3.531902810E-01
  4.951550000E-01  5.534199315E-01
  1.916650000E-01  2.301839106E-01
  6.708300000E-02  1.127267003E-02
   p   9
  2.000000000E+02  9.173000030E-04
  4.653336700E+01  7.377140024E-03
  1.462180900E+01  3.483515011E-02
  5.313064000E+00  1.144397004E-01
  2.102525000E+00  2.554966408E-01
  8.502230000E-01  3.722557412E-01
  3.375970000E-01  3.323314911E-01
  1.288920000E-01  1.400847905E-01
  4.511200000E-02  2.395784008E-02
 
[MO]
Sym=     1a  
Ene=   -20.6430
Spin= Alpha
Occup=    1.00000
   1        -0.00000779
   2        -0.00010718
   3        -0.00000000
   4         0.00000000
   5        -0.00010313
   6         1.00000083
   7        -0.00018366
   8         0.00000000
   9         0.00000000
  10        -0.00013053
Sym=     1a  
Ene=   -20.6430
Spin= Beta
Occup=    1.00000
   1        -0.00000567
   2        -0.00010004
   3        -0.00000000
   4         0.00000000
   5        -0.00009350
   6         1.00000076
   7        -0.00015109
   8         0.00000000
   9         0.00000000
  10        -0.00012088
Sym=     2a  
Ene=   -15.6640
Spin= Alpha
Occup=    1.00000
   1         0.99999183
   2        -0.00472735
   3        -0.00000000
   4        -0.00000000
   5         0.00021822
   6        -0.00002980
   7        -0.00033601
   8        -0.00000000
   9         0.00000000
  10         0.00032507
Sym=     2a  
Ene=   -15.6320
Spin= Beta
Occup=    1.00000
   1         0.99997700
   2        -0.00702181
   3        -0.00000000
   4         0.00000000
   5         0.00018046
   6        -0.00002663
   7        -0.00023736
   8        -0.00000000
   9         0.00000000
  10         0.00017316
Sym=     3a  
Ene=    -1.2181
Spin= Alpha
Occup=    1.00000
   1        -0.00101516
   2         0.10946222
   3         0.00000000
   4         0.00000000
   5         0.03010321
   6        -0.00022130
   7         0.98545813
   8         0.00000000
   9        -0.00000000
  10        -0.00230643
Sym=     3a  
Ene=    -1.2201
Spin= Beta
Occup=    1.00000
   1        -0.00108613
   2         0.05683291
   3         0.00000000
   4        -0.00000000
   5         0.02897405
   6        -0.00013220
   7         0.99264012
   8         0.00000000
   9         0.00000000
  10         0.00362842
Sym=     4a  
Ene=    -1.0436
Spin= Alpha
Occup=    1.00000
   1         0.00482528
   2         0.99265411
   3        -0.00000000
   4        -0.00000000
   5         0.00788276
   6        -0.00224389
   7        -0.15971796
   8        -0.00000000
   9        -0.00000000
  10        -0.02190921
Sym=     4a  
Ene=    -0.9013
Spin= Beta
Occup=    1.00000
   1         0.00687479
   2         0.99455941
   3         0.00000000
   4         0.00000000
   5         0.00286969
   6        -0.00221378
   7        -0.10586992
   8         0.00000000
   9         0.00000000
  10        -0.04098979
Sym=     5a  
Ene=    -0.5731
Spin= Alpha
Occup=    1.00000
   1         0.00000000
   2         0.00000000
   3         0.80193223
   4         0.46006379
   5         0.00000000
   6        -0.00000000
   7        -0.00000000
   8         0.30055012
   9         0.17242383
  10         0.00000000
Sym=     5a  
Ene=    -0.5383
Spin= Beta
Occup=    1.00000
   1        -0.00000000
   2        -0.00000000
   3        -0.01148545
   4         0.02002017
   5         0.00000000
   6        -0.00000000
   7        -0.00000000
   8        -0.49703576
   9         0.86637766
  10        -0.00000000
Sym=     6a  
Ene=    -0.5374
Spin= Alpha
Occup=    1.00000
   1         0.00000000
   2         0.00000000
   3        -0.01319024
   4         0.02299176
   5        -0.00000000
   6         0.00000000
   7         0.00000000
   8        -0.49692653
   9         0.86618726
  10         0.00000000
Sym=     6a  
Ene=    -0.5375
Spin= Beta
Occup=    1.00000
   1        -0.00000000
   2        -0.00000000
   3         0.01554864
   4         0.00892017
   5         0.00000000
   6        -0.00000000
   7        -0.00000000
   8         0.86664500
   9         0.49718912
  10        -0.00000000
Sym=     7a  
Ene=    -0.5319
Spin= Alpha
Occup=    1.00000
   1         0.00000000
   2         0.00000000
   3        -0.33233093
   4        -0.19065630
   5        -0.00000000
   6         0.00000000
   7         0.00000000
   8         0.81437631
   9         0.46720289
  10         0.00000000
Sym=     7a  
Ene=    -0.4488
Spin= Beta
Occup=    1.00000
   1        -0.00161127
   2        -0.03260680
   3        -0.00000000
   4        -0.00000000
   5         0.96177081
   6        -0.00565488
   7        -0.10930259
   8        -0.00000000
   9        -0.00000000
  10        -0.19380563
Sym=     8a  
Ene=    -0.4937
Spin= Alpha
Occup=    1.00000
   1         0.00116262
   2         0.02718546
   3         0.00000000
   4        -0.00000000
   5        -0.97610763
   6         0.00574125
   7         0.11314617
   8        -0.00000000
   9        -0.00000000
  10         0.14360377
Sym=     8a  
Ene=     0.0721
Spin= Beta
Occup=    0.00000
   1         0.00826704
   2         0.14135614
   3         0.00000000
   4        -0.00000000
   5         0.31074295
   6        -0.00205618
   7        -0.04546783
   8         0.00000000
   9         0.00000000
  10         0.99302766
Sym=     9a  
Ene=     0.0507
Spin= Alpha
Occup=    0.00000
   1         0.00000000
   2         0.00000000
   3        -0.49782982
   4         0.86776179
   5        -0.00000000
   6         0.00000000
   7         0.00000000
   8         0.03274973
   9        -0.05708569
  10         0.00000000
Sym=     9a  
Ene=     0.0889
Spin= Beta
Occup=    0.00000
   1         0.00000000
   2         0.00000000
   3        -0.49787207
   4         0.86783544
   5         0.00000000
   6        -0.00000000
   7        -0.00000000
   8         0.03104792
   9        -0.05411930
  10         0.00000000
Sym=    10a  
Ene=     0.0791
Spin= Alpha
Occup=    0.00000
   1         0.00800346
   2         0.12396332
   3         0.00000000
   4        -0.00000000
   5         0.26202582
   6        -0.00171647
   7        -0.03342964
   8        -0.00000000
   9        -0.00000000
  10         1.00212296
Sym=    10a  
Ene=     0.1626
Spin= Beta
Occup=    0.00000
   1         0.00000000
   2         0.00000000
   3         0.86792706
   4         0.49792464
   5         0.00000000
   6        -0.00000000
   7        -0.00000000
   8        -0.04965483
   9        -0.02848668
  10         0.00000000
