[Molden Format]
[N_Atoms]
                     2
[Atoms] (AU)
N1          1      7           0.00000000      0.00000000      0.00000000
N2          2      7           0.00000000      0.00000000      1.13383567
[Charge] (Mulliken)
 -7.265299473147024E-013
  7.238654120556021E-013
[GTO] (AU)
   1
   s  14
  7.476171500E+04  1.182599996E-04
  1.112365400E+04  5.172899983E-04
  2.512685700E+03  2.266659992E-03
  7.037772900E+02  9.145289970E-03
  2.254787900E+02  3.239342989E-02
  7.961581000E+01  9.770792967E-02
  3.023728300E+01  2.317036792E-01
  1.226362200E+01  3.768898887E-01
  5.265086000E+00  3.177420689E-01
  2.333471000E+00  8.211308973E-02
  9.018560000E-01  3.312089989E-03
  3.583360000E-01  3.720819988E-03
  1.410930000E-01  3.165419989E-03
  4.938300000E-02  4.595799985E-04
   s  14
  7.476171500E+04 -2.707000010E-05
  1.112365400E+04 -1.183700004E-04
  2.512685700E+03 -5.203800020E-04
  7.037772900E+02 -2.102930008E-03
  2.254787900E+02 -7.568200028E-03
  7.961581000E+01 -2.346767009E-02
  3.023728300E+01 -6.042901023E-02
  1.226362200E+01 -1.170549104E-01
  5.265086000E+00 -1.555321506E-01
  2.333471000E+00 -2.468935009E-02
  9.018560000E-01  3.625054514E-01
  3.583360000E-01  5.550845021E-01
  1.410930000E-01  2.148376908E-01
  4.938300000E-02  8.983850034E-03
   p   9
  1.266665700E+02  1.233630000E-03
  2.983738900E+01  9.493409996E-03
  9.394038000E+00  4.293961998E-02
  3.405104000E+00  1.362925399E-01
  1.350000000E+00  2.921362499E-01
  5.576960000E-01  3.887887598E-01
  2.324490000E-01  2.946801399E-01
  9.426400000E-02  8.012875997E-02
  3.299200000E-02  5.405199998E-04
 
   2
   s  14
  7.476171500E+04  1.182599996E-04
  1.112365400E+04  5.172899983E-04
  2.512685700E+03  2.266659992E-03
  7.037772900E+02  9.145289970E-03
  2.254787900E+02  3.239342989E-02
  7.961581000E+01  9.770792967E-02
  3.023728300E+01  2.317036792E-01
  1.226362200E+01  3.768898887E-01
  5.265086000E+00  3.177420689E-01
  2.333471000E+00  8.211308973E-02
  9.018560000E-01  3.312089989E-03
  3.583360000E-01  3.720819988E-03
  1.410930000E-01  3.165419989E-03
  4.938300000E-02  4.595799985E-04
   s  14
  7.476171500E+04 -2.707000010E-05
  1.112365400E+04 -1.183700004E-04
  2.512685700E+03 -5.203800020E-04
  7.037772900E+02 -2.102930008E-03
  2.254787900E+02 -7.568200028E-03
  7.961581000E+01 -2.346767009E-02
  3.023728300E+01 -6.042901023E-02
  1.226362200E+01 -1.170549104E-01
  5.265086000E+00 -1.555321506E-01
  2.333471000E+00 -2.468935009E-02
  9.018560000E-01  3.625054514E-01
  3.583360000E-01  5.550845021E-01
  1.410930000E-01  2.148376908E-01
  4.938300000E-02  8.983850034E-03
   p   9
  1.266665700E+02  1.233630000E-03
  2.983738900E+01  9.493409996E-03
  9.394038000E+00  4.293961998E-02
  3.405104000E+00  1.362925399E-01
  1.350000000E+00  2.921362499E-01
  5.576960000E-01  3.887887598E-01
  2.324490000E-01  2.946801399E-01
  9.426400000E-02  8.012875997E-02
  3.299200000E-02  5.405199998E-04
 
[MO]
Sym=     1a  
Ene=   -16.5980
Spin= Alpha
Occup=    1.00000
   1         0.69660183
   2        -0.00588635
   3         0.00000000
   4         0.00000000
   5         0.01698153
   6         0.69660183
   7        -0.00588635
   8         0.00000000
   9        -0.00000000
  10        -0.01698153
Sym=     1a  
Ene=   -16.5980
Spin= Beta
Occup=    1.00000
   1         0.69660183
   2        -0.00588635
   3         0.00000000
   4         0.00000000
   5         0.01698153
   6         0.69660183
   7        -0.00588635
   8         0.00000000
   9        -0.00000000
  10        -0.01698153
Sym=     2a  
Ene=   -16.3460
Spin= Alpha
Occup=    1.00000
   1        -0.72363242
   2        -0.02760820
   3         0.00000000
   4        -0.00000000
   5        -0.01609986
   6         0.72363242
   7         0.02760820
   8         0.00000000
   9        -0.00000000
  10        -0.01609986
Sym=     2a  
Ene=   -16.3460
Spin= Beta
Occup=    1.00000
   1        -0.72363242
   2        -0.02760820
   3         0.00000000
   4        -0.00000000
   5        -0.01609986
   6         0.72363242
   7         0.02760820
   8         0.00000000
   9        -0.00000000
  10        -0.01609986
Sym=     3a  
Ene=    -1.9293
Spin= Alpha
Occup=    1.00000
   1         0.18294261
   2        -0.35492334
   3        -0.00000000
   4         0.00000000
   5        -0.45667570
   6         0.18294261
   7        -0.35492334
   8        -0.00000000
   9        -0.00000000
  10         0.45667570
Sym=     3a  
Ene=    -1.9293
Spin= Beta
Occup=    1.00000
   1         0.18294261
   2        -0.35492334
   3        -0.00000000
   4         0.00000000
   5        -0.45667570
   6         0.18294261
   7        -0.35492334
   8        -0.00000000
   9        -0.00000000
  10         0.45667570
Sym=     4a  
Ene=    -1.1627
Spin= Alpha
Occup=    1.00000
   1         0.00000000
   2         0.00000000
   3         0.42689804
   4         0.34527045
   5        -0.00000000
   6         0.00000000
   7         0.00000000
   8         0.42689804
   9         0.34527045
  10         0.00000000
Sym=     4a  
Ene=    -1.1627
Spin= Beta
Occup=    1.00000
   1         0.00000000
   2         0.00000000
   3         0.42689804
   4         0.34527045
   5        -0.00000000
   6         0.00000000
   7         0.00000000
   8         0.42689804
   9         0.34527045
  10         0.00000000
Sym=     5a  
Ene=    -1.1627
Spin= Alpha
Occup=    1.00000
   1        -0.00000000
   2         0.00000000
   3        -0.34527045
   4         0.42689804
   5         0.00000000
   6        -0.00000000
   7        -0.00000000
   8        -0.34527045
   9         0.42689804
  10        -0.00000000
Sym=     5a  
Ene=    -1.1627
Spin= Beta
Occup=    1.00000
   1        -0.00000000
   2         0.00000000
   3        -0.34527045
   4         0.42689804
   5         0.00000000
   6        -0.00000000
   7        -0.00000000
   8        -0.34527045
   9         0.42689804
  10        -0.00000000
Sym=     6a  
Ene=    -0.8519
Spin= Alpha
Occup=    1.00000
   1         0.12308303
   2         0.45484705
   3        -0.00000000
   4        -0.00000000
   5        -0.74244220
   6         0.12308303
   7         0.45484705
   8        -0.00000000
   9        -0.00000000
  10         0.74244220
Sym=     6a  
Ene=    -0.8519
Spin= Beta
Occup=    1.00000
   1         0.12308303
   2         0.45484705
   3        -0.00000000
   4        -0.00000000
   5        -0.74244220
   6         0.12308303
   7         0.45484705
   8        -0.00000000
   9        -0.00000000
  10         0.74244220
Sym=     7a  
Ene=    -0.7877
Spin= Alpha
Occup=    1.00000
   1        -0.01124577
   2        -0.61987256
   3         0.00000000
   4        -0.00000000
   5         0.39508558
   6         0.01124577
   7         0.61987256
   8        -0.00000000
   9         0.00000000
  10         0.39508558
Sym=     7a  
Ene=    -0.7877
Spin= Beta
Occup=    1.00000
   1        -0.01124577
   2        -0.61987256
   3         0.00000000
   4        -0.00000000
   5         0.39508558
   6         0.01124577
   7         0.61987256
   8        -0.00000000
   9         0.00000000
  10         0.39508558
Sym=     8a  
Ene=     0.5442
Spin= Alpha
Occup=    0.00000
   1        -0.00000000
   2        -0.00000000
   3        -1.20767755
   4        -0.07874632
   5        -0.00000000
   6         0.00000000
   7         0.00000000
   8         1.20767755
   9         0.07874632
  10         0.00000000
Sym=     8a  
Ene=     0.5442
Spin= Beta
Occup=    0.00000
   1        -0.00000000
   2        -0.00000000
   3        -1.20767755
   4        -0.07874632
   5        -0.00000000
   6         0.00000000
   7         0.00000000
   8         1.20767755
   9         0.07874632
  10         0.00000000
Sym=     9a  
Ene=     0.5442
Spin= Alpha
Occup=    0.00000
   1        -0.00000000
   2        -0.00000000
   3         0.07874632
   4        -1.20767755
   5        -0.00000000
   6         0.00000000
   7         0.00000000
   8        -0.07874632
   9         1.20767755
  10        -0.00000000
Sym=     9a  
Ene=     0.5442
Spin= Beta
Occup=    0.00000
   1        -0.00000000
   2        -0.00000000
   3         0.07874632
   4        -1.20767755
   5        -0.00000000
   6         0.00000000
   7         0.00000000
   8        -0.07874632
   9         1.20767755
  10        -0.00000000
Sym=    10a  
Ene=     4.3284
Spin= Alpha
Occup=    0.00000
   1         1.82474688
   2         6.09995582
   3        -0.00000000
   4        -0.00000000
   5         2.73399013
   6        -1.82474688
   7        -6.09995582
   8         0.00000000
   9         0.00000000
  10         2.73399013
Sym=    10a  
Ene=     4.3284
Spin= Beta
Occup=    0.00000
   1         1.82474688
   2         6.09995582
   3        -0.00000000
   4        -0.00000000
   5         2.73399013
   6        -1.82474688
   7        -6.09995582
   8         0.00000000
   9         0.00000000
  10         2.73399013
