[Molden Format]
[N_Atoms]
                     2
[Atoms] (AU)
N1          1      7           0.00000000      0.00000000      0.00000000
N2          2      7           0.00000000      0.00000000      1.13383567
[Charge] (Mulliken)
 -7.185363415374013E-013
  7.247535904753022E-013
[GTO] (AU)
   1
   s  14
  7.476171500E+04  1.182599996E-04
  1.112365400E+04  5.172899983E-04
  2.512685700E+03  2.266659992E-03
  7.037772900E+02  9.145289970E-03
  2.254787900E+02  3.239342989E-02
  7.961581000E+01  9.770792967E-02
  3.023728300E+01  2.317036792E-01
  1.226362200E+01  3.768898887E-01
  5.265086000E+00  3.177420689E-01
  2.333471000E+00  8.211308973E-02
  9.018560000E-01  3.312089989E-03
  3.583360000E-01  3.720819988E-03
  1.410930000E-01  3.165419989E-03
  4.938300000E-02  4.595799985E-04
   s  14
  7.476171500E+04 -2.707000010E-05
  1.112365400E+04 -1.183700004E-04
  2.512685700E+03 -5.203800020E-04
  7.037772900E+02 -2.102930008E-03
  2.254787900E+02 -7.568200028E-03
  7.961581000E+01 -2.346767009E-02
  3.023728300E+01 -6.042901023E-02
  1.226362200E+01 -1.170549104E-01
  5.265086000E+00 -1.555321506E-01
  2.333471000E+00 -2.468935009E-02
  9.018560000E-01  3.625054514E-01
  3.583360000E-01  5.550845021E-01
  1.410930000E-01  2.148376908E-01
  4.938300000E-02  8.983850034E-03
   p   9
  1.266665700E+02  1.233630000E-03
  2.983738900E+01  9.493409996E-03
  9.394038000E+00  4.293961998E-02
  3.405104000E+00  1.362925399E-01
  1.350000000E+00  2.921362499E-01
  5.576960000E-01  3.887887598E-01
  2.324490000E-01  2.946801399E-01
  9.426400000E-02  8.012875997E-02
  3.299200000E-02  5.405199998E-04
 
   2
   s  14
  7.476171500E+04  1.182599996E-04
  1.112365400E+04  5.172899983E-04
  2.512685700E+03  2.266659992E-03
  7.037772900E+02  9.145289970E-03
  2.254787900E+02  3.239342989E-02
  7.961581000E+01  9.770792967E-02
  3.023728300E+01  2.317036792E-01
  1.226362200E+01  3.768898887E-01
  5.265086000E+00  3.177420689E-01
  2.333471000E+00  8.211308973E-02
  9.018560000E-01  3.312089989E-03
  3.583360000E-01  3.720819988E-03
  1.410930000E-01  3.165419989E-03
  4.938300000E-02  4.595799985E-04
   s  14
  7.476171500E+04 -2.707000010E-05
  1.112365400E+04 -1.183700004E-04
  2.512685700E+03 -5.203800020E-04
  7.037772900E+02 -2.102930008E-03
  2.254787900E+02 -7.568200028E-03
  7.961581000E+01 -2.346767009E-02
  3.023728300E+01 -6.042901023E-02
  1.226362200E+01 -1.170549104E-01
  5.265086000E+00 -1.555321506E-01
  2.333471000E+00 -2.468935009E-02
  9.018560000E-01  3.625054514E-01
  3.583360000E-01  5.550845021E-01
  1.410930000E-01  2.148376908E-01
  4.938300000E-02  8.983850034E-03
   p   9
  1.266665700E+02  1.233630000E-03
  2.983738900E+01  9.493409996E-03
  9.394038000E+00  4.293961998E-02
  3.405104000E+00  1.362925399E-01
  1.350000000E+00  2.921362499E-01
  5.576960000E-01  3.887887598E-01
  2.324490000E-01  2.946801399E-01
  9.426400000E-02  8.012875997E-02
  3.299200000E-02  5.405199998E-04
 
[MO]
Sym=     1a  
Ene=   -16.5970
Spin= Alpha
Occup=    2.00000
   1         0.69660248
   2        -0.00588502
   3         0.00000000
   4         0.00000000
   5         0.01697831
   6         0.69660248
   7        -0.00588502
   8         0.00000000
   9        -0.00000000
  10        -0.01697831
Sym=     2a  
Ene=   -16.3330
Spin= Alpha
Occup=    2.00000
   1        -0.72299362
   2        -0.00984944
   3         0.00000000
   4        -0.00000000
   5        -0.02731657
   6         0.72299362
   7         0.00984944
   8         0.00000000
   9        -0.00000000
  10        -0.02731657
Sym=     3a  
Ene=    -1.9287
Spin= Alpha
Occup=    2.00000
   1         0.18293249
   2        -0.35495817
   3        -0.00000000
   4         0.00000000
   5        -0.45661886
   6         0.18293249
   7        -0.35495817
   8         0.00000000
   9        -0.00000000
  10         0.45661886
Sym=     4a  
Ene=    -1.1624
Spin= Alpha
Occup=    2.00000
   1         0.00000000
   2         0.00000000
   3         0.54788445
   4         0.03572467
   5        -0.00000000
   6         0.00000000
   7         0.00000000
   8         0.54788445
   9         0.03572467
  10         0.00000000
Sym=     5a  
Ene=    -1.1623
Spin= Alpha
Occup=    2.00000
   1         0.00000000
   2         0.00000000
   3        -0.03572467
   4         0.54788445
   5        -0.00000000
   6        -0.00000000
   7        -0.00000000
   8        -0.03572467
   9         0.54788445
  10         0.00000000
Sym=     6a  
Ene=    -0.8514
Spin= Alpha
Occup=    2.00000
   1         0.12309445
   2         0.45481989
   3        -0.00000000
   4        -0.00000000
   5        -0.74247723
   6         0.12309445
   7         0.45481989
   8        -0.00000000
   9        -0.00000000
  10         0.74247723
Sym=     7a  
Ene=    -0.7992
Spin= Alpha
Occup=    1.99539
   1        -0.03273957
   2        -0.62333312
   3        -0.00000000
   4        -0.00000000
   5         0.39315496
   6         0.03273957
   7         0.62333312
   8         0.00000000
   9         0.00000000
  10         0.39315496
Sym=     8a  
Ene=     0.0000
Spin= Alpha
Occup=    0.00461
   1        -0.00000000
   2         0.00000000
   3        -1.20767755
   4        -0.07874632
   5        -0.00000000
   6         0.00000000
   7         0.00000000
   8         1.20767755
   9         0.07874632
  10        -0.00000000
Sym=     9a  
Ene=     0.5446
Spin= Alpha
Occup=    0.00000
   1        -0.00000000
   2        -0.00000000
   3         0.07874632
   4        -1.20767755
   5        -0.00000000
   6         0.00000000
   7         0.00000000
   8        -0.07874632
   9         1.20767755
  10        -0.00000000
Sym=    10a  
Ene=     4.3288
Spin= Alpha
Occup=    0.00000
   1         1.82474104
   2         6.09965770
   3        -0.00000000
   4        -0.00000000
   5         2.73417937
   6        -1.82474104
   7        -6.09965770
   8         0.00000000
   9         0.00000000
  10         2.73417937
