[Molden Format]
[N_Atoms]
                     2
[Atoms] (AU)
N1          1      7           0.00000000      0.00000000      0.00000000
N2          2      7           0.00000000      0.00000000      1.13383567
[Charge] (Mulliken)
  0.999999999999080     
   1.00000000000091     
[GTO] (AU)
   1
   s  14
  7.476171500E+04  1.182599996E-04
  1.112365400E+04  5.172899983E-04
  2.512685700E+03  2.266659992E-03
  7.037772900E+02  9.145289970E-03
  2.254787900E+02  3.239342989E-02
  7.961581000E+01  9.770792967E-02
  3.023728300E+01  2.317036792E-01
  1.226362200E+01  3.768898887E-01
  5.265086000E+00  3.177420689E-01
  2.333471000E+00  8.211308973E-02
  9.018560000E-01  3.312089989E-03
  3.583360000E-01  3.720819988E-03
  1.410930000E-01  3.165419989E-03
  4.938300000E-02  4.595799985E-04
   s  14
  7.476171500E+04 -2.707000010E-05
  1.112365400E+04 -1.183700004E-04
  2.512685700E+03 -5.203800020E-04
  7.037772900E+02 -2.102930008E-03
  2.254787900E+02 -7.568200028E-03
  7.961581000E+01 -2.346767009E-02
  3.023728300E+01 -6.042901023E-02
  1.226362200E+01 -1.170549104E-01
  5.265086000E+00 -1.555321506E-01
  2.333471000E+00 -2.468935009E-02
  9.018560000E-01  3.625054514E-01
  3.583360000E-01  5.550845021E-01
  1.410930000E-01  2.148376908E-01
  4.938300000E-02  8.983850034E-03
   p   9
  1.266665700E+02  1.233630000E-03
  2.983738900E+01  9.493409996E-03
  9.394038000E+00  4.293961998E-02
  3.405104000E+00  1.362925399E-01
  1.350000000E+00  2.921362499E-01
  5.576960000E-01  3.887887598E-01
  2.324490000E-01  2.946801399E-01
  9.426400000E-02  8.012875997E-02
  3.299200000E-02  5.405199998E-04
 
   2
   s  14
  7.476171500E+04  1.182599996E-04
  1.112365400E+04  5.172899983E-04
  2.512685700E+03  2.266659992E-03
  7.037772900E+02  9.145289970E-03
  2.254787900E+02  3.239342989E-02
  7.961581000E+01  9.770792967E-02
  3.023728300E+01  2.317036792E-01
  1.226362200E+01  3.768898887E-01
  5.265086000E+00  3.177420689E-01
  2.333471000E+00  8.211308973E-02
  9.018560000E-01  3.312089989E-03
  3.583360000E-01  3.720819988E-03
  1.410930000E-01  3.165419989E-03
  4.938300000E-02  4.595799985E-04
   s  14
  7.476171500E+04 -2.707000010E-05
  1.112365400E+04 -1.183700004E-04
  2.512685700E+03 -5.203800020E-04
  7.037772900E+02 -2.102930008E-03
  2.254787900E+02 -7.568200028E-03
  7.961581000E+01 -2.346767009E-02
  3.023728300E+01 -6.042901023E-02
  1.226362200E+01 -1.170549104E-01
  5.265086000E+00 -1.555321506E-01
  2.333471000E+00 -2.468935009E-02
  9.018560000E-01  3.625054514E-01
  3.583360000E-01  5.550845021E-01
  1.410930000E-01  2.148376908E-01
  4.938300000E-02  8.983850034E-03
   p   9
  1.266665700E+02  1.233630000E-03
  2.983738900E+01  9.493409996E-03
  9.394038000E+00  4.293961998E-02
  3.405104000E+00  1.362925399E-01
  1.350000000E+00  2.921362499E-01
  5.576960000E-01  3.887887598E-01
  2.324490000E-01  2.946801399E-01
  9.426400000E-02  8.012875997E-02
  3.299200000E-02  5.405199998E-04
 
[MO]
Sym=     1a  
Ene=   -18.0740
Spin= Alpha
Occup=    2.00000
   1         0.69702682
   2        -0.00703060
   3         0.00000000
   4         0.00000000
   5         0.01611192
   6         0.69702682
   7        -0.00703060
   8         0.00000000
   9        -0.00000000
  10        -0.01611192
Sym=     2a  
Ene=   -17.8260
Spin= Alpha
Occup=    2.00000
   1        -0.72121711
   2        -0.01881309
   3         0.00000000
   4        -0.00000000
   5        -0.01299562
   6         0.72121711
   7         0.01881309
   8         0.00000000
   9        -0.00000000
  10        -0.01299562
Sym=     3a  
Ene=    -3.1009
Spin= Alpha
Occup=    2.00000
   1         0.19073965
   2        -0.31583622
   3        -0.00000000
   4         0.00000000
   5        -0.51690143
   6         0.19073965
   7        -0.31583622
   8         0.00000000
   9        -0.00000000
  10         0.51690143
Sym=     4a  
Ene=    -2.2257
Spin= Alpha
Occup=    2.00000
   1         0.00000000
   2         0.00000000
   3         0.44026175
   4         0.32805977
   5        -0.00000000
   6         0.00000000
   7         0.00000000
   8         0.44026175
   9         0.32805977
  10         0.00000000
Sym=     5a  
Ene=    -2.2257
Spin= Alpha
Occup=    2.00000
   1        -0.00000000
   2         0.00000000
   3        -0.32805977
   4         0.44026175
   5         0.00000000
   6        -0.00000000
   7        -0.00000000
   8        -0.32805977
   9         0.44026175
  10        -0.00000000
Sym=     6a  
Ene=    -1.7282
Spin= Alpha
Occup=    1.35775
   1         0.10790527
   2         0.48279304
   3        -0.00000000
   4        -0.00000000
   5        -0.70186523
   6         0.10790527
   7         0.48279304
   8        -0.00000000
   9        -0.00000000
  10         0.70186523
Sym=     7a  
Ene=    -0.0085
Spin= Alpha
Occup=    0.64225
   1         0.00830558
   2        -0.55153554
   3         0.00000000
   4        -0.00000000
   5         0.42566680
   6        -0.00830558
   7         0.55153554
   8        -0.00000000
   9         0.00000000
  10         0.42566680
Sym=     8a  
Ene=    -0.5999
Spin= Alpha
Occup=    0.00000
   1        -0.00000000
   2        -0.00000000
   3        -1.19437806
   4        -0.19531286
   5        -0.00000000
   6         0.00000000
   7         0.00000000
   8         1.19437806
   9         0.19531286
  10         0.00000000
Sym=     9a  
Ene=    -0.5999
Spin= Alpha
Occup=    0.00000
   1        -0.00000000
   2        -0.00000000
   3         0.19531286
   4        -1.19437806
   5        -0.00000000
   6         0.00000000
   7         0.00000000
   8        -0.19531286
   9         1.19437806
  10        -0.00000000
Sym=    10a  
Ene=     3.1447
Spin= Alpha
Occup=    0.00000
   1         1.82571860
   2         6.10654729
   3        -0.00000000
   4        -0.00000000
   5         2.72941253
   6        -1.82571860
   7        -6.10654729
   8         0.00000000
   9         0.00000000
  10         2.72941253
