[Molden Format]
[N_Atoms]
                     2
[Atoms] (AU)
N1          1      7           0.00000000      0.00000000      0.00000000
N2          2      7           0.00000000      0.00000000      1.13383567
[Charge] (Mulliken)
  0.000000000000000E+000
  0.000000000000000E+000
[GTO] (AU)
   1
   s  14
  7.476171500E+04  1.182599996E-04
  1.112365400E+04  5.172899983E-04
  2.512685700E+03  2.266659992E-03
  7.037772900E+02  9.145289970E-03
  2.254787900E+02  3.239342989E-02
  7.961581000E+01  9.770792967E-02
  3.023728300E+01  2.317036792E-01
  1.226362200E+01  3.768898887E-01
  5.265086000E+00  3.177420689E-01
  2.333471000E+00  8.211308973E-02
  9.018560000E-01  3.312089989E-03
  3.583360000E-01  3.720819988E-03
  1.410930000E-01  3.165419989E-03
  4.938300000E-02  4.595799985E-04
   s  14
  7.476171500E+04 -2.707000010E-05
  1.112365400E+04 -1.183700004E-04
  2.512685700E+03 -5.203800020E-04
  7.037772900E+02 -2.102930008E-03
  2.254787900E+02 -7.568200028E-03
  7.961581000E+01 -2.346767009E-02
  3.023728300E+01 -6.042901023E-02
  1.226362200E+01 -1.170549104E-01
  5.265086000E+00 -1.555321506E-01
  2.333471000E+00 -2.468935009E-02
  9.018560000E-01  3.625054514E-01
  3.583360000E-01  5.550845021E-01
  1.410930000E-01  2.148376908E-01
  4.938300000E-02  8.983850034E-03
   p   9
  1.266665700E+02  1.233630000E-03
  2.983738900E+01  9.493409996E-03
  9.394038000E+00  4.293961998E-02
  3.405104000E+00  1.362925399E-01
  1.350000000E+00  2.921362499E-01
  5.576960000E-01  3.887887598E-01
  2.324490000E-01  2.946801399E-01
  9.426400000E-02  8.012875997E-02
  3.299200000E-02  5.405199998E-04
 
   2
   s  14
  7.476171500E+04  1.182599996E-04
  1.112365400E+04  5.172899983E-04
  2.512685700E+03  2.266659992E-03
  7.037772900E+02  9.145289970E-03
  2.254787900E+02  3.239342989E-02
  7.961581000E+01  9.770792967E-02
  3.023728300E+01  2.317036792E-01
  1.226362200E+01  3.768898887E-01
  5.265086000E+00  3.177420689E-01
  2.333471000E+00  8.211308973E-02
  9.018560000E-01  3.312089989E-03
  3.583360000E-01  3.720819988E-03
  1.410930000E-01  3.165419989E-03
  4.938300000E-02  4.595799985E-04
   s  14
  7.476171500E+04 -2.707000010E-05
  1.112365400E+04 -1.183700004E-04
  2.512685700E+03 -5.203800020E-04
  7.037772900E+02 -2.102930008E-03
  2.254787900E+02 -7.568200028E-03
  7.961581000E+01 -2.346767009E-02
  3.023728300E+01 -6.042901023E-02
  1.226362200E+01 -1.170549104E-01
  5.265086000E+00 -1.555321506E-01
  2.333471000E+00 -2.468935009E-02
  9.018560000E-01  3.625054514E-01
  3.583360000E-01  5.550845021E-01
  1.410930000E-01  2.148376908E-01
  4.938300000E-02  8.983850034E-03
   p   9
  1.266665700E+02  1.233630000E-03
  2.983738900E+01  9.493409996E-03
  9.394038000E+00  4.293961998E-02
  3.405104000E+00  1.362925399E-01
  1.350000000E+00  2.921362499E-01
  5.576960000E-01  3.887887598E-01
  2.324490000E-01  2.946801399E-01
  9.426400000E-02  8.012875997E-02
  3.299200000E-02  5.405199998E-04
 
[MO]
Sym=     1a  
Ene=   -16.0240
Spin= Alpha
Occup=    2.00000
   1         0.69673489
   2         0.00831347
   3         0.00000000
   4         0.00000000
   5         0.00677661
   6         0.69673489
   7         0.00831347
   8        -0.00000000
   9        -0.00000000
  10        -0.00677661
Sym=     2a  
Ene=   -15.3870
Spin= Alpha
Occup=    2.00000
   1        -0.71112295
   2         0.00767237
   3         0.00000000
   4        -0.00000000
   5         0.00703873
   6         0.71112295
   7        -0.00767237
   8        -0.00000000
   9         0.00000000
  10         0.00703873
Sym=     3a  
Ene=    -1.6793
Spin= Alpha
Occup=    2.00000
   1        -0.12627965
   2         0.51637133
   3         0.00000000
   4        -0.00000000
   5         0.09153756
   6        -0.12627965
   7         0.51637133
   8        -0.00000000
   9        -0.00000000
  10        -0.09153756
Sym=     4a  
Ene=    -0.9466
Spin= Alpha
Occup=    2.00000
   1        -0.00000000
   2        -0.00000000
   3        -0.11819649
   4         0.53617461
   5        -0.00000000
   6         0.00000000
   7         0.00000000
   8        -0.11819649
   9         0.53617461
  10        -0.00000000
Sym=     5a  
Ene=    -0.9466
Spin= Alpha
Occup=    2.00000
   1         0.00000000
   2         0.00000000
   3         0.53617461
   4         0.11819649
   5        -0.00000000
   6        -0.00000000
   7        -0.00000000
   8         0.53617461
   9         0.11819649
  10        -0.00000000
Sym=     6a  
Ene=    -0.8408
Spin= Alpha
Occup=    2.00000
   1         0.07051304
   2        -0.37272816
   3         0.00000000
   4         0.00000000
   5         0.50530622
   6        -0.07051304
   7         0.37272816
   8         0.00000000
   9         0.00000000
  10         0.50530622
Sym=     7a  
Ene=    -0.3599
Spin= Alpha
Occup=    2.00000
   1         0.18023731
   2         0.25725979
   3        -0.00000000
   4         0.00000000
   5        -0.86696969
   6         0.18023731
   7         0.25725979
   8         0.00000000
   9        -0.00000000
  10         0.86696969
Sym=     8a  
Ene=    -0.1948
Spin= Alpha
Occup=    0.00000
   1         0.00000000
   2         0.00000000
   3        -1.16217663
   4        -0.33768557
   5         0.00000000
   6        -0.00000000
   7        -0.00000000
   8         1.16217663
   9         0.33768557
  10         0.00000000
Sym=     9a  
Ene=    -0.1948
Spin= Alpha
Occup=    0.00000
   1        -0.00000000
   2        -0.00000000
   3         0.33768557
   4        -1.16217663
   5        -0.00000000
   6         0.00000000
   7         0.00000000
   8        -0.33768557
   9         1.16217663
  10        -0.00000000
Sym=    10a  
Ene=    -0.0095
Spin= Alpha
Occup=    0.00000
   1         1.82833355
   2         6.12008824
   3         0.00000000
   4         0.00000000
   5         2.71581846
   6        -1.82833355
   7        -6.12008824
   8        -0.00000000
   9        -0.00000000
  10         2.71581846
