[Molden Format]
[N_Atoms]
                     2
[Atoms] (AU)
B1          1      5           0.00000000      0.00000000      0.00000000
BE2         2      4           0.00000000      0.00000000      1.70075351
[Charge] (Mulliken)
 -0.384192441386486     
  0.384192441386488     
[GTO] (AU)
   1
   s  14
  3.336021700E+04  1.039699991E-04
  4.972095200E+03  5.254399956E-04
  1.125641700E+03  2.509059979E-03
  3.164913600E+02  1.031887991E-02
  1.020072600E+02  3.636632969E-02
  3.629587300E+01  1.064607991E-01
  1.397141000E+01  2.403999880E-01
  5.741156000E+00  3.748581168E-01
  2.494268000E+00  3.100066974E-01
  1.114202000E+00  7.922455933E-02
  4.215490000E-01 -4.947589958E-03
  1.696330000E-01 -7.737119935E-03
  6.853500000E-02 -1.501079987E-03
  2.398700000E-02 -1.333299989E-04
   s  14
  3.336021700E+04 -2.030000008E-05
  4.972095200E+03 -1.025700004E-04
  1.125641700E+03 -4.911300020E-04
  3.164913600E+02 -2.026570008E-03
  1.020072600E+02 -7.261010030E-03
  3.629587300E+01 -2.197722009E-02
  1.397141000E+01 -5.408428022E-02
  5.741156000E+00 -1.022402604E-01
  2.494268000E+00 -1.423595206E-01
  1.114202000E+00 -4.658690019E-02
  4.215490000E-01  3.799402916E-01
  1.696330000E-01  5.890463624E-01
  6.853500000E-02  1.749075107E-01
  2.398700000E-02 -1.142030005E-03
   p   9
  5.500000000E+01  1.229800005E-03
  1.336610100E+01  8.827380035E-03
  4.135394000E+00  3.843340015E-02
  1.481256000E+00  1.150031805E-01
  6.021360000E-01  2.733674011E-01
  2.556360000E-01  4.061972116E-01
  1.111510000E-01  3.014967912E-01
  4.764800000E-02  7.684809030E-02
  1.667700000E-02 -8.170000032E-06
 
   2
   s  14
  2.262859900E+04  8.443999941E-05
  3.372318100E+03  4.601499968E-04
  7.603504000E+02  2.285389984E-03
  2.117404800E+02  9.648129932E-03
  6.722346800E+01  3.494469975E-02
  2.337217700E+01  1.061099893E-01
  8.721373000E+00  2.458240383E-01
  3.468091000E+00  3.862428773E-01
  1.452144000E+00  3.105526078E-01
  6.086150000E-01  6.415933955E-02
  2.576860000E-01 -2.265049984E-03
  1.041760000E-01 -5.217499963E-04
  4.242700000E-02 -8.757499938E-04
  1.484900000E-02  1.242199991E-04
   s  14
  2.262859900E+04 -1.586999994E-05
  3.372318100E+03 -8.656999968E-05
  7.603504000E+02 -4.302199984E-04
  2.117404800E+02 -1.825079993E-03
  6.722346800E+01 -6.682749976E-03
  2.337217700E+01 -2.095119992E-02
  8.721373000E+00 -5.200308981E-02
  3.468091000E+00 -9.849176964E-02
  1.452144000E+00 -1.355800695E-01
  6.086150000E-01 -6.429875976E-02
  2.576860000E-01  3.125414989E-01
  1.041760000E-01  6.270468577E-01
  4.242700000E-02  2.110231492E-01
  1.484900000E-02 -4.104669985E-03
   p   9
  3.371018400E+01  1.069960000E-03
  8.057649500E+00  6.828550001E-03
  2.836471400E+00  2.119065000E-02
  1.099965700E+00  5.843696001E-02
  4.433964000E-01  2.020920800E-01
  1.822264000E-01  4.582953101E-01
  7.572410000E-02  3.691239601E-01
  3.168540000E-02  6.611471001E-02
  1.108990000E-02  1.405160000E-03
 
[MO]
Sym=     1a  
Ene=    -7.8972
Spin= Alpha
Occup=    2.00000
   1         1.00014144
   2         0.02113706
   3        -0.00000000
   4        -0.00000000
   5         0.00892982
   6         0.01058120
   7        -0.00726672
   8         0.00000000
   9         0.00000000
  10        -0.00120912
Sym=     2a  
Ene=    -5.0634
Spin= Alpha
Occup=    2.00000
   1        -0.04290692
   2         0.00895459
   3        -0.00000000
   4        -0.00000000
   5         0.01552316
   6         0.99296767
   7        -0.00764477
   8         0.00000000
   9         0.00000000
  10        -0.00885027
Sym=     3a  
Ene=    -0.6058
Spin= Alpha
Occup=    2.00000
   1        -0.08057150
   2         0.72251757
   3         0.00000000
   4         0.00000000
   5         0.17835467
   6        -0.22720800
   7         0.24094427
   8        -0.00000000
   9        -0.00000000
  10        -0.18978318
Sym=     4a  
Ene=    -0.3977
Spin= Alpha
Occup=    2.00000
   1         0.00000000
   2         0.00000000
   3         0.59262876
   4        -0.30938152
   5         0.00000000
   6        -0.00000000
   7        -0.00000000
   8         0.36207995
   9        -0.18902364
  10        -0.00000000
Sym=     5a  
Ene=    -0.2451
Spin= Alpha
Occup=    1.00000
   1        -0.00000000
   2        -0.00000000
   3         0.32298161
   4         0.61868011
   5         0.00000000
   6         0.00000000
   7         0.00000000
   8         0.17410074
   9         0.33349473
  10        -0.00000000
Sym=     6a  
Ene=    -0.0000
Spin= Alpha
Occup=    0.00000
   1         0.06912632
   2        -0.16750892
   3         0.00000000
   4        -0.00000000
   5         0.20040287
   6        -0.02597061
   7         0.57385641
   8        -0.00000000
   9         0.00000000
  10         0.68801328
Sym=     7a  
Ene=     0.1345
Spin= Alpha
Occup=    0.00000
   1         0.12067973
   2         0.36020584
   3        -0.00000000
   4         0.00000000
   5        -1.09538636
   6         0.28402488
   7         0.17528922
   8         0.00000000
   9         0.00000000
  10         0.71401668
Sym=     8a  
Ene=     0.3297
Spin= Alpha
Occup=    0.00000
   1        -0.00000000
   2        -0.00000000
   3        -1.10503043
   4         0.57688053
   5         0.00000000
   6         0.00000000
   7         0.00000000
   8         1.20049957
   9        -0.62672014
  10        -0.00000000
Sym=     9a  
Ene=     0.3345
Spin= Alpha
Occup=    0.00000
   1        -0.00000000
   2        -0.00000000
   3        -0.56937769
   4        -1.09065853
   5         0.00000000
   6        -0.00000000
   7         0.00000000
   8         0.63102853
   9         1.20875240
  10        -0.00000000
Sym=    10a  
Ene=     0.7192
Spin= Alpha
Occup=    0.00000
   1        -0.88177499
   2        -3.88126799
   3         0.00000000
   4        -0.00000000
   5        -0.89253047
   6         1.18332258
   7         3.41059059
   8        -0.00000000
   9        -0.00000000
  10        -2.00747069
