[Molden Format]
[N_Atoms]
                     2
[Atoms] (AU)
B1          1      5           0.00000000      0.00000000      0.00000000
BE2         2      4           0.00000000      0.00000000      1.70075351
[Charge] (Mulliken)
 -0.477526407798639     
  0.477526407798612     
[GTO] (AU)
   1
   s  14
  3.336021700E+04  1.039699991E-04
  4.972095200E+03  5.254399956E-04
  1.125641700E+03  2.509059979E-03
  3.164913600E+02  1.031887991E-02
  1.020072600E+02  3.636632969E-02
  3.629587300E+01  1.064607991E-01
  1.397141000E+01  2.403999880E-01
  5.741156000E+00  3.748581168E-01
  2.494268000E+00  3.100066974E-01
  1.114202000E+00  7.922455933E-02
  4.215490000E-01 -4.947589958E-03
  1.696330000E-01 -7.737119935E-03
  6.853500000E-02 -1.501079987E-03
  2.398700000E-02 -1.333299989E-04
   s  14
  3.336021700E+04 -2.030000008E-05
  4.972095200E+03 -1.025700004E-04
  1.125641700E+03 -4.911300020E-04
  3.164913600E+02 -2.026570008E-03
  1.020072600E+02 -7.261010030E-03
  3.629587300E+01 -2.197722009E-02
  1.397141000E+01 -5.408428022E-02
  5.741156000E+00 -1.022402604E-01
  2.494268000E+00 -1.423595206E-01
  1.114202000E+00 -4.658690019E-02
  4.215490000E-01  3.799402916E-01
  1.696330000E-01  5.890463624E-01
  6.853500000E-02  1.749075107E-01
  2.398700000E-02 -1.142030005E-03
   p   9
  5.500000000E+01  1.229800005E-03
  1.336610100E+01  8.827380035E-03
  4.135394000E+00  3.843340015E-02
  1.481256000E+00  1.150031805E-01
  6.021360000E-01  2.733674011E-01
  2.556360000E-01  4.061972116E-01
  1.111510000E-01  3.014967912E-01
  4.764800000E-02  7.684809030E-02
  1.667700000E-02 -8.170000032E-06
 
   2
   s  14
  2.262859900E+04  8.443999941E-05
  3.372318100E+03  4.601499968E-04
  7.603504000E+02  2.285389984E-03
  2.117404800E+02  9.648129932E-03
  6.722346800E+01  3.494469975E-02
  2.337217700E+01  1.061099893E-01
  8.721373000E+00  2.458240383E-01
  3.468091000E+00  3.862428773E-01
  1.452144000E+00  3.105526078E-01
  6.086150000E-01  6.415933955E-02
  2.576860000E-01 -2.265049984E-03
  1.041760000E-01 -5.217499963E-04
  4.242700000E-02 -8.757499938E-04
  1.484900000E-02  1.242199991E-04
   s  14
  2.262859900E+04 -1.586999994E-05
  3.372318100E+03 -8.656999968E-05
  7.603504000E+02 -4.302199984E-04
  2.117404800E+02 -1.825079993E-03
  6.722346800E+01 -6.682749976E-03
  2.337217700E+01 -2.095119992E-02
  8.721373000E+00 -5.200308981E-02
  3.468091000E+00 -9.849176964E-02
  1.452144000E+00 -1.355800695E-01
  6.086150000E-01 -6.429875976E-02
  2.576860000E-01  3.125414989E-01
  1.041760000E-01  6.270468577E-01
  4.242700000E-02  2.110231492E-01
  1.484900000E-02 -4.104669985E-03
   p   9
  3.371018400E+01  1.069960000E-03
  8.057649500E+00  6.828550001E-03
  2.836471400E+00  2.119065000E-02
  1.099965700E+00  5.843696001E-02
  4.433964000E-01  2.020920800E-01
  1.822264000E-01  4.582953101E-01
  7.572410000E-02  3.691239601E-01
  3.168540000E-02  6.611471001E-02
  1.108990000E-02  1.405160000E-03
 
[MO]
Sym=     1a  
Ene=    -7.9929
Spin= Alpha
Occup=    1.00000
   1         1.00065966
   2         0.02412153
   3         0.00000000
   4         0.00000000
   5         0.01185532
   6         0.00848518
   7        -0.01003198
   8        -0.00000000
   9        -0.00000000
  10        -0.00062239
Sym=     1a  
Ene=    -7.9814
Spin= Beta
Occup=    1.00000
   1         1.00033746
   2         0.02025913
   3        -0.00000000
   4        -0.00000000
   5         0.01078588
   6         0.00928483
   7        -0.00810780
   8         0.00000000
   9         0.00000000
  10        -0.00108270
Sym=     2a  
Ene=    -5.0589
Spin= Alpha
Occup=    1.00000
   1        -0.04321655
   2         0.00958210
   3         0.00000000
   4         0.00000000
   5         0.01902613
   6         0.99163872
   7        -0.00901773
   8        -0.00000000
   9        -0.00000000
  10        -0.01324380
Sym=     2a  
Ene=    -5.0553
Spin= Beta
Occup=    1.00000
   1        -0.04285650
   2         0.00671416
   3        -0.00000000
   4        -0.00000000
   5         0.01729872
   6         0.99288681
   7        -0.00834592
   8         0.00000000
   9         0.00000000
  10        -0.01330239
Sym=     3a  
Ene=    -0.7131
Spin= Alpha
Occup=    1.00000
   1        -0.05685647
   2         0.83994011
   3         0.00000000
   4         0.00000000
   5         0.22671688
   6        -0.27236288
   7         0.11946920
   8        -0.00000000
   9        -0.00000000
  10        -0.15249352
Sym=     3a  
Ene=    -0.6185
Spin= Beta
Occup=    1.00000
   1        -0.05435580
   2         0.83508447
   3        -0.00000000
   4        -0.00000000
   5         0.19412609
   6        -0.25783890
   7         0.14059913
   8         0.00000000
   9         0.00000000
  10        -0.13559836
Sym=     4a  
Ene=    -0.5011
Spin= Alpha
Occup=    1.00000
   1         0.00000000
   2         0.00000000
   3        -0.00956654
   4         0.77185647
   5        -0.00000000
   6         0.00000000
   7        -0.00000000
   8        -0.00361923
   9         0.29201024
  10         0.00000000
Sym=     4a  
Ene=    -0.2656
Spin= Beta
Occup=    1.00000
   1        -0.02679523
   2        -0.46118379
   3         0.00000000
   4         0.00000000
   5         0.58357907
   6        -0.08588318
   7         0.61079490
   8         0.00000000
   9         0.00000000
  10         0.25252149
Sym=     5a  
Ene=    -0.2812
Spin= Alpha
Occup=    1.00000
   1        -0.02919941
   2        -0.49148812
   3        -0.00000001
   4        -0.00000000
   5         0.53453601
   6        -0.06306088
   7         0.65975457
   8        -0.00000000
   9        -0.00000000
  10         0.27148788
Sym=     5a  
Ene=    -0.1273
Spin= Beta
Occup=    0.00000
   1         0.00000000
   2         0.00000000
   3         0.62222858
   4         0.00771202
   5        -0.00000000
   6         0.00000000
   7        -0.00000000
   8         0.45789363
   9         0.00567522
  10        -0.00000000
Sym=     6a  
Ene=    -0.1471
Spin= Alpha
Occup=    0.00000
   1        -0.00000000
   2        -0.00000000
   3         0.63493008
   4         0.00786945
   5         0.00000000
   6        -0.00000000
   7         0.00000001
   8         0.44445569
   9         0.00550867
  10         0.00000000
Sym=     6a  
Ene=    -0.0886
Spin= Beta
Occup=    0.00000
   1         0.00000000
   2         0.00000000
   3        -0.00735887
   4         0.59373531
   5        -0.00000000
   6         0.00000000
   7        -0.00000000
   8        -0.00604386
   9         0.48763629
  10        -0.00000000
Sym=     7a  
Ene=     0.0462
Spin= Alpha
Occup=    0.00000
   1         0.09598241
   2         0.11757198
   3         0.00000000
   4         0.00000000
   5        -0.98523934
   6         0.30735203
   7         0.53190085
   8        -0.00000000
   9        -0.00000000
  10         0.81467368
Sym=     7a  
Ene=     0.0590
Spin= Beta
Occup=    0.00000
   1         0.10284806
   2         0.10297354
   3        -0.00000000
   4        -0.00000000
   5        -0.96102878
   6         0.30228695
   7         0.52927110
   8         0.00000000
   9         0.00000000
  10         0.84559079
Sym=     8a  
Ene=     0.2701
Spin= Alpha
Occup=    0.00000
   1         0.00000000
   2         0.00000000
   3         0.01468982
   4        -1.18521705
   5        -0.00000000
   6         0.00000000
   7         0.00000000
   8        -0.01715257
   9         1.38391903
  10         0.00000000
Sym=     8a  
Ene=     0.3246
Spin= Beta
Occup=    0.00000
   1         0.00000000
   2        -0.00000000
   3        -1.27017064
   4        -0.01574275
   5         0.00000000
   6        -0.00000000
   7        -0.00000000
   8         1.33822094
   9         0.01658618
  10        -0.00000000
Sym=     9a  
Ene=     0.3144
Spin= Alpha
Occup=    0.00000
   1        -0.00000000
   2         0.00000000
   3        -1.26386932
   4        -0.01566465
   5        -0.00000000
   6         0.00000000
   7         0.00000000
   8         1.34274384
   9         0.01664223
  10         0.00000000
Sym=     9a  
Ene=     0.3545
Spin= Beta
Occup=    0.00000
   1         0.00000000
   2        -0.00000000
   3         0.01591089
   4        -1.28373683
   5         0.00000000
   6        -0.00000000
   7        -0.00000000
   8        -0.01645543
   9         1.32767192
  10        -0.00000000
Sym=    10a  
Ene=     0.6780
Spin= Alpha
Occup=    0.00000
   1         0.88825645
   2         3.84487327
   3        -0.00000000
   4        -0.00000000
   5         0.87203551
   6        -1.16759339
   7        -3.36417621
   8         0.00000000
   9         0.00000000
  10         2.07084263
Sym=    10a  
Ene=     0.6980
Spin= Beta
Occup=    0.00000
   1         0.88810071
   2         3.85012878
   3         0.00000000
   4         0.00000000
   5         0.87551868
   6        -1.16968906
   7        -3.37301486
   8        -0.00000000
   9        -0.00000000
  10         2.06200441
