[Molden Format]
[N_Atoms]
                     2
[Atoms] (AU)
F1          1      9           0.00000000      0.00000000      0.00000000
O2          2      8           0.00000000      0.00000000      5.10226054
[Charge] (Mulliken)
 -8.731046725820590E-004
  8.731046725403147E-004
[GTO] (AU)
   1
   s  14
  1.031094600E+05  1.713099991E-04
  1.528100700E+04  7.123999962E-04
  3.441539200E+03  2.990479984E-03
  9.670948300E+02  1.164036994E-02
  3.140353400E+02  3.968642979E-02
  1.134423000E+02  1.128546094E-01
  4.464472700E+01  2.473650687E-01
  1.894287400E+01  3.672702681E-01
  8.532743000E+00  2.896286985E-01
  3.919401000E+00  7.786681959E-02
  1.568157000E+00  4.562139976E-03
  6.232900000E-01  2.468879987E-03
  2.408610000E-01  1.106309994E-03
  8.430100000E-02  1.739699991E-04
   s  14
  1.031094600E+05 -4.044999995E-05
  1.528100700E+04 -1.682299998E-04
  3.441539200E+03 -7.084299991E-04
  9.670948300E+02 -2.767999996E-03
  3.140353400E+02 -9.611379987E-03
  1.134423000E+02 -2.833957996E-02
  4.464472700E+01 -6.839343991E-02
  1.894287400E+01 -1.237379298E-01
  8.532743000E+00 -1.512859698E-01
  3.919401000E+00 -9.099909988E-03
  1.568157000E+00  3.716257695E-01
  6.232900000E-01  5.500214393E-01
  2.408610000E-01  2.092318697E-01
  8.430100000E-02  8.074639989E-03
   p   9
  2.453302900E+02  1.024860004E-03
  5.691900500E+01  8.344290032E-03
  1.760456800E+01  4.078927016E-02
  6.274995000E+00  1.351370605E-01
  2.447030000E+00  2.798830811E-01
  9.950600000E-01  3.597966414E-01
  4.039730000E-01  3.055347412E-01
  1.548100000E-01  1.354703905E-01
  5.418400000E-02  2.804449011E-02
 
   2
   s  14
  1.053749500E+05  1.238600013E-04
  1.567924000E+04  5.120100053E-04
  3.534544700E+03  2.152910022E-03
  9.873651600E+02  8.528440089E-03
  3.159787500E+02  3.018049031E-02
  1.116542800E+02  9.099702095E-02
  4.269945100E+01  2.177936423E-01
  1.739559600E+01  3.686245738E-01
  7.438309000E+00  3.366707335E-01
  3.222862000E+00  9.657630101E-02
  1.253877000E+00  2.144520022E-03
  4.951550000E-01  1.194350012E-03
  1.916650000E-01  5.390200056E-04
  6.708300000E-02  2.103400022E-04
   s  14
  1.053749500E+05 -2.815000008E-05
  1.567924000E+04 -1.163000003E-04
  3.534544700E+03 -4.909200013E-04
  9.873651600E+02 -1.946160005E-03
  3.159787500E+02 -7.005300019E-03
  1.116542800E+02 -2.167814006E-02
  4.269945100E+01 -5.641213015E-02
  1.739559600E+01 -1.127053003E-01
  7.438309000E+00 -1.589119704E-01
  3.222862000E+00 -3.355083009E-02
  1.253877000E+00  3.531902810E-01
  4.951550000E-01  5.534199315E-01
  1.916650000E-01  2.301839106E-01
  6.708300000E-02  1.127267003E-02
   p   9
  2.000000000E+02  9.173000030E-04
  4.653336700E+01  7.377140024E-03
  1.462180900E+01  3.483515011E-02
  5.313064000E+00  1.144397004E-01
  2.102525000E+00  2.554966408E-01
  8.502230000E-01  3.722557412E-01
  3.375970000E-01  3.323314911E-01
  1.288920000E-01  1.400847905E-01
  4.511200000E-02  2.395784008E-02
 
[MO]
Sym=     1a  
Ene=   -26.4260
Spin= Alpha
Occup=    1.00000
   1         0.99999121
   2        -0.00420657
   3        -0.00000000
   4         0.00000000
   5         0.00000459
   6        -0.00000152
   7        -0.00001922
   8         0.00000000
   9        -0.00000000
  10         0.00002327
Sym=     1a  
Ene=   -26.4680
Spin= Beta
Occup=    1.00000
   1         0.99999701
   2        -0.00249405
   3         0.00000000
   4        -0.00000000
   5         0.00000526
   6        -0.00000177
   7        -0.00002912
   8        -0.00000000
   9         0.00000000
  10         0.00004763
Sym=     2a  
Ene=   -20.7630
Spin= Alpha
Occup=    1.00000
   1        -0.00000308
   2        -0.00004825
   3         0.00000000
   4        -0.00000000
   5        -0.00007977
   6         0.99999894
   7         0.00158149
   8        -0.00000000
   9         0.00000000
  10        -0.00000583
Sym=     2a  
Ene=   -20.6940
Spin= Beta
Occup=    1.00000
   1        -0.00000182
   2        -0.00002031
   3         0.00000000
   4        -0.00000000
   5        -0.00001465
   6         0.99999774
   7        -0.00214207
   8        -0.00000000
   9         0.00000000
  10        -0.00000452
Sym=     3a  
Ene=    -1.5154
Spin= Alpha
Occup=    1.00000
   1         0.00418019
   2         0.99878279
   3         0.00000000
   4        -0.00000000
   5         0.00138469
   6        -0.00022117
   7         0.03695296
   8        -0.00000000
   9        -0.00000000
  10        -0.00450423
Sym=     3a  
Ene=    -1.6914
Spin= Beta
Occup=    1.00000
   1         0.00249466
   2         0.99996021
   3         0.00000000
   4        -0.00000000
   5         0.00134868
   6        -0.00014883
   7         0.00279959
   8        -0.00000000
   9        -0.00000000
  10        -0.00013568
Sym=     4a  
Ene=    -1.4259
Spin= Alpha
Occup=    1.00000
   1        -0.00051597
   2        -0.04670970
   3         0.00000000
   4         0.00000000
   5         0.00024157
   6        -0.00157024
   7         0.99935094
   8        -0.00000000
   9        -0.00000000
  10        -0.00163512
Sym=     4a  
Ene=    -1.1155
Spin= Beta
Occup=    1.00000
   1        -0.00036126
   2        -0.01263255
   3         0.00000000
   4         0.00000000
   5         0.02519215
   6         0.00208782
   7         0.99881854
   8        -0.00000000
   9        -0.00000000
  10        -0.00318637
Sym=     5a  
Ene=    -0.7137
Spin= Alpha
Occup=    1.00000
   1        -0.00000000
   2        -0.00000000
   3        -0.26631498
   4         0.32964237
   5         0.00000000
   6        -0.00000000
   7        -0.00000000
   8        -0.56502587
   9         0.69938411
  10        -0.00000000
Sym=     5a  
Ene=    -0.8424
Spin= Beta
Occup=    1.00000
   1         0.00000956
   2        -0.00078810
   3         0.00000000
   4        -0.00000000
   5         1.00016116
   6        -0.00228797
   7        -0.06094700
   8        -0.00000000
   9         0.00000000
  10        -0.00271881
Sym=     6a  
Ene=    -0.7135
Spin= Alpha
Occup=    1.00000
   1         0.00252045
   2         0.03903653
   3        -0.00000000
   4         0.00000000
   5        -0.01487689
   6         0.00002348
   7         0.00201487
   8        -0.00000000
   9         0.00000000
  10         0.99966574
Sym=     6a  
Ene=    -0.7521
Spin= Beta
Occup=    1.00000
   1         0.00000000
   2         0.00000000
   3        -0.62842964
   4         0.77786474
   5         0.00000000
   6         0.00000000
   7        -0.00000000
   8        -0.00005229
   9         0.00006472
  10         0.00000000
Sym=     7a  
Ene=    -0.7074
Spin= Alpha
Occup=    1.00000
   1         0.00000000
   2         0.00000000
   3         0.77686159
   4         0.62761920
   5        -0.00000000
   6        -0.00000000
   7         0.00000000
   8         0.02911510
   9         0.02352182
  10         0.00000000
Sym=     7a  
Ene=    -0.7520
Spin= Beta
Occup=    1.00000
   1        -0.00000000
   2        -0.00000000
   3         0.77770845
   4         0.62830337
   5        -0.00000000
   6        -0.00000000
   7        -0.00000000
   8         0.00761248
   9         0.00615005
  10        -0.00000000
Sym=     8a  
Ene=    -0.7061
Spin= Alpha
Occup=    1.00000
   1        -0.00000000
   2        -0.00000000
   3        -0.56929734
   4         0.70467130
   5         0.00000000
   6         0.00000000
   7        -0.00000000
   8         0.27526150
   9        -0.34071629
  10        -0.00000000
Sym=     8a  
Ene=    -0.5540
Spin= Beta
Occup=    1.00000
   1         0.00000000
   2         0.00000000
   3        -0.01988192
   4        -0.01606242
   5         0.00000000
   6         0.00000000
   7         0.00000000
   8         0.77792530
   9         0.62847857
  10         0.00000000
Sym=     9a  
Ene=    -0.6330
Spin= Alpha
Occup=    1.00000
   1        -0.00000000
   2         0.00000000
   3        -0.04137386
   4        -0.03342555
   5         0.00000000
   6         0.00000000
   7         0.00000000
   8         0.77741754
   9         0.62806835
  10         0.00000000
Sym=     9a  
Ene=     0.1253
Spin= Beta
Occup=    0.00000
   1        -0.00000000
   2        -0.00000000
   3         0.00996589
   4        -0.01233569
   5        -0.00000000
   6         0.00000000
   7         0.00000000
   8        -0.62850865
   9         0.77796254
  10        -0.00000000
Sym=    10a  
Ene=     0.0681
Spin= Alpha
Occup=    0.00000
   1         0.00017879
   2         0.00144499
   3         0.00000000
   4        -0.00000000
   5         1.00201913
   6        -0.00217258
   7        -0.03593860
   8        -0.00000000
   9        -0.00000000
  10         0.06956329
Sym=    10a  
Ene=     0.1260
Spin= Beta
Occup=    0.00000
   1        -0.00248373
   2        -0.03472251
   3        -0.00000000
   4         0.00000000
   5        -0.05750496
   6         0.00012475
   7        -0.00072942
   8         0.00000000
   9        -0.00000000
  10        -1.00208585
