   This run of MOLCAS is using the pymolcas driver

                             OPE
                             OPE          NMOL  CASOP  ENMOLC A   SO
                 OPE        NMOLC        AS  OP EN  MO LC     AS  OP
                OPENM       OL CA        SO  PE NM  OL CA     SOP EN
                OP EN      MO   LC       AS  OP ENMOL  CASO   PENMOL
                OP  EN     MO   LC       AS  OP EN     MO     LC ASO
               OP   E  NMOL  C  AS       OP  EN MO     LC     AS  OP
               OP  E   NMO   LC AS        OPEN  MO     LCASOP EN   M
               O  PEN   MO  LCA  SO
            OPE   NMO   L   CAS    OP
        OPENMOL  CASOP     ENMOL   CASOPE
     OPENMOLCA   SOPENMOLCASOPEN   MOLCASOPE
    OPENMOLCAS   OP           EN   MOL    CAS
    OPENMOLCAS       OP  ENM        O     LCA
    OPENMOLCAS    OPEN  MOLCASO     P  E  NMO
    OPENMOLCAS     OP               E  N  MOL
    OPENMOLCA   SO           PENM   O  L  CAS    OPEN    MO    LCAS
    OPENMOLCA   SOP           ENM   O  L  CAS   OP  EN  MOLC  AS   O
    OPENMOLCA   SOPE           NM      O  LCA   S      OP  EN MO
    OPENMOLC                AS         O  PEN   M      OL  CA  SOPE
    OPENMO        LCASOPE  NMOL        C  ASO   P      ENMOLC     AS
    OPE     NMO      LCA  SO     P     E   NM   OL  CA SO  PE N   MO
          OPENMOLCA            SOPE   NMO        LCAS  O    P  ENMO
     OPENMOLCASOPENMOLCASOPENMOLCASOPENMOLCA
        OPENMOLCASOPENMOLCASOPENMOLCASOPE
            OPENMOLCASOPENMOLCASOPENM
               OPENMOLCASOPENMOLCA        version: f37762c57
                   OPENMOLCASO
                       OPE                tag:

 OpenMolcas is free software; you can redistribute it and/or modify it
 under the terms of the GNU Lesser General Public License version 2.1.
 OpenMolcas is distributed in the hope that it will be useful, but it
 is provided "as is" and without any express or implied warranties.
 For more details see the full text of the license in the file
 LICENSE or in <http://www.gnu.org/licenses/>.

                 Copyright (C) The OpenMolcas Authors
           For the author list and the recommended citation,
                   consult the file CONTRIBUTORS.md

           *************************************************
           * pymolcas version py2.28                       *
           *   build c4a6d18ded8cb6cad61d2372a9abd97c      *
           *   (after the EMIL interpreter by V. Veryazov) *
           *************************************************

configuration info
------------------
C Compiler ID: Intel
C flags: -std=gnu99 -gcc-sys
Fortran Compiler ID: IntelLLVM
Fortran flags: -standard-semantics -fltconsistency -fpp -i8 -heap-arrays
Definitions: _MOLCAS_;_I8_;_LINUX_
Parallel: OFF (GA=OFF)


   -------------------------------------------------------------------------------------------
  |
  |              Project: ozone_108.00
  |       Submitted from: /home/grierjones/DDCASPT2/ozone/multistate/ANO-RCC-VTZP/ozone_108.00
  |         Scratch area: /tmp/ozone_108.00
  |      Save outputs to: /home/grierjones/DDCASPT2/ozone/multistate/ANO-RCC-VTZP/ozone_108.00
  |               Molcas: /home/grierjones/Test/build
  |
  | Scratch area is empty
  |
  |       MOLCAS_DRIVER = /usr/local/pymolcas
  | MOLCAS_KEEP_WORKDIR = NO
  |  MOLCAS_NEW_WORKDIR = YES
  |       MOLCAS_NPROCS = 1
  |        MOLCAS_PRINT = NORMAL
  |       MOLCAS_SOURCE = /home/grierjones/Test
  |    MOLCAS_STRUCTURE = 0
  |      MOLCAS_THREADS = -1
  |
   -------------------------------------------------------------------------------------------

++ ---------   Input file   ---------

&GATEWAY
coord=ozone_108.00.xyz
Basis = ANO-RCC-VTZP
Group = nosymm
End of Input

&SEWARD
End of Input

&SCF
FileOrb
/home/grierjones/DDCASPT2/ozone/multistate/ANO-RCC-VTZP/ozone_107.00/ozone_107.00.ScfOrb

>>> COPY $WorkDir/ozone_108.00.scf.h5 $CurrDir/

&RASSCF
Title= RASSCF
ITERation
200 100
CIMX
200
SDAV
500
FileOrb
/home/grierjones/DDCASPT2/ozone/multistate/ANO-RCC-VTZP/ozone_107.00/ozone_107.00.RasOrb
CIROOT
3 3 1
NACTEL
12 0 0
Inactive
6
RAS2
9
Symmetry
1
Spin
1
orblisting
all

>>> COPY $WorkDir/ozone_108.00.rasscf.h5 $CurrDir/

>>> COPY $WorkDir/GMJ_Fock_MO.csv $CurrDir/ozone_108.00.GMJ_Fock_MO.csv

&MOTRA
Frozen=0
LUMORB

>>> COPY $WorkDir/GMJ_one_int_indx.csv $CurrDir/ozone_108.00.GMJ_one_int_indx.csv

>>> COPY $WorkDir/GMJ_one_int.csv $CurrDir/ozone_108.00.GMJ_one_int.csv

>>> COPY $WorkDir/GMJ_two_int_indx.csv $CurrDir/ozone_108.00.GMJ_two_int_indx.csv

>>> COPY $WorkDir/GMJ_two_int.csv $CurrDir/ozone_108.00.GMJ_two_int.csv

&CASPT2

Multistate
ALL

Frozen
0

MAXITER
50

>>> FOREACH k IN (1,2,3)

  >>> FOREACH i IN (B,E,F,G,H)

    >>> FOREACH j IN (P,M)

      >>> IF (-FILE GMJ_e2_${i}_${j}_${k}_.csv)

        >>> COPY $WorkDir/GMJ_RHS_${i}_${j}_${k}_.csv $CurrDir/GMJ_RHS_${i}_${j}_${k}_.csv

        >>> COPY $WorkDir/GMJ_IVECW_${i}_${j}_${k}_.csv $CurrDir/GMJ_IVECW_${i}_${j}_${k}_.csv

        >>> COPY $WorkDir/GMJ_IVECX_${i}_${j}_${k}_.csv $CurrDir/GMJ_IVECX_${i}_${j}_${k}_.csv

        >>> COPY $WorkDir/GMJ_IVECC2_${i}_${j}_${k}_.csv $CurrDir/GMJ_IVECC2_${i}_${j}_${k}_.csv

        >>> COPY $WorkDir/GMJ_e2_${i}_${j}_${k}_.csv $CurrDir/GMJ_e2_${i}_${j}_${k}_.csv

      >>> END IF

    >>> END FOREACH

  >>> END FOREACH

>>> END FOREACH

>>> FOREACH j IN (1,2,3)

  >>> FOREACH i IN (A,C,D)

    >>> IF (-FILE GMJ_e2_${i}_${j}_.csv)

      >>> COPY $WorkDir/GMJ_RHS_${i}_${j}_.csv $CurrDir/GMJ_RHS_${i}_${j}_.csv

      >>> COPY $WorkDir/GMJ_IVECW_${i}_${j}_.csv $CurrDir/GMJ_IVECW_${i}_${j}_.csv

      >>> COPY $WorkDir/GMJ_IVECX_${i}_${j}_.csv $CurrDir/GMJ_IVECX_${i}_${j}_.csv

      >>> COPY $WorkDir/GMJ_IVECC2_${i}_${j}_.csv $CurrDir/GMJ_IVECC2_${i}_${j}_.csv

      >>> COPY $WorkDir/GMJ_e2_${i}_${j}_.csv $CurrDir/GMJ_e2_${i}_${j}_.csv

    >>> END IF

  >>> END FOREACH

>>> END FOREACH

-- ----------------------------------

--- Start Module: gateway at Fri Apr 25 10:26:24 2025 ---
 
()()()()()()()()()()()()()()()()()()()()()()()()()()()()()()()()()()()()()()()()()()()()()()()()()()

                                              &GATEWAY

                                   only a single process is used
                       available to each process: 2.0 GB of memory, 1 thread?
()()()()()()()()()()()()()()()()()()()()()()()()()()()()()()()()()()()()()()()()()()()()()()()()()()
 
 
++    Symmetry information:
      ---------------------
 
                    Character Table for C1 
 
                             E  
                    a        1  x, y, xy, Rz, z, xz, Ry, yz, Rx, I
--
 
 
++    Basis set information:
      ----------------------
 
 
      Basis set label: O.ANO-RCC...4S3P2D1F.
 
      Electronic valence basis set:
      ------------------
      Associated Effective Charge   8.000000 au
      Associated Actual Charge      8.000000 au
      Nuclear Model: Point charge
 
      Shell  nPrim  nBasis  Cartesian Spherical Contaminant
         s      14       4        X                  
         p       9       3        X                  
         d       4       2                 X         
         f       3       1                 X         
--
 
 
++    Molecular structure info:
      -------------------------
 
                    ************************************************ 
                    **** Cartesian Coordinates / Bohr, Angstrom **** 
                    ************************************************ 
 
     Center  Label                x              y              z                     x              y              z
        1      O1               1.419543       1.953833       0.000000              0.751190       1.033924       0.000000
        2      O2               0.000000       0.000000       0.000000              0.000000       0.000000       0.000000
        3      O3               1.419543      -1.953833       0.000000              0.751190      -1.033924       0.000000
 
                    *************************************** 
                    *    InterNuclear Distances / Bohr    * 
                    *************************************** 
 
               1 O1            2 O2            3 O3    
    1 O1       0.000000
    2 O2       2.415071        0.000000
    3 O3       3.907666        2.415071        0.000000
 
                    ******************************************* 
                    *    InterNuclear Distances / Angstrom    * 
                    ******************************************* 
 
               1 O1            2 O2            3 O3    
    1 O1       0.000000
    2 O2       1.278000        0.000000
    3 O3       2.067848        1.278000        0.000000
 
                    ************************************** 
                    *    Valence Bond Angles / Degree    * 
                    ************************************** 
                          Atom centers                 Phi
                      1 O1       2 O2       3 O3       108.00
--
 
 
            Nuclear Potential Energy             69.37857544 au
 
--- Stop Module: gateway at Fri Apr 25 10:26:24 2025 /rc=_RC_ALL_IS_WELL_ ---
*** files: xmldump
    saved to directory /home/grierjones/DDCASPT2/ozone/multistate/ANO-RCC-VTZP/ozone_108.00

--- Start Module: seward at Fri Apr 25 10:26:24 2025 ---
 
()()()()()()()()()()()()()()()()()()()()()()()()()()()()()()()()()()()()()()()()()()()()()()()()()()

                                              &SEWARD

                                   only a single process is used
                       available to each process: 2.0 GB of memory, 1 thread?
()()()()()()()()()()()()()()()()()()()()()()()()()()()()()()()()()()()()()()()()()()()()()()()()()()
 
               SEWARD will generate:
                  Multipole Moment integrals up to order  2
                  Kinetic Energy integrals
                  Nuclear Attraction integrals (point charge)
                  One-Electron Hamiltonian integrals
                  Velocity integrals
                  Relativistic Douglas-Kroll-Hess integrals:
                    - Parametrization         : EXP
                    - DKH order of Hamiltonian: 2
                    - DKH order of Properties : 0
                         - multipole moment operators
                         - electric potential operators
                         - contact operators
                  Atomic mean-field integrals
                  Two-Electron Repulsion integrals
 
                   Integrals are discarded if absolute value <: 0.10E-13
                   Integral cutoff threshold is set to       <: 0.10E-15
 
            Nuclear Potential Energy             69.37857544 au
 
 
      Basis set specifications :
      Symmetry species         a  
      Basis functions           90
 
 
  Input file to MOLDEN was generated!
 
forrtl: warning (525): IEEE_DIVIDE_BY_ZERO is signaling
forrtl: warning (526): IEEE_INVALID is signaling
forrtl: warning (528): IEEE_UNDERFLOW is signaling
--- Stop Module: seward at Fri Apr 25 10:26:27 2025 /rc=_RC_ALL_IS_WELL_ ---
*** files: ozone_108.00.GssOrb ozone_108.00.guessorb.h5 ozone_108.00.guessorb.molden xmldump
    saved to directory /home/grierjones/DDCASPT2/ozone/multistate/ANO-RCC-VTZP/ozone_108.00
--- Module seward spent 2 seconds ---

*** symbolic link created: INPORB -> ozone_108.00.GssOrb
--- Start Module: scf at Fri Apr 25 10:26:27 2025 ---
 
()()()()()()()()()()()()()()()()()()()()()()()()()()()()()()()()()()()()()()()()()()()()()()()()()()

                                                &SCF

                                   only a single process is used
                       available to each process: 2.0 GB of memory, 1 thread?
()()()()()()()()()()()()()()()()()()()()()()()()()()()()()()()()()()()()()()()()()()()()()()()()()()
 
++    Input section:
      --------------
 
      Header of the integral files:
      
       Integrals generated by seward 4.2.0  , Fri Apr 25 10:26:24 2025
 
 
      Cartesian coordinates in Angstrom:
      -----------------------------------------------------
      No.  Label        X            Y            Z        
      -----------------------------------------------------
       1   O1         0.75119000   1.03392400   0.00000000
       2   O2         0.00000000   0.00000000   0.00000000
       3   O3         0.75119000  -1.03392400   0.00000000
      -----------------------------------------------------
      Nuclear repulsion energy =   69.37857544
--
 
++    Orbital specifications:
      -----------------------
 
      Symmetry species               1
                                     a
      Frozen orbitals                0
      Occupied orbitals             12
      Secondary orbitals            78
      Deleted orbitals               0
      Total number of orbitals      90
      Number of basis functions     90
--
 
      Molecular charge                           0.000
 
++    Optimization specifications:
      ----------------------------
 
      SCF Algorithm: Conventional
      Minimized density differences are used
      Number of density matrices in core                5
      Maximum number of NDDO SCF iterations           400
      Maximum number of HF SCF iterations             400
      Threshold for SCF energy change            0.10E-08
      Threshold for density matrix               0.10E-03
      Threshold for Fock matrix                  0.15E-03
      Threshold for linear dependence            0.10E-08
      Threshold at which DIIS is turned on       0.15E+00
      Threshold at which QNR/C2DIIS is turned on 0.75E-01
      Threshold for Norm(delta) (QNR/C2DIIS)     0.20E-04
      DIIS extrapolation of the SCF procedure
      All orbitals punched on: SCFORB
--
 
      Input vectors read from INPORB
      Orbital file label: * SCF orbitals
 
 
++ Convergence information
                                   SCF        iterations: Energy and convergence statistics
 
Iter     Tot. SCF        One-elec.       Two-elec.     Energy      Max Dij or  Max Fij      DNorm      TNorm      AccCon     Time
         Energy          Energy          Energy        Change      Delta Norm                                                in Sec.
   1  -224.506317451  -446.448398119   152.563505223   0.00E+00    0.39E-02*   0.20E-02*    0.75E+01   0.11E+03   None         0.
   2  -224.506405735  -446.448744576   152.563763397  -0.88E-04*   0.20E-02*   0.11E-02*    0.29E-01   0.11E+03   EDIIS        0.
   3  -224.506423380  -446.451116520   152.566117696  -0.18E-04*   0.22E-02*   0.90E-03*    0.63E-02   0.11E+03   c2DIIS       0.
   4  -224.506427491  -446.447023086   152.562020151  -0.41E-05*   0.17E-02*   0.81E-03*    0.58E-02   0.11E+03   QNRc2DIIS    0.
   5  -224.506427756  -446.452999298   152.567996098  -0.26E-06*   0.86E-03*   0.86E-03*    0.18E-02   0.11E+03   QNRc2DIIS    0.
   6  -224.506431533  -446.449977128   152.564970150  -0.38E-05*   0.43E-03*   0.10E-03     0.17E-03   0.11E+03   QNRc2DIIS    0.
   7  -224.506431698  -446.449978196   152.564971054  -0.16E-06*   0.58E-05    0.42E-05     0.78E-04   0.11E+03   QNRc2DIIS    0.
   8  -224.506431698  -446.449951512   152.564944370  -0.15E-09    0.14E-04    0.32E-05     0.15E-04   0.11E+03   QNRc2DIIS    0.
 
       Convergence after  8 Macro Iterations
--
 
 *****************************************************************************************************************************
 *                                                                                                                           *
 *                                             SCF/KS-DFT Program, Final results                                             *
 *                                                                                                                           *
 *                                                                                                                           *
 *                                                                                                                           *
 *                                                       Final Results                                                       *
 *                                                                                                                           *
 *****************************************************************************************************************************
 
::    Total SCF energy                               -224.5064316978
      One-electron energy                            -446.4499515122
      Two-electron energy                             152.5649443698
      Nuclear repulsion energy                         69.3785754446
      Kinetic energy (interpolated)                   225.1103070784
      Virial theorem                                    0.9973174246
      Total spin, S(S+1)                                0.0000000000
      Total spin, S                                     0.0000000000
      Max non-diagonal density matrix element           0.0000224597
      Max non-diagonal Fock matrix element              0.0000050004
 
 
      All orbitals with orbital energies smaller than  E(LUMO)+0.5 are printed
 
++    Molecular orbitals:
      -------------------
 
      Title: SCF orbitals

      Molecular orbitals for symmetry species 1: a  
 
          Orbital            1         2         3         4         5         6         7         8         9        10    
          Energy          -20.9381  -20.7191  -20.7190   -1.7562   -1.4152   -1.1072   -0.8303   -0.7943   -0.7818   -0.5692
          Occ. No.          2.0000    2.0000    2.0000    2.0000    2.0000    2.0000    2.0000    2.0000    2.0000    2.0000
 
        1 O1     1s         0.0022   -0.7064    0.7063   -0.0141    0.0113    0.0083   -0.0144   -0.0232    0.0000    0.0051
        2 O1     2s         0.0040    0.0049   -0.0052    0.3320   -0.5807    0.5678   -0.3033   -0.4273    0.0000    0.0360
        3 O1     3s         0.0023    0.0036   -0.0036   -0.0117    0.0181    0.0142   -0.0309   -0.0526    0.0000    0.0152
        4 O1     4s         0.0004    0.0007   -0.0007   -0.0009    0.0040    0.0022   -0.0058   -0.0113    0.0000    0.0040
        5 O1     2px       -0.0012   -0.0015    0.0014   -0.0622    0.0695    0.1099    0.0868   -0.3466    0.0000    0.6176
        6 O1     3px       -0.0008   -0.0015    0.0014    0.0125   -0.0096   -0.0180   -0.0006    0.0323   -0.0000   -0.0010
        7 O1     4px        0.0002    0.0008   -0.0009    0.0026   -0.0002    0.0009    0.0001    0.0025    0.0000   -0.0062
        8 O1     2py       -0.0022   -0.0020    0.0021   -0.1047    0.0559    0.0581   -0.3746   -0.2195    0.0000   -0.1936
        9 O1     3py       -0.0012   -0.0021    0.0020    0.0167   -0.0121   -0.0098    0.0388    0.0326   -0.0000   -0.0126
       10 O1     4py        0.0005    0.0012   -0.0012    0.0003   -0.0035    0.0011    0.0029    0.0025    0.0000    0.0006
       11 O1     2pz       -0.0000   -0.0000    0.0000    0.0000    0.0000   -0.0000    0.0000    0.0000    0.3663    0.0000
       12 O1     3pz        0.0000   -0.0000    0.0000   -0.0000   -0.0000   -0.0000    0.0000   -0.0000   -0.0199   -0.0000
       13 O1     4pz       -0.0000   -0.0000   -0.0000   -0.0000    0.0000    0.0000   -0.0000   -0.0000   -0.0067   -0.0000
       14 O1     3d2-       0.0005    0.0011   -0.0011    0.0192   -0.0154   -0.0115    0.0130    0.0289   -0.0000   -0.0151
       15 O1     4d2-       0.0002    0.0005   -0.0006    0.0024   -0.0019   -0.0009    0.0015    0.0026   -0.0000   -0.0016
       16 O1     3d1-      -0.0000   -0.0000   -0.0000    0.0000   -0.0000    0.0000   -0.0000   -0.0000   -0.0249   -0.0000
       17 O1     4d1-      -0.0000    0.0000   -0.0000   -0.0000    0.0000    0.0000    0.0000   -0.0000   -0.0033   -0.0000
       18 O1     3d0       -0.0003   -0.0005    0.0005   -0.0104    0.0086    0.0027   -0.0099   -0.0147    0.0000    0.0054
       19 O1     4d0       -0.0002   -0.0005    0.0004   -0.0001    0.0010   -0.0002   -0.0004   -0.0011    0.0000    0.0002
       20 O1     3d1+       0.0000   -0.0000   -0.0000    0.0000    0.0000   -0.0000   -0.0000   -0.0000   -0.0196    0.0000
       21 O1     4d1+      -0.0000   -0.0000   -0.0000   -0.0000   -0.0000    0.0000    0.0000   -0.0000   -0.0037   -0.0000
       22 O1     3d2+      -0.0004   -0.0004    0.0004   -0.0079    0.0014   -0.0020   -0.0222    0.0011    0.0000   -0.0041
       23 O1     4d2+      -0.0002   -0.0002    0.0002   -0.0003    0.0005    0.0003   -0.0014    0.0006    0.0000   -0.0015
       24 O1     4f3-       0.0001   -0.0001    0.0001   -0.0011    0.0027    0.0025    0.0041   -0.0049    0.0000    0.0036
       25 O1     4f2-       0.0000   -0.0000    0.0000    0.0000    0.0000   -0.0000    0.0000    0.0000    0.0068    0.0000
       26 O1     4f1-       0.0000    0.0001   -0.0001    0.0029   -0.0023   -0.0003    0.0023    0.0028   -0.0000   -0.0015
       27 O1     4f0       -0.0000    0.0000   -0.0000    0.0000    0.0000   -0.0000   -0.0000   -0.0000   -0.0038    0.0000
       28 O1     4f1+       0.0000    0.0001   -0.0001    0.0019   -0.0020   -0.0008    0.0011    0.0023   -0.0000   -0.0002
       29 O1     4f2+       0.0000   -0.0000   -0.0000    0.0000   -0.0000   -0.0000   -0.0000   -0.0000   -0.0021   -0.0000
       30 O1     4f3+       0.0001    0.0002   -0.0002    0.0061   -0.0043   -0.0013    0.0059    0.0051   -0.0000   -0.0021
       31 O2     1s         0.9989    0.0000   -0.0007   -0.0267   -0.0000   -0.0172   -0.0079   -0.0000    0.0000    0.0183
       32 O2     2s        -0.0077   -0.0000    0.0106    0.6141    0.0000   -0.6839   -0.0843   -0.0000    0.0000    0.2253
       33 O2     3s        -0.0053   -0.0000    0.0060   -0.0643   -0.0000   -0.0124   -0.0118   -0.0000    0.0000    0.0431
       34 O2     4s        -0.0012   -0.0000    0.0010   -0.0111   -0.0000   -0.0033   -0.0034   -0.0000    0.0000    0.0107
       35 O2     2px       -0.0022   -0.0000    0.0040    0.1187   -0.0000    0.2679    0.6383   -0.0000   -0.0000   -0.4604
       36 O2     3px       -0.0027   -0.0000    0.0024   -0.0395   -0.0000   -0.0372   -0.0641    0.0000    0.0000    0.0036
       37 O2     4px        0.0018    0.0000   -0.0009   -0.0022    0.0000    0.0008   -0.0091    0.0000    0.0000   -0.0001
       38 O2     2py        0.0000   -0.0051   -0.0000    0.0000   -0.3278   -0.0000    0.0000    0.5761   -0.0000    0.0000
       39 O2     3py        0.0000   -0.0030   -0.0000    0.0000    0.0607    0.0000   -0.0000   -0.0558    0.0000    0.0000
       40 O2     4py        0.0000    0.0012    0.0000   -0.0000   -0.0012   -0.0000   -0.0000   -0.0095    0.0000    0.0000
       41 O2     2pz       -0.0000    0.0000   -0.0000    0.0000    0.0000    0.0000    0.0000    0.0000    0.6952   -0.0000
       42 O2     3pz       -0.0000    0.0000   -0.0000    0.0000    0.0000    0.0000   -0.0000   -0.0000   -0.0452    0.0000
       43 O2     4pz        0.0000    0.0000    0.0000    0.0000    0.0000    0.0000   -0.0000   -0.0000   -0.0157   -0.0000
       44 O2     3d2-       0.0000   -0.0015   -0.0000    0.0000   -0.0438   -0.0000    0.0000    0.0324   -0.0000    0.0000
       45 O2     4d2-       0.0000   -0.0007   -0.0000    0.0000   -0.0050   -0.0000    0.0000    0.0033   -0.0000    0.0000
       46 O2     3d1-      -0.0000   -0.0000   -0.0000   -0.0000   -0.0000   -0.0000    0.0000    0.0000    0.0000    0.0000
       47 O2     4d1-      -0.0000   -0.0000   -0.0000   -0.0000   -0.0000   -0.0000    0.0000    0.0000    0.0000   -0.0000
       48 O2     3d0        0.0007    0.0000   -0.0010   -0.0159    0.0000   -0.0077   -0.0156    0.0000    0.0000    0.0170
       49 O2     4d0        0.0007    0.0000   -0.0005    0.0004    0.0000   -0.0006   -0.0012    0.0000   -0.0000    0.0018
       50 O2     3d1+      -0.0000   -0.0000   -0.0000    0.0000   -0.0000   -0.0000    0.0000    0.0000    0.0357   -0.0000
       51 O2     4d1+      -0.0000   -0.0000   -0.0000    0.0000   -0.0000   -0.0000    0.0000    0.0000    0.0057   -0.0000
       52 O2     3d2+       0.0001    0.0000   -0.0006   -0.0051    0.0000    0.0032    0.0241   -0.0000   -0.0000    0.0392
       53 O2     4d2+      -0.0001    0.0000   -0.0003   -0.0002    0.0000   -0.0002    0.0031   -0.0000   -0.0000    0.0087
       54 O2     4f3-       0.0000   -0.0001   -0.0000    0.0000   -0.0017    0.0000    0.0000   -0.0022    0.0000    0.0000
       55 O2     4f2-       0.0000   -0.0000   -0.0000    0.0000    0.0000   -0.0000    0.0000    0.0000    0.0000    0.0000
       56 O2     4f1-      -0.0000    0.0001    0.0000   -0.0000    0.0048    0.0000   -0.0000   -0.0040    0.0000   -0.0000
       57 O2     4f0        0.0000   -0.0000    0.0000   -0.0000    0.0000    0.0000   -0.0000   -0.0000   -0.0065   -0.0000
       58 O2     4f1+       0.0002    0.0000   -0.0001   -0.0039   -0.0000   -0.0009   -0.0029    0.0000    0.0000   -0.0001
       59 O2     4f2+       0.0000    0.0000    0.0000   -0.0000    0.0000    0.0000   -0.0000   -0.0000   -0.0034    0.0000
       60 O2     4f3+       0.0001    0.0000   -0.0002   -0.0086    0.0000   -0.0003   -0.0017   -0.0000   -0.0000    0.0072
       61 O3     1s         0.0022    0.7064    0.7063   -0.0141   -0.0113    0.0083   -0.0144    0.0232   -0.0000    0.0051
       62 O3     2s         0.0040   -0.0049   -0.0052    0.3320    0.5807    0.5678   -0.3033    0.4273   -0.0000    0.0360
       63 O3     3s         0.0023   -0.0036   -0.0036   -0.0117   -0.0181    0.0142   -0.0309    0.0526   -0.0000    0.0152
       64 O3     4s         0.0004   -0.0007   -0.0007   -0.0009   -0.0040    0.0022   -0.0058    0.0113   -0.0000    0.0040
       65 O3     2px       -0.0012    0.0015    0.0014   -0.0622   -0.0695    0.1099    0.0868    0.3466   -0.0000    0.6176
       66 O3     3px       -0.0008    0.0015    0.0014    0.0125    0.0096   -0.0180   -0.0006   -0.0323    0.0000   -0.0010
       67 O3     4px        0.0002   -0.0008   -0.0009    0.0026    0.0002    0.0009    0.0001   -0.0025    0.0000   -0.0062
       68 O3     2py        0.0022   -0.0020   -0.0021    0.1047    0.0559   -0.0581    0.3746   -0.2195    0.0000    0.1936
       69 O3     3py        0.0012   -0.0021   -0.0020   -0.0167   -0.0121    0.0098   -0.0388    0.0326   -0.0000    0.0126
       70 O3     4py       -0.0005    0.0012    0.0012   -0.0003   -0.0035   -0.0011   -0.0029    0.0025    0.0000   -0.0006
       71 O3     2pz        0.0000   -0.0000    0.0000    0.0000   -0.0000   -0.0000    0.0000    0.0000    0.3663   -0.0000
       72 O3     3pz        0.0000    0.0000    0.0000   -0.0000   -0.0000   -0.0000   -0.0000   -0.0000   -0.0199   -0.0000
       73 O3     4pz        0.0000    0.0000    0.0000   -0.0000   -0.0000   -0.0000   -0.0000   -0.0000   -0.0067   -0.0000
       74 O3     3d2-      -0.0005    0.0011    0.0011   -0.0192   -0.0154    0.0115   -0.0130    0.0289   -0.0000    0.0151
       75 O3     4d2-      -0.0002    0.0005    0.0006   -0.0024   -0.0019    0.0009   -0.0015    0.0026   -0.0000    0.0016
       76 O3     3d1-       0.0000   -0.0000    0.0000   -0.0000   -0.0000   -0.0000    0.0000    0.0000    0.0249   -0.0000
       77 O3     4d1-       0.0000    0.0000    0.0000   -0.0000   -0.0000   -0.0000    0.0000    0.0000    0.0033   -0.0000
       78 O3     3d0       -0.0003    0.0005    0.0005   -0.0104   -0.0086    0.0027   -0.0099    0.0147   -0.0000    0.0054
       79 O3     4d0       -0.0002    0.0005    0.0004   -0.0001   -0.0010   -0.0002   -0.0004    0.0011   -0.0000    0.0002
       80 O3     3d1+       0.0000   -0.0000   -0.0000    0.0000    0.0000    0.0000   -0.0000   -0.0000   -0.0196    0.0000
       81 O3     4d1+       0.0000    0.0000   -0.0000    0.0000    0.0000    0.0000   -0.0000   -0.0000   -0.0037    0.0000
       82 O3     3d2+      -0.0004    0.0004    0.0004   -0.0079   -0.0014   -0.0020   -0.0222   -0.0011    0.0000   -0.0041
       83 O3     4d2+      -0.0002    0.0002    0.0002   -0.0003   -0.0005    0.0003   -0.0014   -0.0006    0.0000   -0.0015
       84 O3     4f3-      -0.0001   -0.0001   -0.0001    0.0011    0.0027   -0.0025   -0.0041   -0.0049    0.0000   -0.0036
       85 O3     4f2-       0.0000   -0.0000   -0.0000   -0.0000   -0.0000    0.0000   -0.0000   -0.0000   -0.0068    0.0000
       86 O3     4f1-      -0.0000    0.0001    0.0001   -0.0029   -0.0023    0.0003   -0.0023    0.0028   -0.0000    0.0015
       87 O3     4f0        0.0000   -0.0000   -0.0000   -0.0000    0.0000    0.0000   -0.0000   -0.0000   -0.0038    0.0000
       88 O3     4f1+       0.0000   -0.0001   -0.0001    0.0019    0.0020   -0.0008    0.0011   -0.0023    0.0000   -0.0002
       89 O3     4f2+      -0.0000   -0.0000   -0.0000   -0.0000   -0.0000    0.0000   -0.0000   -0.0000   -0.0021   -0.0000
       90 O3     4f3+       0.0001   -0.0002   -0.0002    0.0061    0.0043   -0.0013    0.0059   -0.0051    0.0000   -0.0021
 
          Orbital           11        12        13        14        15        16        17        18        19        20    
          Energy           -0.5485   -0.4813   -0.0521    0.1718    0.1749    0.2369    0.3036    0.3411    0.3802    0.3910
          Occ. No.          2.0000    2.0000    0.0000    0.0000    0.0000    0.0000    0.0000    0.0000    0.0000    0.0000
 
        1 O1     1s         0.0046   -0.0000   -0.0000   -0.1488   -0.1824   -0.0000   -0.0063   -0.0174    0.0722   -0.0000
        2 O1     2s         0.0234   -0.0000   -0.0000   -1.0656   -1.3677   -0.0000    0.0605   -0.0098    0.4007   -0.0000
        3 O1     3s         0.0152    0.0000   -0.0000   -0.6257   -0.7922   -0.0000   -0.1075   -0.0440    0.4651    0.0000
        4 O1     4s         0.0038    0.0000   -0.0000   -0.1328   -0.1800   -0.0000   -0.0381   -0.0061    0.1365    0.0000
        5 O1     2px       -0.4889    0.0000   -0.0000    0.3145    0.5341    0.0000   -0.3164   -0.3118    0.2392    0.0000
        6 O1     3px       -0.0194    0.0000    0.0000    0.3913    0.4456    0.0000    0.0575   -0.7253    0.7846   -0.0000
        7 O1     4px        0.0021   -0.0000    0.0000    0.0741    0.0359    0.0000    0.0842   -0.2836    0.2871   -0.0000
        8 O1     2py        0.5626   -0.0000    0.0000    0.7027    0.4905    0.0000   -0.4396   -0.3181   -0.1011    0.0000
        9 O1     3py        0.0013   -0.0000   -0.0000    0.5826    0.6599    0.0000   -0.5361   -0.1792   -0.1158   -0.0000
       10 O1     4py       -0.0037   -0.0000   -0.0000    0.0392    0.1172    0.0000   -0.2039   -0.0331    0.0190   -0.0000
       11 O1     2pz       -0.0000   -0.7142    0.6590   -0.0000    0.0000   -0.1758   -0.0000   -0.0000   -0.0000   -0.1988
       12 O1     3pz       -0.0000   -0.0401    0.1595   -0.0000   -0.0000    0.2748   -0.0000   -0.0000   -0.0000   -0.9766
       13 O1     4pz        0.0000    0.0061    0.0242   -0.0000   -0.0000    0.1780   -0.0000   -0.0000   -0.0000   -0.3871
       14 O1     3d2-      -0.0059    0.0000   -0.0000   -0.0619   -0.0793   -0.0000    0.0020   -0.0041   -0.0291    0.0000
       15 O1     4d2-       0.0000   -0.0000   -0.0000   -0.0417   -0.0490   -0.0000    0.0108    0.0143   -0.0270    0.0000
       16 O1     3d1-      -0.0000    0.0200    0.0059    0.0000   -0.0000    0.0226    0.0000    0.0000    0.0000    0.0029
       17 O1     4d1-      -0.0000    0.0051   -0.0002    0.0000   -0.0000    0.0116    0.0000    0.0000    0.0000    0.0112
       18 O1     3d0        0.0033   -0.0000    0.0000    0.0433    0.0554    0.0000    0.0131   -0.0012    0.0023   -0.0000
       19 O1     4d0       -0.0001   -0.0000    0.0000    0.0266    0.0368    0.0000    0.0022   -0.0086    0.0107   -0.0000
       20 O1     3d1+      -0.0000    0.0156    0.0054    0.0000   -0.0000    0.0068   -0.0000   -0.0000    0.0000    0.0165
       21 O1     4d1+       0.0000    0.0038   -0.0004   -0.0000   -0.0000    0.0011    0.0000    0.0000    0.0000    0.0148
       22 O1     3d2+       0.0165   -0.0000   -0.0000    0.0436    0.0283    0.0000    0.0379   -0.0047   -0.0540   -0.0000
       23 O1     4d2+       0.0031   -0.0000    0.0000    0.0280    0.0173    0.0000    0.0127   -0.0014   -0.0335   -0.0000
       24 O1     4f3-      -0.0041    0.0000    0.0000   -0.0003    0.0020    0.0000   -0.0008   -0.0053    0.0134   -0.0000
       25 O1     4f2-      -0.0000   -0.0051    0.0004   -0.0000    0.0000    0.0021   -0.0000   -0.0000   -0.0000   -0.0047
       26 O1     4f1-      -0.0004    0.0000   -0.0000   -0.0029   -0.0066   -0.0000    0.0014    0.0043   -0.0027    0.0000
       27 O1     4f0       -0.0000    0.0014    0.0014   -0.0000   -0.0000   -0.0009    0.0000    0.0000    0.0000    0.0066
       28 O1     4f1+      -0.0014    0.0000   -0.0000   -0.0031   -0.0028   -0.0000    0.0006    0.0053   -0.0035    0.0000
       29 O1     4f2+      -0.0000    0.0014   -0.0005    0.0000    0.0000    0.0007    0.0000   -0.0000    0.0000    0.0018
       30 O1     4f3+      -0.0042   -0.0000    0.0000   -0.0051   -0.0079   -0.0000    0.0054    0.0080   -0.0006    0.0000
       31 O2     1s         0.0000   -0.0000    0.0000    0.3110   -0.0000    0.0000   -0.0928    0.0000   -0.0172   -0.0000
       32 O2     2s         0.0000   -0.0000    0.0000    2.2530   -0.0000    0.0000   -0.7289    0.0000   -0.1889   -0.0000
       33 O2     3s         0.0000   -0.0000    0.0000    1.2707   -0.0000    0.0000   -0.2210    0.0000   -0.0147   -0.0000
       34 O2     4s         0.0000   -0.0000    0.0000    0.2722   -0.0000    0.0000   -0.0443    0.0000    0.0271   -0.0000
       35 O2     2px       -0.0000   -0.0000    0.0000    0.8771   -0.0000    0.0000   -0.3273    0.0000   -0.7039    0.0000
       36 O2     3px       -0.0000   -0.0000    0.0000    0.9889   -0.0000    0.0000    0.2942    0.0000   -1.5540    0.0000
       37 O2     4px       -0.0000   -0.0000    0.0000    0.1510   -0.0000   -0.0000    0.1574    0.0000   -0.4108    0.0000
       38 O2     2py       -0.1503    0.0000    0.0000    0.0000    1.2591    0.0000    0.0000   -0.2089   -0.0000    0.0000
       39 O2     3py       -0.0105    0.0000    0.0000    0.0000    1.1792    0.0000    0.0000    0.5143    0.0000    0.0000
       40 O2     4py       -0.0016   -0.0000    0.0000    0.0000    0.1254    0.0000    0.0000    0.2424    0.0000    0.0000
       41 O2     2pz        0.0000    0.0000   -0.8478    0.0000   -0.0000    0.0564    0.0000    0.0000    0.0000    0.0000
       42 O2     3pz       -0.0000    0.0000   -0.1815   -0.0000   -0.0000    0.4545    0.0000   -0.0000    0.0000    0.0000
       43 O2     4pz       -0.0000   -0.0000   -0.0218   -0.0000   -0.0000    0.2238    0.0000   -0.0000    0.0000    0.0000
       44 O2     3d2-      -0.0384    0.0000    0.0000    0.0000    0.1406    0.0000    0.0000    0.0913    0.0000   -0.0000
       45 O2     4d2-      -0.0069    0.0000    0.0000    0.0000    0.0891    0.0000    0.0000    0.0662    0.0000   -0.0000
       46 O2     3d1-      -0.0000   -0.0555   -0.0000   -0.0000    0.0000   -0.0000    0.0000    0.0000    0.0000    0.0875
       47 O2     4d1-      -0.0000   -0.0133   -0.0000   -0.0000    0.0000   -0.0000    0.0000    0.0000    0.0000    0.0526
       48 O2     3d0        0.0000    0.0000   -0.0000   -0.0924    0.0000   -0.0000   -0.0558   -0.0000    0.0783    0.0000
       49 O2     4d0        0.0000    0.0000   -0.0000   -0.0604    0.0000   -0.0000   -0.0321   -0.0000    0.0582    0.0000
       50 O2     3d1+       0.0000    0.0000    0.0100    0.0000    0.0000   -0.0264    0.0000   -0.0000    0.0000    0.0000
       51 O2     4d1+      -0.0000    0.0000    0.0021   -0.0000    0.0000   -0.0081    0.0000   -0.0000    0.0000    0.0000
       52 O2     3d2+       0.0000    0.0000   -0.0000   -0.0256    0.0000    0.0000   -0.0538    0.0000   -0.0743    0.0000
       53 O2     4d2+       0.0000    0.0000   -0.0000   -0.0101    0.0000    0.0000   -0.0198    0.0000   -0.0544    0.0000
       54 O2     4f3-      -0.0097    0.0000    0.0000   -0.0000   -0.0014    0.0000    0.0000    0.0088    0.0000   -0.0000
       55 O2     4f2-      -0.0000   -0.0091   -0.0000   -0.0000    0.0000   -0.0000    0.0000    0.0000    0.0000    0.0091
       56 O2     4f1-       0.0010   -0.0000   -0.0000   -0.0000   -0.0068   -0.0000   -0.0000   -0.0132   -0.0000   -0.0000
       57 O2     4f0       -0.0000    0.0000   -0.0019    0.0000    0.0000   -0.0041   -0.0000    0.0000   -0.0000   -0.0000
       58 O2     4f1+      -0.0000    0.0000   -0.0000   -0.0091    0.0000   -0.0000   -0.0084   -0.0000    0.0157   -0.0000
       59 O2     4f2+       0.0000    0.0000    0.0009   -0.0000   -0.0000   -0.0009   -0.0000   -0.0000   -0.0000   -0.0000
       60 O2     4f3+       0.0000    0.0000   -0.0000   -0.0120    0.0000    0.0000   -0.0076   -0.0000    0.0127   -0.0000
       61 O3     1s        -0.0046    0.0000   -0.0000   -0.1488    0.1824    0.0000   -0.0063    0.0174    0.0722   -0.0000
       62 O3     2s        -0.0234    0.0000   -0.0000   -1.0656    1.3677    0.0000    0.0605    0.0098    0.4007   -0.0000
       63 O3     3s        -0.0152    0.0000   -0.0000   -0.6257    0.7922    0.0000   -0.1075    0.0440    0.4651   -0.0000
       64 O3     4s        -0.0038    0.0000   -0.0000   -0.1328    0.1800    0.0000   -0.0381    0.0061    0.1365   -0.0000
       65 O3     2px        0.4889   -0.0000    0.0000    0.3145   -0.5341   -0.0000   -0.3164    0.3118    0.2392   -0.0000
       66 O3     3px        0.0194   -0.0000   -0.0000    0.3913   -0.4456   -0.0000    0.0575    0.7253    0.7846   -0.0000
       67 O3     4px       -0.0021   -0.0000   -0.0000    0.0741   -0.0359   -0.0000    0.0842    0.2836    0.2871   -0.0000
       68 O3     2py        0.5626   -0.0000   -0.0000   -0.7027    0.4905    0.0000    0.4396   -0.3181    0.1011   -0.0000
       69 O3     3py        0.0013    0.0000   -0.0000   -0.5826    0.6599    0.0000    0.5361   -0.1792    0.1158   -0.0000
       70 O3     4py       -0.0037    0.0000   -0.0000   -0.0392    0.1172    0.0000    0.2039   -0.0331   -0.0190   -0.0000
       71 O3     2pz        0.0000    0.7142    0.6590    0.0000    0.0000   -0.1758   -0.0000    0.0000    0.0000    0.1988
       72 O3     3pz        0.0000    0.0401    0.1595   -0.0000   -0.0000    0.2748    0.0000    0.0000    0.0000    0.9766
       73 O3     4pz       -0.0000   -0.0061    0.0242   -0.0000   -0.0000    0.1780    0.0000    0.0000    0.0000    0.3871
       74 O3     3d2-      -0.0059   -0.0000    0.0000    0.0619   -0.0793   -0.0000   -0.0020   -0.0041    0.0291    0.0000
       75 O3     4d2-       0.0000   -0.0000    0.0000    0.0417   -0.0490   -0.0000   -0.0108    0.0143    0.0270    0.0000
       76 O3     3d1-       0.0000    0.0200   -0.0059    0.0000    0.0000   -0.0226   -0.0000    0.0000   -0.0000    0.0029
       77 O3     4d1-       0.0000    0.0051    0.0002   -0.0000    0.0000   -0.0116   -0.0000    0.0000   -0.0000    0.0112
       78 O3     3d0       -0.0033    0.0000   -0.0000    0.0433   -0.0554   -0.0000    0.0131    0.0012    0.0023    0.0000
       79 O3     4d0        0.0001    0.0000   -0.0000    0.0266   -0.0368   -0.0000    0.0022    0.0086    0.0107    0.0000
       80 O3     3d1+      -0.0000   -0.0156    0.0054   -0.0000   -0.0000    0.0068    0.0000   -0.0000   -0.0000   -0.0165
       81 O3     4d1+      -0.0000   -0.0038   -0.0004   -0.0000   -0.0000    0.0011    0.0000   -0.0000   -0.0000   -0.0148
       82 O3     3d2+      -0.0165   -0.0000    0.0000    0.0436   -0.0283   -0.0000    0.0379    0.0047   -0.0540    0.0000
       83 O3     4d2+      -0.0031   -0.0000    0.0000    0.0280   -0.0173   -0.0000    0.0127    0.0014   -0.0335    0.0000
       84 O3     4f3-      -0.0041    0.0000   -0.0000    0.0003    0.0020    0.0000    0.0008   -0.0053   -0.0134    0.0000
       85 O3     4f2-      -0.0000   -0.0051   -0.0004    0.0000   -0.0000   -0.0021    0.0000   -0.0000   -0.0000   -0.0047
       86 O3     4f1-      -0.0004    0.0000    0.0000    0.0029   -0.0066   -0.0000   -0.0014    0.0043    0.0027    0.0000
       87 O3     4f0       -0.0000   -0.0014    0.0014    0.0000   -0.0000   -0.0009   -0.0000   -0.0000   -0.0000   -0.0066
       88 O3     4f1+       0.0014   -0.0000   -0.0000   -0.0031    0.0028    0.0000    0.0006   -0.0053   -0.0035   -0.0000
       89 O3     4f2+      -0.0000   -0.0014   -0.0005    0.0000   -0.0000    0.0007   -0.0000    0.0000    0.0000   -0.0018
       90 O3     4f3+       0.0042   -0.0000   -0.0000   -0.0051    0.0079    0.0000    0.0054   -0.0080   -0.0006    0.0000
 
          Orbital           21        22    
          Energy            0.4092    0.4331
          Occ. No.          0.0000    0.0000
 
        1 O1     1s         0.0013   -0.0515
        2 O1     2s         0.0620   -0.2542
        3 O1     3s        -0.1779   -0.2383
        4 O1     4s        -0.0570   -0.0346
        5 O1     2px       -0.3569    0.0407
        6 O1     3px        0.1837    0.2528
        7 O1     4px        0.0910    0.0208
        8 O1     2py       -0.0511   -0.0680
        9 O1     3py        0.5771    0.7763
       10 O1     4py        0.1899    0.2394
       11 O1     2pz       -0.0000    0.0000
       12 O1     3pz       -0.0000   -0.0000
       13 O1     4pz       -0.0000   -0.0000
       14 O1     3d2-      -0.0822   -0.1533
       15 O1     4d2-      -0.0474   -0.0929
       16 O1     3d1-      -0.0000   -0.0000
       17 O1     4d1-      -0.0000   -0.0000
       18 O1     3d0        0.0721    0.0488
       19 O1     4d0        0.0454    0.0274
       20 O1     3d1+       0.0000   -0.0000
       21 O1     4d1+       0.0000    0.0000
       22 O1     3d2+       0.0091    0.0612
       23 O1     4d2+       0.0152    0.0328
       24 O1     4f3-       0.0032    0.0004
       25 O1     4f2-      -0.0000   -0.0000
       26 O1     4f1-      -0.0098   -0.0076
       27 O1     4f0        0.0000   -0.0000
       28 O1     4f1+      -0.0066   -0.0056
       29 O1     4f2+      -0.0000    0.0000
       30 O1     4f3+      -0.0070   -0.0174
       31 O2     1s         0.0000    0.1812
       32 O2     2s         0.0000    0.9591
       33 O2     3s         0.0000    0.9723
       34 O2     4s         0.0000    0.2158
       35 O2     2px       -0.0000   -0.1524
       36 O2     3px        0.0000    0.2223
       37 O2     4px       -0.0000   -0.0550
       38 O2     2py       -0.8013    0.0000
       39 O2     3py       -0.3304    0.0000
       40 O2     4py       -0.1406    0.0000
       41 O2     2pz       -0.0000   -0.0000
       42 O2     3pz       -0.0000   -0.0000
       43 O2     4pz       -0.0000   -0.0000
       44 O2     3d2-       0.1608   -0.0000
       45 O2     4d2-       0.0553   -0.0000
       46 O2     3d1-       0.0000    0.0000
       47 O2     4d1-       0.0000    0.0000
       48 O2     3d0       -0.0000   -0.1628
       49 O2     4d0       -0.0000   -0.0731
       50 O2     3d1+      -0.0000   -0.0000
       51 O2     4d1+      -0.0000   -0.0000
       52 O2     3d2+      -0.0000   -0.0475
       53 O2     4d2+      -0.0000   -0.0119
       54 O2     4f3-       0.0037   -0.0000
       55 O2     4f2-       0.0000    0.0000
       56 O2     4f1-       0.0029   -0.0000
       57 O2     4f0        0.0000    0.0000
       58 O2     4f1+      -0.0000   -0.0063
       59 O2     4f2+       0.0000    0.0000
       60 O2     4f3+      -0.0000   -0.0116
       61 O3     1s        -0.0013   -0.0515
       62 O3     2s        -0.0620   -0.2542
       63 O3     3s         0.1779   -0.2383
       64 O3     4s         0.0570   -0.0346
       65 O3     2px        0.3569    0.0407
       66 O3     3px       -0.1837    0.2528
       67 O3     4px       -0.0910    0.0208
       68 O3     2py       -0.0511    0.0680
       69 O3     3py        0.5771   -0.7763
       70 O3     4py        0.1899   -0.2394
       71 O3     2pz        0.0000    0.0000
       72 O3     3pz        0.0000    0.0000
       73 O3     4pz        0.0000    0.0000
       74 O3     3d2-      -0.0822    0.1533
       75 O3     4d2-      -0.0474    0.0929
       76 O3     3d1-       0.0000    0.0000
       77 O3     4d1-       0.0000    0.0000
       78 O3     3d0       -0.0721    0.0488
       79 O3     4d0       -0.0454    0.0274
       80 O3     3d1+      -0.0000   -0.0000
       81 O3     4d1+      -0.0000   -0.0000
       82 O3     3d2+      -0.0091    0.0612
       83 O3     4d2+      -0.0152    0.0328
       84 O3     4f3-       0.0032   -0.0004
       85 O3     4f2-      -0.0000   -0.0000
       86 O3     4f1-      -0.0098    0.0076
       87 O3     4f0       -0.0000   -0.0000
       88 O3     4f1+       0.0066   -0.0056
       89 O3     4f2+      -0.0000   -0.0000
       90 O3     4f3+       0.0070   -0.0174
--
 
 
++    Molecular charges:
      ------------------
 
      Mulliken charges per centre and basis function type
      ---------------------------------------------------
 
                O1      O2      O3    
      1s       1.9980  1.9979  1.9980
      2s       1.9422  1.7330  1.9422
      2px      1.5850  1.4764  1.5850
      2pz      1.3630  1.1983  1.3630
      2py      1.2504  1.0754  1.2504
      3s      -0.0011 -0.0198 -0.0011
      3px     -0.0105 -0.0087 -0.0105
      3pz     -0.0137 -0.0127 -0.0137
      3py      0.0032 -0.0014  0.0032
      4s       0.0045  0.0022  0.0045
      3d2+     0.0077  0.0381  0.0077
      3d1+     0.0058  0.0113  0.0058
      3d0      0.0055  0.0074  0.0055
      3d1-     0.0092  0.0416  0.0092
      3d2-     0.0200  0.0413  0.0200
      4px      0.0010  0.0022  0.0010
      4pz      0.0012  0.0016  0.0012
      4py      0.0019  0.0029  0.0019
      4d2+    -0.0004  0.0082 -0.0004
      4d1+     0.0011  0.0017  0.0011
      4d0     -0.0001 -0.0001 -0.0001
      4d1-     0.0005  0.0108  0.0005
      4d2-     0.0009  0.0035  0.0009
      4f3+     0.0030  0.0038  0.0030
      4f2+     0.0002  0.0004  0.0002
      4f1+     0.0005  0.0007  0.0005
      4f0      0.0009  0.0016  0.0009
      4f1-     0.0008  0.0011  0.0008
      4f2-     0.0020  0.0050  0.0020
      4f3-     0.0020  0.0072  0.0020
      Total    8.1846  7.6308  8.1846
 
      N-E     -0.1846  0.3692 -0.1846
 
      Total electronic charge=   24.000000
 
      Total            charge=   -0.000000
--
 
 
  Input file to MOLDEN was generated!
 
 
++    Static properties:
      ------------------
 
 
      LoProp Charges per center
 

                   O1       O2       O3    
      Nuclear      8.0000   8.0000   8.0000
      Electronic  -8.2090  -7.5820  -8.2090
 
      Total       -0.2090   0.4180  -0.2090
--
 
 
++    Natural Bond Order analysis
      ---------------------------
      Based on LoProp computed density
      -------------------------------------------------------------------------------------
      Atom A       Atom B       Bond Order | Atom A       Atom B       Bond Order
        O1           O2             1.998  |   O2           O3             1.998
      -------------------------------------------------------------------------------------
      NBO located      9.999 core electrons.
      NBO located      5.946 lone pair electrons.
      NBO located      7.992 electrons involved in    2 bonds.
      The remaining    0.063 electrons are to be considered as diffuse
--
 
 
++    Molecular properties:
      ---------------------
 
      Charge (e):
                      =   -0.0000
      Dipole Moment (Debye):
      Origin of the operator (Ang)=    0.0000    0.0000    0.0000
                   X= -9.5304E-01               Y= -1.1747E-09               Z=  1.7686E-13           Total=  9.5304E-01
      Quadrupole Moment (Debye*Ang):
      Origin of the operator (Ang)=    0.5008    0.0000    0.0000
                  XX= -1.5468E+01              XY= -3.0864E-10              XZ=  3.8388E-14              YY= -1.7485E+01
                  YZ=  1.7227E-13              ZZ= -1.4885E+01
      In traceless form (Debye*Ang)
                  XX=  7.1715E-01              XY= -4.6295E-10              XZ=  5.7582E-14              YY= -2.3089E+00
                  YZ=  2.5840E-13              ZZ=  1.5918E+00
--
 
 
  Input file to MOLDEN was generated!
 
 ###############################################################################
 ###############################################################################
 ###                                                                         ###
 ###                                                                         ###
 ###    RunFile label nBas                                                   ###
 ###    was used       78 times                                              ###
 ###                                                                         ###
 ###                                                                         ###
 ###############################################################################
 ###############################################################################
forrtl: warning (528): IEEE_UNDERFLOW is signaling
--- Stop Module: scf at Fri Apr 25 10:26:27 2025 /rc=_RC_ALL_IS_WELL_ ---
*** files: ozone_108.00.LprOrb ozone_108.00.LoProp.molden ozone_108.00.scf.molden ozone_108.00.ScfOrb ozone_108.00.scf.h5 xmldump
    saved to directory /home/grierjones/DDCASPT2/ozone/multistate/ANO-RCC-VTZP/ozone_108.00

>>> COPY /tmp/ozone_108.00/ozone_108.00.scf.h5 /home/grierjones/DDCASPT2/ozone/multistate/ANO-RCC-VTZP/ozone_108.00/

*** symbolic link created: INPORB -> ozone_108.00.ScfOrb
--- Start Module: rasscf at Fri Apr 25 10:26:27 2025 ---
 
()()()()()()()()()()()()()()()()()()()()()()()()()()()()()()()()()()()()()()()()()()()()()()()()()()

                                              &RASSCF

                                   only a single process is used
                       available to each process: 2.0 GB of memory, 1 thread?
()()()()()()()()()()()()()()()()()()()()()()()()()()()()()()()()()()()()()()()()()()()()()()()()()()
 
 
      Header of the ONEINT file:
      --------------------------
      
      Integrals generated by seward 4.2.0  , Fri Apr 25 10:26:24 2025
 
 
      OrdInt status: non-squared
 
 
      Cartesian coordinates in Angstrom:
      -----------------------------------------------------
      No.  Label        X            Y            Z        
      -----------------------------------------------------
       1   O1         0.75119000   1.03392400   0.00000000
       2   O2         0.00000000   0.00000000   0.00000000
       3   O3         0.75119000  -1.03392400   0.00000000
      -----------------------------------------------------
      Nuclear repulsion energy =   69.37857544
 
++    Wave function specifications:
      -----------------------------
 
      Number of closed shell electrons          12
      Number of electrons in active shells      12
      Max number of holes in RAS1 space          0
      Max nr of electrons in RAS3 space          0
      Number of inactive orbitals                6
      Number of active orbitals                  9
      Number of secondary orbitals              75
      Spin quantum number                      0.0
      State symmetry                             1
--
 
++    Orbital specifications:
      -----------------------
 
      Symmetry species                           1
                                                 a
      Frozen orbitals                            0
      Inactive orbitals                          6
      Active orbitals                            9
      RAS1 orbitals                              0
      RAS2 orbitals                              9
      RAS3 orbitals                              0
      Secondary orbitals                        75
      Deleted orbitals                           0
      Number of basis functions                 90
--
 
++    CI expansion specifications:
      ----------------------------
 
      Number of CSFs                          2520
      Number of determinants                  3570
      Number of root(s) required                 3
      Root chosen for geometry opt.              3
      CI roots used                              1     2     3
      weights                                0.333 0.333 0.333
      highest root included in the CI            3
      max. size of the explicit Hamiltonian    500
--
 
++    Optimization specifications:
      ----------------------------
 
      RASSCF algorithm: Conventional
      Maximum number of macro iterations       200
      Maximum number of SX iterations          100
      Threshold for RASSCF energy            0.100E-07
      Threshold for max MO rotation          0.100E+00
      Threshold for max BLB element          0.100E-03
      Level shift parameter                  0.500E+00
      Make Quasi-Newton update
--
 
      The MO-coefficients are taken from the file:
      /home/grierjones/DDCASPT2/ozone/multistate/ANO-RCC-VTZP/ozone_107.00/ozone_107.00.RasOrb                                        
      Title: RASSCF average (pseudo-natural) orbitals                                      
 
      Total molecular charge    0.00
 
      ************************************************************************************************************************
      *                                                                                                                      *
      *                                            Wave function control section                                             *
      *                                                                                                                      *
      ************************************************************************************************************************
 
 
                                         RASSCF iterations: Energy and convergence statistics
                                         ----------------------------------------------------
 
      Iter CI   SX   CI       RASSCF       Energy    max ROT     max BLB   max BLB  Level Ln srch  Step   QN   Walltime
          iter iter root      energy       change     param      element    value   shift minimum  type update hh:mm:ss
 Nr of preliminary CI iterations:   5
        1   1    7    0  -224.67985136    0.00E+00  -0.16E-02    7  75 1 -0.40E-02*  0.00   0.00    SX    NO    0:00:00
        2   1    6    0  -224.67988416   -0.33E-04*  0.46E-03    4  14 1  0.50E-03*  0.00   0.00    SX    NO    0:00:00
        3   2    6    0  -224.67989121   -0.71E-05*  0.30E-03    4  14 1  0.29E-03*  0.00   0.00    SX    NO    0:00:00
        4   5    6    0  -224.67989338   -0.22E-05*  0.21E-03    4  14 1  0.15E-03*  0.00   0.00    SX    NO    0:00:00
        5   5    6    0  -224.67989357   -0.19E-06*  0.16E-03    6  21 1  0.65E-04   0.00   1.34    QN   YES    0:00:00
        6   4    5    0  -224.67989362   -0.45E-07* -0.44E-04    9  47 1  0.19E-04   0.00   0.92    QN   YES    0:00:00
        7   1    5    0  -224.67989362   -0.27E-08  -0.67E-04    6  50 1  0.24E-04   0.00   1.06    QN   YES    0:00:00
      Convergence after  7 iterations
 
  Dmat in MO in SXCTL bf call to SXHAM                                                                                    
  mat. size =     9x    9
 
        1.9621970894238037
        0.0000000023514435      1.9519337758609212
       -0.0000000000075769     -0.0000000037777872      1.9750836515738255
        0.0024184923021489     -0.0000000047773231     -0.0000000006026246      1.6894744690068879
        0.0000000006874125     -0.0023102968426229     -0.0000001127061763     -0.0000000001332195      1.6289229267718572
        0.0000000029990252     -0.0000000000318470      0.0000000013321037     -0.0000002078509238     -0.0000000001926728
        1.7638670339070928
       -0.0000000000718799     -0.0000000696889921      0.0012563595585423      0.0000000000829349      0.0000001555039219
        0.0000000044059160      0.9259947051465318
        0.0040052168708199     -0.0000000020926937      0.0000000000518509      0.0116109539586556     -0.0000000085631286
        0.0000000383534100     -0.0000000001155365      0.0536459844059600
       -0.0000000039712803     -0.0004445318486012     -0.0000000057780796     -0.0000000059764580     -0.0073819889664990
        0.0000000001013313     -0.0000000171483946     -0.0000000031654436      0.0488803639030874
        8   1    5    0  -224.67989362   -0.15E-08  -0.67E-04    6  50 1  0.83E-05   0.00   1.06    QN   YES    0:00:00
 
      ************************************************************************************************************************
                                                      Wave function printout:
                       occupation of active orbitals, and spin coupling of open shells (u,d: Spin up or down)
      ************************************************************************************************************************
 
      Note: transformation to natural orbitals
      has been made, which may change the order of the CSFs.
 
      printout of CI-coefficients larger than  0.05 for root  1
      energy=    -224.731503
      conf/sym  111111111     Coeff  Weight
             1  222222000   0.89172 0.79516
             4  222220200  -0.34420 0.11847
            72  222u2du0d   0.05329 0.00284
            74  222u2ud0d   0.05074 0.00257
           126  22u222d00   0.06677 0.00446
           205  2u222dud0  -0.06262 0.00392
           207  2u222udd0  -0.05253 0.00276
           551  220222200  -0.06745 0.00455
           611  2ud222u0d  -0.06547 0.00429
           652  u2d222ud0   0.05905 0.00349
           731  202222002  -0.06632 0.00440
           764  ud22220ud   0.07503 0.00563
           805  022222020  -0.06325 0.00400
           992  2uu222d0d  -0.06756 0.00456
          1031  u2u222dd0   0.05512 0.00304
 
      printout of CI-coefficients larger than  0.05 for root  2
      energy=    -224.668266
      conf/sym  111111111     Coeff  Weight
             3  2222u2d00  -0.88013 0.77463
            52  222u2d200   0.38899 0.15131
           128  22u2d2200   0.06394 0.00409
           277  u2222d200  -0.05398 0.00291
           361  222022u0d  -0.05552 0.00308
           613  2ud2u220d   0.05200 0.00270
           654  u2d2u22d0  -0.05363 0.00288
           733  2022u2d02   0.06927 0.00480
           766  ud22u2dud  -0.07942 0.00631
           807  0222u2d20   0.06816 0.00465
           994  2uu2d220d   0.06166 0.00380
          1033  u2u2d22d0  -0.05283 0.00279
 
      printout of CI-coefficients larger than  0.05 for root  3
      energy=    -224.639912
      conf/sym  111111111     Coeff  Weight
             5  2222ud200   0.49464 0.24467
            51  222u22d00  -0.83053 0.68979
           202  2u222d200  -0.05908 0.00349
           768  ud22ud2ud   0.05366 0.00288
          1381  202u22d02   0.06519 0.00425
          1406  ud2u22dud  -0.07673 0.00589
          1442  022u22d20   0.06423 0.00412
          1485  2uud2220d   0.05775 0.00333
 
      Natural orbitals and occupation numbers for root  1
      sym 1:   1.956140   1.948483   1.964242   1.993287   1.992872   1.724196   0.311271   0.057115   0.052394
 
      Natural orbitals and occupation numbers for root  2
      sym 1:   1.960129   1.954803   1.983788   1.813995   1.173180   1.832596   1.181270   0.052182   0.048057
 
      Natural orbitals and occupation numbers for root  3
      sym 1:   1.964925   1.953522   1.985240   1.267771   1.720836   1.734809   1.277424   0.050408   0.045065
 
      ************************************************************************************************************************
      *                                                                                                                      *
      *                                                    Final results                                                     *
      *                                                                                                                      *
      ************************************************************************************************************************
 
 
++    Wave function specifications:
      -----------------------------
 
      Number of closed shell electrons          12
      Number of electrons in active shells      12
      Max number of holes in RAS1 space          0
      Max nr of electrons in RAS3 space          0
      Number of inactive orbitals                6
      Number of active orbitals                  9
      Number of secondary orbitals              75
      Spin quantum number                      0.0
      State symmetry                             1
--
 
++    Orbital specifications:
      -----------------------
 
      Symmetry species                           1
                                                 a
      Frozen orbitals                            0
      Inactive orbitals                          6
      Active orbitals                            9
      RAS1 orbitals                              0
      RAS2 orbitals                              9
      RAS3 orbitals                              0
      Secondary orbitals                        75
      Deleted orbitals                           0
      Number of basis functions                 90
--
 
++    CI expansion specifications:
      ----------------------------
 
      Number of CSFs                          2520
      Number of determinants                  3570
      Number of root(s) required                 3
      CI roots used                              1     2     3
      weights                                0.333 0.333 0.333
      highest root included in the CI            3
      Root passed to geometry opt.               3
--
 
++    Final optimization conditions:
      ------------------------------
 
      Average CI energy                            -224.67989362
      RASSCF energy for state  3                   -224.63991225
      Super-CI energy                                -0.00000000
      RASSCF energy change                            0.00000000
      Max change in MO coefficients               0.736E-04
      Max non-diagonal density matrix element    -0.670E-04
      Maximum BLB matrix element                  0.825E-05
      (orbital pair   6,  50 in symmetry   1)
      Norm of electronic gradient            0.667E-01
--
 
 
      Final state energy(ies):
      ------------------------
 
::    RASSCF root number  1 Total energy:   -224.73150253
::    RASSCF root number  2 Total energy:   -224.66826609
::    RASSCF root number  3 Total energy:   -224.63991225
 
++    Molecular orbitals:
      -------------------
 
      Pseudonatural active orbitals and approximate occupation numbers
 
 
 
 
      Molecular orbitals for symmetry species 1: a  
 
 
      Orbital                1         2         3         4         5         6         7         8         9        10
      Energy          -20.7993  -20.6942  -20.6941   -1.5131   -1.2832   -1.0703    0.0000    0.0000    0.0000    0.0000
      Occ. No.          2.0000    2.0000    2.0000    2.0000    2.0000    2.0000    1.9622    1.9520    1.9751    1.6895
 
    1 O1     1s         0.0036   -0.7065    0.7064   -0.0058   -0.0005    0.0098   -0.0186   -0.0240    0.0000    0.0002
    2 O1     2s         0.0045    0.0043   -0.0046    0.4746   -0.7112    0.5388   -0.1061   -0.1022   -0.0000   -0.0413
    3 O1     3s         0.0025    0.0033   -0.0034    0.0037   -0.0083    0.0174   -0.0353   -0.0548    0.0000    0.0084
    4 O1     4s         0.0004    0.0006   -0.0005    0.0016   -0.0009    0.0018   -0.0060   -0.0113    0.0000    0.0028
    5 O1     2px       -0.0013   -0.0012    0.0012   -0.0088   -0.0628    0.0821   -0.0827   -0.3103   -0.0000    0.6462
    6 O1     3px       -0.0009   -0.0014    0.0013    0.0112    0.0051   -0.0202    0.0080    0.0356   -0.0000   -0.0027
    7 O1     4px        0.0002    0.0007   -0.0008    0.0013    0.0009    0.0009    0.0010    0.0018    0.0000   -0.0075
    8 O1     2py       -0.0025   -0.0016    0.0017    0.0636   -0.0776    0.0471   -0.3703   -0.3056    0.0000   -0.2313
    9 O1     3py       -0.0014   -0.0019    0.0019   -0.0022    0.0031   -0.0101    0.0452    0.0381   -0.0000   -0.0062
   10 O1     4py        0.0007    0.0011   -0.0011   -0.0018   -0.0017    0.0022    0.0027    0.0034   -0.0000    0.0023
   11 O1     2pz       -0.0000   -0.0000    0.0000   -0.0000    0.0000    0.0000   -0.0000    0.0000    0.3304    0.0000
   12 O1     3pz       -0.0000    0.0000   -0.0000   -0.0000    0.0000    0.0000   -0.0000   -0.0000   -0.0275   -0.0000
   13 O1     4pz        0.0000   -0.0000    0.0000   -0.0000   -0.0000   -0.0000    0.0000   -0.0000   -0.0048   -0.0000
   14 O1     3d2-       0.0006    0.0009   -0.0009    0.0089   -0.0015   -0.0109    0.0198    0.0307   -0.0000   -0.0123
   15 O1     4d2-       0.0003    0.0005   -0.0006    0.0011   -0.0006   -0.0008    0.0017    0.0026   -0.0000   -0.0013
   16 O1     3d1-      -0.0000    0.0000   -0.0000   -0.0000    0.0000    0.0000    0.0000   -0.0000   -0.0220   -0.0000
   17 O1     4d1-       0.0000   -0.0000    0.0000   -0.0000    0.0000    0.0000    0.0000   -0.0000   -0.0025   -0.0000
   18 O1     3d0       -0.0004   -0.0006    0.0005   -0.0042    0.0013    0.0036   -0.0142   -0.0168    0.0000    0.0023
   19 O1     4d0       -0.0002   -0.0004    0.0003   -0.0000    0.0007   -0.0001   -0.0004   -0.0013    0.0000   -0.0006
   20 O1     3d1+       0.0000   -0.0000    0.0000    0.0000   -0.0000   -0.0000   -0.0000   -0.0000   -0.0154   -0.0000
   21 O1     4d1+       0.0000    0.0000    0.0000    0.0000   -0.0000   -0.0000   -0.0000   -0.0000   -0.0020   -0.0000
   22 O1     3d2+      -0.0005   -0.0003    0.0003    0.0023    0.0010   -0.0033   -0.0224   -0.0014    0.0000   -0.0099
   23 O1     4d2+      -0.0003   -0.0002    0.0002    0.0003    0.0006   -0.0002   -0.0014    0.0001    0.0000   -0.0021
   24 O1     4f3-       0.0001   -0.0001    0.0001   -0.0020    0.0005    0.0025    0.0025   -0.0044   -0.0000    0.0033
   25 O1     4f2-      -0.0000    0.0000   -0.0000   -0.0000    0.0000   -0.0000   -0.0000    0.0000    0.0055    0.0000
   26 O1     4f1-       0.0001    0.0001   -0.0001    0.0015   -0.0010   -0.0004    0.0041    0.0037   -0.0000   -0.0004
   27 O1     4f0        0.0000   -0.0000    0.0000   -0.0000    0.0000    0.0000    0.0000   -0.0000   -0.0044   -0.0000
   28 O1     4f1+       0.0000    0.0001   -0.0001    0.0015   -0.0008   -0.0010    0.0017    0.0034   -0.0000   -0.0012
   29 O1     4f2+      -0.0000    0.0000   -0.0000   -0.0000    0.0000    0.0000    0.0000   -0.0000   -0.0021   -0.0000
   30 O1     4f3+       0.0001    0.0002   -0.0002    0.0023   -0.0015   -0.0012    0.0070    0.0059   -0.0000   -0.0010
   31 O2     1s         0.9987   -0.0000   -0.0027   -0.0179   -0.0000   -0.0188   -0.0255   -0.0000    0.0000    0.0202
   32 O2     2s        -0.0083    0.0000    0.0096    0.5614   -0.0000   -0.7624    0.1401    0.0000   -0.0000    0.2125
   33 O2     3s        -0.0062    0.0000    0.0054   -0.0331   -0.0000   -0.0315   -0.0571   -0.0000    0.0000    0.0548
   34 O2     4s        -0.0010    0.0000    0.0009   -0.0059   -0.0000   -0.0056   -0.0112   -0.0000    0.0000    0.0121
   35 O2     2px       -0.0026    0.0000    0.0039   -0.1982    0.0000    0.2918    0.6520    0.0000   -0.0000   -0.2714
   36 O2     3px       -0.0030    0.0000    0.0022   -0.0134   -0.0000   -0.0293   -0.0641   -0.0000    0.0000   -0.0154
   37 O2     4px        0.0021   -0.0000   -0.0008    0.0024   -0.0000   -0.0000   -0.0084   -0.0000    0.0000   -0.0021
   38 O2     2py        0.0000   -0.0048    0.0000    0.0000   -0.0294   -0.0000   -0.0000    0.6237   -0.0000   -0.0000
   39 O2     3py        0.0000   -0.0027    0.0000   -0.0000    0.0305    0.0000    0.0000   -0.0748    0.0000    0.0000
   40 O2     4py       -0.0000    0.0011   -0.0000   -0.0000   -0.0051    0.0000    0.0000   -0.0048   -0.0000    0.0000
   41 O2     2pz       -0.0000   -0.0000    0.0000    0.0000   -0.0000    0.0000    0.0000    0.0000    0.7459   -0.0000
   42 O2     3pz        0.0000    0.0000    0.0000   -0.0000    0.0000    0.0000   -0.0000   -0.0000   -0.0480    0.0000
   43 O2     4pz       -0.0000    0.0000   -0.0000   -0.0000    0.0000    0.0000   -0.0000   -0.0000   -0.0123    0.0000
   44 O2     3d2-       0.0000   -0.0014    0.0000    0.0000   -0.0208   -0.0000   -0.0000    0.0502   -0.0000   -0.0000
   45 O2     4d2-       0.0000   -0.0006    0.0000    0.0000   -0.0019   -0.0000   -0.0000    0.0046   -0.0000   -0.0000
   46 O2     3d1-       0.0000   -0.0000    0.0000   -0.0000    0.0000   -0.0000   -0.0000   -0.0000    0.0000    0.0000
   47 O2     4d1-      -0.0000   -0.0000    0.0000   -0.0000    0.0000   -0.0000   -0.0000   -0.0000    0.0000    0.0000
   48 O2     3d0        0.0011   -0.0000   -0.0009   -0.0053   -0.0000   -0.0104   -0.0253   -0.0000    0.0000    0.0144
   49 O2     4d0        0.0007   -0.0000   -0.0005    0.0008    0.0000   -0.0011   -0.0016   -0.0000    0.0000    0.0016
   50 O2     3d1+       0.0000   -0.0000    0.0000    0.0000   -0.0000   -0.0000    0.0000    0.0000    0.0311   -0.0000
   51 O2     4d1+       0.0000   -0.0000   -0.0000    0.0000   -0.0000    0.0000    0.0000    0.0000    0.0037   -0.0000
   52 O2     3d2+       0.0002   -0.0000   -0.0005   -0.0115    0.0000    0.0057    0.0165    0.0000    0.0000    0.0383
   53 O2     4d2+      -0.0000   -0.0000   -0.0002   -0.0010    0.0000    0.0007    0.0024    0.0000    0.0000    0.0069
   54 O2     4f3-       0.0000   -0.0001    0.0000   -0.0000   -0.0020    0.0000   -0.0000   -0.0000   -0.0000    0.0000
   55 O2     4f2-       0.0000   -0.0000    0.0000    0.0000   -0.0000    0.0000    0.0000    0.0000    0.0000    0.0000
   56 O2     4f1-      -0.0000    0.0001   -0.0000   -0.0000    0.0031    0.0000    0.0000   -0.0077    0.0000    0.0000
   57 O2     4f0       -0.0000    0.0000   -0.0000   -0.0000    0.0000    0.0000   -0.0000   -0.0000   -0.0081    0.0000
   58 O2     4f1+       0.0002   -0.0000   -0.0001   -0.0020   -0.0000   -0.0017   -0.0065   -0.0000    0.0000    0.0004
   59 O2     4f2+      -0.0000   -0.0000   -0.0000   -0.0000   -0.0000   -0.0000   -0.0000   -0.0000   -0.0027    0.0000
   60 O2     4f3+       0.0002   -0.0000   -0.0002   -0.0055   -0.0000   -0.0002   -0.0062   -0.0000    0.0000    0.0071
   61 O3     1s         0.0036    0.7065    0.7064   -0.0058    0.0005    0.0098   -0.0186    0.0240   -0.0000    0.0002
   62 O3     2s         0.0045   -0.0043   -0.0046    0.4746    0.7112    0.5388   -0.1061    0.1022    0.0000   -0.0413
   63 O3     3s         0.0025   -0.0033   -0.0034    0.0037    0.0083    0.0174   -0.0353    0.0548   -0.0000    0.0084
   64 O3     4s         0.0004   -0.0006   -0.0005    0.0016    0.0009    0.0018   -0.0060    0.0113   -0.0000    0.0028
   65 O3     2px       -0.0013    0.0012    0.0012   -0.0088    0.0628    0.0821   -0.0827    0.3103    0.0000    0.6462
   66 O3     3px       -0.0009    0.0014    0.0013    0.0112   -0.0051   -0.0202    0.0080   -0.0356    0.0000   -0.0027
   67 O3     4px        0.0002   -0.0007   -0.0008    0.0013   -0.0009    0.0009    0.0010   -0.0018   -0.0000   -0.0075
   68 O3     2py        0.0025   -0.0016   -0.0017   -0.0636   -0.0776   -0.0471    0.3703   -0.3056    0.0000    0.2313
   69 O3     3py        0.0014   -0.0019   -0.0019    0.0022    0.0031    0.0101   -0.0452    0.0381   -0.0000    0.0062
   70 O3     4py       -0.0007    0.0011    0.0011    0.0018   -0.0017   -0.0022   -0.0027    0.0034   -0.0000   -0.0023
   71 O3     2pz        0.0000   -0.0000   -0.0000    0.0000    0.0000   -0.0000    0.0000    0.0000    0.3304   -0.0000
   72 O3     3pz        0.0000    0.0000    0.0000    0.0000    0.0000   -0.0000   -0.0000   -0.0000   -0.0275    0.0000
   73 O3     4pz       -0.0000   -0.0000   -0.0000    0.0000   -0.0000    0.0000   -0.0000   -0.0000   -0.0048    0.0000
   74 O3     3d2-      -0.0006    0.0009    0.0009   -0.0089   -0.0015    0.0109   -0.0198    0.0307   -0.0000    0.0123
   75 O3     4d2-      -0.0003    0.0005    0.0006   -0.0011   -0.0006    0.0008   -0.0017    0.0026   -0.0000    0.0013
   76 O3     3d1-      -0.0000   -0.0000   -0.0000   -0.0000   -0.0000    0.0000    0.0000    0.0000    0.0220   -0.0000
   77 O3     4d1-       0.0000    0.0000    0.0000   -0.0000   -0.0000    0.0000    0.0000    0.0000    0.0025   -0.0000
   78 O3     3d0       -0.0004    0.0006    0.0005   -0.0042   -0.0013    0.0036   -0.0142    0.0168   -0.0000    0.0023
   79 O3     4d0       -0.0002    0.0004    0.0003   -0.0000   -0.0007   -0.0001   -0.0004    0.0013   -0.0000   -0.0006
   80 O3     3d1+      -0.0000   -0.0000   -0.0000   -0.0000   -0.0000    0.0000    0.0000   -0.0000   -0.0154    0.0000
   81 O3     4d1+      -0.0000    0.0000   -0.0000   -0.0000   -0.0000    0.0000    0.0000   -0.0000   -0.0020    0.0000
   82 O3     3d2+      -0.0005    0.0003    0.0003    0.0023   -0.0010   -0.0033   -0.0224    0.0014   -0.0000   -0.0099
   83 O3     4d2+      -0.0003    0.0002    0.0002    0.0003   -0.0006   -0.0002   -0.0014   -0.0001   -0.0000   -0.0021
   84 O3     4f3-      -0.0001   -0.0001   -0.0001    0.0020    0.0005   -0.0025   -0.0025   -0.0044   -0.0000   -0.0033
   85 O3     4f2-      -0.0000   -0.0000   -0.0000   -0.0000   -0.0000   -0.0000   -0.0000   -0.0000   -0.0055    0.0000
   86 O3     4f1-      -0.0001    0.0001    0.0001   -0.0015   -0.0010    0.0004   -0.0041    0.0037   -0.0000    0.0004
   87 O3     4f0       -0.0000   -0.0000   -0.0000    0.0000    0.0000   -0.0000   -0.0000   -0.0000   -0.0044    0.0000
   88 O3     4f1+       0.0000   -0.0001   -0.0001    0.0015    0.0008   -0.0010    0.0017   -0.0034    0.0000   -0.0012
   89 O3     4f2+       0.0000    0.0000    0.0000    0.0000    0.0000   -0.0000   -0.0000   -0.0000   -0.0021    0.0000
   90 O3     4f3+       0.0001   -0.0002   -0.0002    0.0023    0.0015   -0.0012    0.0070   -0.0059    0.0000   -0.0010
 
 
      Orbital               11        12        13        14        15        16        17        18        19        20
      Energy            0.0000    0.0000    0.0000    0.0000    0.0000    0.1922    0.1954    0.2385    0.3442    0.3528
      Occ. No.          1.6289    1.7639    0.9260    0.0536    0.0488    0.0000    0.0000    0.0000    0.0000    0.0000
 
    1 O1     1s         0.0001    0.0000   -0.0000   -0.0337   -0.0394   -0.1815   -0.1514    0.0000    0.0574   -0.0057
    2 O1     2s        -0.0458   -0.0000   -0.0000   -0.3764   -0.4122   -1.3253   -1.0403    0.0000    0.4012    0.0397
    3 O1     3s         0.0045    0.0000    0.0000   -0.0561   -0.0791   -0.8221   -0.6626    0.0000    0.2304    0.0572
    4 O1     4s         0.0016    0.0000    0.0000   -0.0060   -0.0119   -0.1888   -0.1415    0.0000    0.0379    0.0204
    5 O1     2px       -0.5112    0.0000   -0.0000    0.3148    0.4706    0.4073    0.2279   -0.0000   -0.2340   -0.2123
    6 O1     3px       -0.0122    0.0000    0.0000   -0.0013   -0.0734    0.4381    0.4408   -0.0000    0.0716   -0.8128
    7 O1     4px        0.0043   -0.0000    0.0000   -0.0079   -0.0004    0.0353    0.0990   -0.0000    0.1247   -0.3145
    8 O1     2py        0.5469   -0.0000    0.0000    0.6148    0.4707    0.4036    0.5407    0.0000   -0.4052   -0.2615
    9 O1     3py        0.0035   -0.0000   -0.0000   -0.0790   -0.0032    0.7219    0.5565   -0.0000   -0.9403   -0.3264
   10 O1     4py       -0.0052    0.0000   -0.0000   -0.0049   -0.0117    0.1421    0.0257    0.0000   -0.2904   -0.0761
   11 O1     2pz       -0.0000   -0.7160    0.6500    0.0000   -0.0000    0.0000    0.0000   -0.0815    0.0000    0.0000
   12 O1     3pz        0.0000   -0.0039    0.0090    0.0000    0.0000   -0.0000    0.0000    0.3473    0.0000    0.0000
   13 O1     4pz        0.0000    0.0086   -0.0048   -0.0000   -0.0000   -0.0000    0.0000    0.1960    0.0000    0.0000
   14 O1     3d2-      -0.0008   -0.0000    0.0000   -0.0248   -0.0164   -0.0977   -0.0809   -0.0000    0.0769    0.0282
   15 O1     4d2-       0.0006   -0.0000    0.0000   -0.0089   -0.0077   -0.0576   -0.0509   -0.0000    0.0522    0.0316
   16 O1     3d1-       0.0000    0.0140    0.0028    0.0000    0.0000    0.0000   -0.0000    0.0168   -0.0000   -0.0000
   17 O1     4d1-       0.0000    0.0026    0.0004    0.0000    0.0000    0.0000   -0.0000    0.0077   -0.0000   -0.0000
   18 O1     3d0        0.0020    0.0000    0.0000    0.0099    0.0142    0.0688    0.0543   -0.0000   -0.0217   -0.0272
   19 O1     4d0       -0.0001   -0.0000    0.0000    0.0019    0.0066    0.0438    0.0316   -0.0000   -0.0144   -0.0239
   20 O1     3d1+       0.0000    0.0106    0.0033    0.0000    0.0000   -0.0000   -0.0000    0.0050   -0.0000    0.0000
   21 O1     4d1+       0.0000    0.0016    0.0004    0.0000    0.0000   -0.0000   -0.0000   -0.0003   -0.0000   -0.0000
   22 O1     3d2+       0.0169   -0.0000    0.0000    0.0076    0.0187    0.0295    0.0590   -0.0000   -0.0187   -0.0066
   23 O1     4d2+       0.0031   -0.0000   -0.0000    0.0037    0.0063    0.0200    0.0339   -0.0000   -0.0175   -0.0050
   24 O1     4f3-      -0.0036    0.0000   -0.0000    0.0013   -0.0015    0.0025   -0.0002   -0.0000    0.0031   -0.0072
   25 O1     4f2-      -0.0000   -0.0034   -0.0007   -0.0000   -0.0000   -0.0000    0.0000    0.0031    0.0000   -0.0000
   26 O1     4f1-      -0.0013   -0.0000   -0.0000   -0.0024   -0.0043   -0.0078   -0.0040    0.0000    0.0048    0.0073
   27 O1     4f0        0.0000    0.0022    0.0015    0.0000    0.0000    0.0000   -0.0000   -0.0012    0.0000   -0.0000
   28 O1     4f1+      -0.0001   -0.0000    0.0000   -0.0022   -0.0017   -0.0037   -0.0037   -0.0000    0.0031    0.0073
   29 O1     4f2+       0.0000    0.0009   -0.0002    0.0000    0.0000   -0.0000   -0.0000    0.0002    0.0000    0.0000
   30 O1     4f3+      -0.0027   -0.0000    0.0000   -0.0036   -0.0053   -0.0086   -0.0063    0.0000    0.0141    0.0099
   31 O2     1s         0.0000    0.0000    0.0000    0.0850   -0.0000   -0.0000    0.3037    0.0000   -0.2068    0.0000
   32 O2     2s         0.0000    0.0000    0.0000    0.8448   -0.0000   -0.0000    2.1298    0.0000   -1.3708    0.0000
   33 O2     3s         0.0000    0.0000    0.0000    0.0951   -0.0000   -0.0000    1.3325    0.0000   -0.8423    0.0000
   34 O2     4s         0.0000    0.0000    0.0000    0.0301   -0.0000   -0.0000    0.2880    0.0000   -0.1746    0.0000
   35 O2     2px        0.0000   -0.0000   -0.0000    0.7460   -0.0000   -0.0000    0.7088    0.0000   -0.4530    0.0000
   36 O2     3px        0.0000   -0.0000   -0.0000   -0.1438    0.0000   -0.0000    1.0400    0.0000   -0.4123    0.0000
   37 O2     4px       -0.0000   -0.0000   -0.0000    0.0264   -0.0000   -0.0000    0.1701    0.0000    0.0301    0.0000
   38 O2     2py       -0.0443   -0.0000   -0.0000    0.0000    1.0003    1.0274    0.0000   -0.0000    0.0000   -0.0162
   39 O2     3py       -0.0165   -0.0000    0.0000   -0.0000   -0.1282    1.1975    0.0000   -0.0000    0.0000    0.4416
   40 O2     4py       -0.0035   -0.0000   -0.0000   -0.0000    0.0064    0.1313    0.0000    0.0000    0.0000    0.2477
   41 O2     2pz       -0.0000    0.0000   -0.7239   -0.0000    0.0000   -0.0000    0.0000   -0.0692   -0.0000   -0.0000
   42 O2     3pz        0.0000    0.0000   -0.0276   -0.0000   -0.0000    0.0000   -0.0000    0.3273   -0.0000   -0.0000
   43 O2     4pz        0.0000   -0.0000    0.0031    0.0000    0.0000    0.0000   -0.0000    0.1905   -0.0000   -0.0000
   44 O2     3d2-      -0.0328   -0.0000   -0.0000    0.0000    0.0349    0.1839    0.0000    0.0000   -0.0000    0.0274
   45 O2     4d2-      -0.0059   -0.0000   -0.0000    0.0000    0.0036    0.1073    0.0000    0.0000   -0.0000    0.0399
[...]

>>> COPY /tmp/ozone_108.00/GMJ_IVECC2_E_M_2_.csv /home/grierjones/DDCASPT2/ozone/multistate/ANO-RCC-VTZP/ozone_108.00/GMJ_IVECC2_E_M_2_.csv

>>> COPY /tmp/ozone_108.00/GMJ_e2_E_M_2_.csv /home/grierjones/DDCASPT2/ozone/multistate/ANO-RCC-VTZP/ozone_108.00/GMJ_e2_E_M_2_.csv

>>> END FOREACH

>>> END FOREACH

>>> EXPORT i = F

>>> EXPORT j = P

>>> IF (-FILE GMJ_e2_${i}_${j}_${k}_.csv)

>>> COPY /tmp/ozone_108.00/GMJ_RHS_F_P_2_.csv /home/grierjones/DDCASPT2/ozone/multistate/ANO-RCC-VTZP/ozone_108.00/GMJ_RHS_F_P_2_.csv

>>> COPY /tmp/ozone_108.00/GMJ_IVECW_F_P_2_.csv /home/grierjones/DDCASPT2/ozone/multistate/ANO-RCC-VTZP/ozone_108.00/GMJ_IVECW_F_P_2_.csv

>>> COPY /tmp/ozone_108.00/GMJ_IVECX_F_P_2_.csv /home/grierjones/DDCASPT2/ozone/multistate/ANO-RCC-VTZP/ozone_108.00/GMJ_IVECX_F_P_2_.csv

>>> COPY /tmp/ozone_108.00/GMJ_IVECC2_F_P_2_.csv /home/grierjones/DDCASPT2/ozone/multistate/ANO-RCC-VTZP/ozone_108.00/GMJ_IVECC2_F_P_2_.csv

>>> COPY /tmp/ozone_108.00/GMJ_e2_F_P_2_.csv /home/grierjones/DDCASPT2/ozone/multistate/ANO-RCC-VTZP/ozone_108.00/GMJ_e2_F_P_2_.csv

>>> END FOREACH

>>> EXPORT j = M

>>> IF (-FILE GMJ_e2_${i}_${j}_${k}_.csv)

>>> COPY /tmp/ozone_108.00/GMJ_RHS_F_M_2_.csv /home/grierjones/DDCASPT2/ozone/multistate/ANO-RCC-VTZP/ozone_108.00/GMJ_RHS_F_M_2_.csv

>>> COPY /tmp/ozone_108.00/GMJ_IVECW_F_M_2_.csv /home/grierjones/DDCASPT2/ozone/multistate/ANO-RCC-VTZP/ozone_108.00/GMJ_IVECW_F_M_2_.csv

>>> COPY /tmp/ozone_108.00/GMJ_IVECX_F_M_2_.csv /home/grierjones/DDCASPT2/ozone/multistate/ANO-RCC-VTZP/ozone_108.00/GMJ_IVECX_F_M_2_.csv

>>> COPY /tmp/ozone_108.00/GMJ_IVECC2_F_M_2_.csv /home/grierjones/DDCASPT2/ozone/multistate/ANO-RCC-VTZP/ozone_108.00/GMJ_IVECC2_F_M_2_.csv

>>> COPY /tmp/ozone_108.00/GMJ_e2_F_M_2_.csv /home/grierjones/DDCASPT2/ozone/multistate/ANO-RCC-VTZP/ozone_108.00/GMJ_e2_F_M_2_.csv

>>> END FOREACH

>>> END FOREACH

>>> EXPORT i = G

>>> EXPORT j = P

>>> IF (-FILE GMJ_e2_${i}_${j}_${k}_.csv)

>>> COPY /tmp/ozone_108.00/GMJ_RHS_G_P_2_.csv /home/grierjones/DDCASPT2/ozone/multistate/ANO-RCC-VTZP/ozone_108.00/GMJ_RHS_G_P_2_.csv

>>> COPY /tmp/ozone_108.00/GMJ_IVECW_G_P_2_.csv /home/grierjones/DDCASPT2/ozone/multistate/ANO-RCC-VTZP/ozone_108.00/GMJ_IVECW_G_P_2_.csv

>>> COPY /tmp/ozone_108.00/GMJ_IVECX_G_P_2_.csv /home/grierjones/DDCASPT2/ozone/multistate/ANO-RCC-VTZP/ozone_108.00/GMJ_IVECX_G_P_2_.csv

>>> COPY /tmp/ozone_108.00/GMJ_IVECC2_G_P_2_.csv /home/grierjones/DDCASPT2/ozone/multistate/ANO-RCC-VTZP/ozone_108.00/GMJ_IVECC2_G_P_2_.csv

>>> COPY /tmp/ozone_108.00/GMJ_e2_G_P_2_.csv /home/grierjones/DDCASPT2/ozone/multistate/ANO-RCC-VTZP/ozone_108.00/GMJ_e2_G_P_2_.csv

>>> END FOREACH

>>> EXPORT j = M

>>> IF (-FILE GMJ_e2_${i}_${j}_${k}_.csv)

>>> COPY /tmp/ozone_108.00/GMJ_RHS_G_M_2_.csv /home/grierjones/DDCASPT2/ozone/multistate/ANO-RCC-VTZP/ozone_108.00/GMJ_RHS_G_M_2_.csv

>>> COPY /tmp/ozone_108.00/GMJ_IVECW_G_M_2_.csv /home/grierjones/DDCASPT2/ozone/multistate/ANO-RCC-VTZP/ozone_108.00/GMJ_IVECW_G_M_2_.csv

>>> COPY /tmp/ozone_108.00/GMJ_IVECX_G_M_2_.csv /home/grierjones/DDCASPT2/ozone/multistate/ANO-RCC-VTZP/ozone_108.00/GMJ_IVECX_G_M_2_.csv

>>> COPY /tmp/ozone_108.00/GMJ_IVECC2_G_M_2_.csv /home/grierjones/DDCASPT2/ozone/multistate/ANO-RCC-VTZP/ozone_108.00/GMJ_IVECC2_G_M_2_.csv

>>> COPY /tmp/ozone_108.00/GMJ_e2_G_M_2_.csv /home/grierjones/DDCASPT2/ozone/multistate/ANO-RCC-VTZP/ozone_108.00/GMJ_e2_G_M_2_.csv

>>> END FOREACH

>>> END FOREACH

>>> EXPORT i = H

>>> EXPORT j = P

>>> IF (-FILE GMJ_e2_${i}_${j}_${k}_.csv)

>>> COPY /tmp/ozone_108.00/GMJ_RHS_H_P_2_.csv /home/grierjones/DDCASPT2/ozone/multistate/ANO-RCC-VTZP/ozone_108.00/GMJ_RHS_H_P_2_.csv

>>> COPY /tmp/ozone_108.00/GMJ_IVECW_H_P_2_.csv /home/grierjones/DDCASPT2/ozone/multistate/ANO-RCC-VTZP/ozone_108.00/GMJ_IVECW_H_P_2_.csv

>>> COPY /tmp/ozone_108.00/GMJ_IVECX_H_P_2_.csv /home/grierjones/DDCASPT2/ozone/multistate/ANO-RCC-VTZP/ozone_108.00/GMJ_IVECX_H_P_2_.csv

>>> COPY /tmp/ozone_108.00/GMJ_IVECC2_H_P_2_.csv /home/grierjones/DDCASPT2/ozone/multistate/ANO-RCC-VTZP/ozone_108.00/GMJ_IVECC2_H_P_2_.csv

>>> COPY /tmp/ozone_108.00/GMJ_e2_H_P_2_.csv /home/grierjones/DDCASPT2/ozone/multistate/ANO-RCC-VTZP/ozone_108.00/GMJ_e2_H_P_2_.csv

>>> END FOREACH

>>> EXPORT j = M

>>> IF (-FILE GMJ_e2_${i}_${j}_${k}_.csv)

>>> COPY /tmp/ozone_108.00/GMJ_RHS_H_M_2_.csv /home/grierjones/DDCASPT2/ozone/multistate/ANO-RCC-VTZP/ozone_108.00/GMJ_RHS_H_M_2_.csv

>>> COPY /tmp/ozone_108.00/GMJ_IVECW_H_M_2_.csv /home/grierjones/DDCASPT2/ozone/multistate/ANO-RCC-VTZP/ozone_108.00/GMJ_IVECW_H_M_2_.csv

>>> COPY /tmp/ozone_108.00/GMJ_IVECX_H_M_2_.csv /home/grierjones/DDCASPT2/ozone/multistate/ANO-RCC-VTZP/ozone_108.00/GMJ_IVECX_H_M_2_.csv

>>> COPY /tmp/ozone_108.00/GMJ_IVECC2_H_M_2_.csv /home/grierjones/DDCASPT2/ozone/multistate/ANO-RCC-VTZP/ozone_108.00/GMJ_IVECC2_H_M_2_.csv

>>> COPY /tmp/ozone_108.00/GMJ_e2_H_M_2_.csv /home/grierjones/DDCASPT2/ozone/multistate/ANO-RCC-VTZP/ozone_108.00/GMJ_e2_H_M_2_.csv

>>> END FOREACH

>>> END FOREACH

>>> END FOREACH

>>> EXPORT k = 3

>>> EXPORT i = B

>>> EXPORT j = P

>>> IF (-FILE GMJ_e2_${i}_${j}_${k}_.csv)

>>> COPY /tmp/ozone_108.00/GMJ_RHS_B_P_3_.csv /home/grierjones/DDCASPT2/ozone/multistate/ANO-RCC-VTZP/ozone_108.00/GMJ_RHS_B_P_3_.csv

>>> COPY /tmp/ozone_108.00/GMJ_IVECW_B_P_3_.csv /home/grierjones/DDCASPT2/ozone/multistate/ANO-RCC-VTZP/ozone_108.00/GMJ_IVECW_B_P_3_.csv

>>> COPY /tmp/ozone_108.00/GMJ_IVECX_B_P_3_.csv /home/grierjones/DDCASPT2/ozone/multistate/ANO-RCC-VTZP/ozone_108.00/GMJ_IVECX_B_P_3_.csv

>>> COPY /tmp/ozone_108.00/GMJ_IVECC2_B_P_3_.csv /home/grierjones/DDCASPT2/ozone/multistate/ANO-RCC-VTZP/ozone_108.00/GMJ_IVECC2_B_P_3_.csv

>>> COPY /tmp/ozone_108.00/GMJ_e2_B_P_3_.csv /home/grierjones/DDCASPT2/ozone/multistate/ANO-RCC-VTZP/ozone_108.00/GMJ_e2_B_P_3_.csv

>>> END FOREACH

>>> EXPORT j = M

>>> IF (-FILE GMJ_e2_${i}_${j}_${k}_.csv)

>>> COPY /tmp/ozone_108.00/GMJ_RHS_B_M_3_.csv /home/grierjones/DDCASPT2/ozone/multistate/ANO-RCC-VTZP/ozone_108.00/GMJ_RHS_B_M_3_.csv

>>> COPY /tmp/ozone_108.00/GMJ_IVECW_B_M_3_.csv /home/grierjones/DDCASPT2/ozone/multistate/ANO-RCC-VTZP/ozone_108.00/GMJ_IVECW_B_M_3_.csv

>>> COPY /tmp/ozone_108.00/GMJ_IVECX_B_M_3_.csv /home/grierjones/DDCASPT2/ozone/multistate/ANO-RCC-VTZP/ozone_108.00/GMJ_IVECX_B_M_3_.csv

>>> COPY /tmp/ozone_108.00/GMJ_IVECC2_B_M_3_.csv /home/grierjones/DDCASPT2/ozone/multistate/ANO-RCC-VTZP/ozone_108.00/GMJ_IVECC2_B_M_3_.csv

>>> COPY /tmp/ozone_108.00/GMJ_e2_B_M_3_.csv /home/grierjones/DDCASPT2/ozone/multistate/ANO-RCC-VTZP/ozone_108.00/GMJ_e2_B_M_3_.csv

>>> END FOREACH

>>> END FOREACH

>>> EXPORT i = E

>>> EXPORT j = P

>>> IF (-FILE GMJ_e2_${i}_${j}_${k}_.csv)

>>> COPY /tmp/ozone_108.00/GMJ_RHS_E_P_3_.csv /home/grierjones/DDCASPT2/ozone/multistate/ANO-RCC-VTZP/ozone_108.00/GMJ_RHS_E_P_3_.csv

>>> COPY /tmp/ozone_108.00/GMJ_IVECW_E_P_3_.csv /home/grierjones/DDCASPT2/ozone/multistate/ANO-RCC-VTZP/ozone_108.00/GMJ_IVECW_E_P_3_.csv

>>> COPY /tmp/ozone_108.00/GMJ_IVECX_E_P_3_.csv /home/grierjones/DDCASPT2/ozone/multistate/ANO-RCC-VTZP/ozone_108.00/GMJ_IVECX_E_P_3_.csv

>>> COPY /tmp/ozone_108.00/GMJ_IVECC2_E_P_3_.csv /home/grierjones/DDCASPT2/ozone/multistate/ANO-RCC-VTZP/ozone_108.00/GMJ_IVECC2_E_P_3_.csv

>>> COPY /tmp/ozone_108.00/GMJ_e2_E_P_3_.csv /home/grierjones/DDCASPT2/ozone/multistate/ANO-RCC-VTZP/ozone_108.00/GMJ_e2_E_P_3_.csv

>>> END FOREACH

>>> EXPORT j = M

>>> IF (-FILE GMJ_e2_${i}_${j}_${k}_.csv)

>>> COPY /tmp/ozone_108.00/GMJ_RHS_E_M_3_.csv /home/grierjones/DDCASPT2/ozone/multistate/ANO-RCC-VTZP/ozone_108.00/GMJ_RHS_E_M_3_.csv

>>> COPY /tmp/ozone_108.00/GMJ_IVECW_E_M_3_.csv /home/grierjones/DDCASPT2/ozone/multistate/ANO-RCC-VTZP/ozone_108.00/GMJ_IVECW_E_M_3_.csv

>>> COPY /tmp/ozone_108.00/GMJ_IVECX_E_M_3_.csv /home/grierjones/DDCASPT2/ozone/multistate/ANO-RCC-VTZP/ozone_108.00/GMJ_IVECX_E_M_3_.csv

>>> COPY /tmp/ozone_108.00/GMJ_IVECC2_E_M_3_.csv /home/grierjones/DDCASPT2/ozone/multistate/ANO-RCC-VTZP/ozone_108.00/GMJ_IVECC2_E_M_3_.csv

>>> COPY /tmp/ozone_108.00/GMJ_e2_E_M_3_.csv /home/grierjones/DDCASPT2/ozone/multistate/ANO-RCC-VTZP/ozone_108.00/GMJ_e2_E_M_3_.csv

>>> END FOREACH

>>> END FOREACH

>>> EXPORT i = F

>>> EXPORT j = P

>>> IF (-FILE GMJ_e2_${i}_${j}_${k}_.csv)

>>> COPY /tmp/ozone_108.00/GMJ_RHS_F_P_3_.csv /home/grierjones/DDCASPT2/ozone/multistate/ANO-RCC-VTZP/ozone_108.00/GMJ_RHS_F_P_3_.csv

>>> COPY /tmp/ozone_108.00/GMJ_IVECW_F_P_3_.csv /home/grierjones/DDCASPT2/ozone/multistate/ANO-RCC-VTZP/ozone_108.00/GMJ_IVECW_F_P_3_.csv

>>> COPY /tmp/ozone_108.00/GMJ_IVECX_F_P_3_.csv /home/grierjones/DDCASPT2/ozone/multistate/ANO-RCC-VTZP/ozone_108.00/GMJ_IVECX_F_P_3_.csv

>>> COPY /tmp/ozone_108.00/GMJ_IVECC2_F_P_3_.csv /home/grierjones/DDCASPT2/ozone/multistate/ANO-RCC-VTZP/ozone_108.00/GMJ_IVECC2_F_P_3_.csv

>>> COPY /tmp/ozone_108.00/GMJ_e2_F_P_3_.csv /home/grierjones/DDCASPT2/ozone/multistate/ANO-RCC-VTZP/ozone_108.00/GMJ_e2_F_P_3_.csv

>>> END FOREACH

>>> EXPORT j = M

>>> IF (-FILE GMJ_e2_${i}_${j}_${k}_.csv)

>>> COPY /tmp/ozone_108.00/GMJ_RHS_F_M_3_.csv /home/grierjones/DDCASPT2/ozone/multistate/ANO-RCC-VTZP/ozone_108.00/GMJ_RHS_F_M_3_.csv

>>> COPY /tmp/ozone_108.00/GMJ_IVECW_F_M_3_.csv /home/grierjones/DDCASPT2/ozone/multistate/ANO-RCC-VTZP/ozone_108.00/GMJ_IVECW_F_M_3_.csv

>>> COPY /tmp/ozone_108.00/GMJ_IVECX_F_M_3_.csv /home/grierjones/DDCASPT2/ozone/multistate/ANO-RCC-VTZP/ozone_108.00/GMJ_IVECX_F_M_3_.csv

>>> COPY /tmp/ozone_108.00/GMJ_IVECC2_F_M_3_.csv /home/grierjones/DDCASPT2/ozone/multistate/ANO-RCC-VTZP/ozone_108.00/GMJ_IVECC2_F_M_3_.csv

>>> COPY /tmp/ozone_108.00/GMJ_e2_F_M_3_.csv /home/grierjones/DDCASPT2/ozone/multistate/ANO-RCC-VTZP/ozone_108.00/GMJ_e2_F_M_3_.csv

>>> END FOREACH

>>> END FOREACH

>>> EXPORT i = G

>>> EXPORT j = P

>>> IF (-FILE GMJ_e2_${i}_${j}_${k}_.csv)

>>> COPY /tmp/ozone_108.00/GMJ_RHS_G_P_3_.csv /home/grierjones/DDCASPT2/ozone/multistate/ANO-RCC-VTZP/ozone_108.00/GMJ_RHS_G_P_3_.csv

>>> COPY /tmp/ozone_108.00/GMJ_IVECW_G_P_3_.csv /home/grierjones/DDCASPT2/ozone/multistate/ANO-RCC-VTZP/ozone_108.00/GMJ_IVECW_G_P_3_.csv

>>> COPY /tmp/ozone_108.00/GMJ_IVECX_G_P_3_.csv /home/grierjones/DDCASPT2/ozone/multistate/ANO-RCC-VTZP/ozone_108.00/GMJ_IVECX_G_P_3_.csv

>>> COPY /tmp/ozone_108.00/GMJ_IVECC2_G_P_3_.csv /home/grierjones/DDCASPT2/ozone/multistate/ANO-RCC-VTZP/ozone_108.00/GMJ_IVECC2_G_P_3_.csv

>>> COPY /tmp/ozone_108.00/GMJ_e2_G_P_3_.csv /home/grierjones/DDCASPT2/ozone/multistate/ANO-RCC-VTZP/ozone_108.00/GMJ_e2_G_P_3_.csv

>>> END FOREACH

>>> EXPORT j = M

>>> IF (-FILE GMJ_e2_${i}_${j}_${k}_.csv)

>>> COPY /tmp/ozone_108.00/GMJ_RHS_G_M_3_.csv /home/grierjones/DDCASPT2/ozone/multistate/ANO-RCC-VTZP/ozone_108.00/GMJ_RHS_G_M_3_.csv

>>> COPY /tmp/ozone_108.00/GMJ_IVECW_G_M_3_.csv /home/grierjones/DDCASPT2/ozone/multistate/ANO-RCC-VTZP/ozone_108.00/GMJ_IVECW_G_M_3_.csv

>>> COPY /tmp/ozone_108.00/GMJ_IVECX_G_M_3_.csv /home/grierjones/DDCASPT2/ozone/multistate/ANO-RCC-VTZP/ozone_108.00/GMJ_IVECX_G_M_3_.csv

>>> COPY /tmp/ozone_108.00/GMJ_IVECC2_G_M_3_.csv /home/grierjones/DDCASPT2/ozone/multistate/ANO-RCC-VTZP/ozone_108.00/GMJ_IVECC2_G_M_3_.csv

>>> COPY /tmp/ozone_108.00/GMJ_e2_G_M_3_.csv /home/grierjones/DDCASPT2/ozone/multistate/ANO-RCC-VTZP/ozone_108.00/GMJ_e2_G_M_3_.csv

>>> END FOREACH

>>> END FOREACH

>>> EXPORT i = H

>>> EXPORT j = P

>>> IF (-FILE GMJ_e2_${i}_${j}_${k}_.csv)

>>> COPY /tmp/ozone_108.00/GMJ_RHS_H_P_3_.csv /home/grierjones/DDCASPT2/ozone/multistate/ANO-RCC-VTZP/ozone_108.00/GMJ_RHS_H_P_3_.csv

>>> COPY /tmp/ozone_108.00/GMJ_IVECW_H_P_3_.csv /home/grierjones/DDCASPT2/ozone/multistate/ANO-RCC-VTZP/ozone_108.00/GMJ_IVECW_H_P_3_.csv

>>> COPY /tmp/ozone_108.00/GMJ_IVECX_H_P_3_.csv /home/grierjones/DDCASPT2/ozone/multistate/ANO-RCC-VTZP/ozone_108.00/GMJ_IVECX_H_P_3_.csv

>>> COPY /tmp/ozone_108.00/GMJ_IVECC2_H_P_3_.csv /home/grierjones/DDCASPT2/ozone/multistate/ANO-RCC-VTZP/ozone_108.00/GMJ_IVECC2_H_P_3_.csv

>>> COPY /tmp/ozone_108.00/GMJ_e2_H_P_3_.csv /home/grierjones/DDCASPT2/ozone/multistate/ANO-RCC-VTZP/ozone_108.00/GMJ_e2_H_P_3_.csv

>>> END FOREACH

>>> EXPORT j = M

>>> IF (-FILE GMJ_e2_${i}_${j}_${k}_.csv)

>>> COPY /tmp/ozone_108.00/GMJ_RHS_H_M_3_.csv /home/grierjones/DDCASPT2/ozone/multistate/ANO-RCC-VTZP/ozone_108.00/GMJ_RHS_H_M_3_.csv

>>> COPY /tmp/ozone_108.00/GMJ_IVECW_H_M_3_.csv /home/grierjones/DDCASPT2/ozone/multistate/ANO-RCC-VTZP/ozone_108.00/GMJ_IVECW_H_M_3_.csv

>>> COPY /tmp/ozone_108.00/GMJ_IVECX_H_M_3_.csv /home/grierjones/DDCASPT2/ozone/multistate/ANO-RCC-VTZP/ozone_108.00/GMJ_IVECX_H_M_3_.csv

>>> COPY /tmp/ozone_108.00/GMJ_IVECC2_H_M_3_.csv /home/grierjones/DDCASPT2/ozone/multistate/ANO-RCC-VTZP/ozone_108.00/GMJ_IVECC2_H_M_3_.csv

>>> COPY /tmp/ozone_108.00/GMJ_e2_H_M_3_.csv /home/grierjones/DDCASPT2/ozone/multistate/ANO-RCC-VTZP/ozone_108.00/GMJ_e2_H_M_3_.csv

>>> END FOREACH

>>> END FOREACH

>>> END FOREACH

>>> EXPORT j = 1

>>> EXPORT i = A

>>> IF (-FILE GMJ_e2_${i}_${j}_.csv)

>>> COPY /tmp/ozone_108.00/GMJ_RHS_A_1_.csv /home/grierjones/DDCASPT2/ozone/multistate/ANO-RCC-VTZP/ozone_108.00/GMJ_RHS_A_1_.csv

>>> COPY /tmp/ozone_108.00/GMJ_IVECW_A_1_.csv /home/grierjones/DDCASPT2/ozone/multistate/ANO-RCC-VTZP/ozone_108.00/GMJ_IVECW_A_1_.csv

>>> COPY /tmp/ozone_108.00/GMJ_IVECX_A_1_.csv /home/grierjones/DDCASPT2/ozone/multistate/ANO-RCC-VTZP/ozone_108.00/GMJ_IVECX_A_1_.csv

>>> COPY /tmp/ozone_108.00/GMJ_IVECC2_A_1_.csv /home/grierjones/DDCASPT2/ozone/multistate/ANO-RCC-VTZP/ozone_108.00/GMJ_IVECC2_A_1_.csv

>>> COPY /tmp/ozone_108.00/GMJ_e2_A_1_.csv /home/grierjones/DDCASPT2/ozone/multistate/ANO-RCC-VTZP/ozone_108.00/GMJ_e2_A_1_.csv

>>> END FOREACH

>>> EXPORT i = C

>>> IF (-FILE GMJ_e2_${i}_${j}_.csv)

>>> COPY /tmp/ozone_108.00/GMJ_RHS_C_1_.csv /home/grierjones/DDCASPT2/ozone/multistate/ANO-RCC-VTZP/ozone_108.00/GMJ_RHS_C_1_.csv

>>> COPY /tmp/ozone_108.00/GMJ_IVECW_C_1_.csv /home/grierjones/DDCASPT2/ozone/multistate/ANO-RCC-VTZP/ozone_108.00/GMJ_IVECW_C_1_.csv

>>> COPY /tmp/ozone_108.00/GMJ_IVECX_C_1_.csv /home/grierjones/DDCASPT2/ozone/multistate/ANO-RCC-VTZP/ozone_108.00/GMJ_IVECX_C_1_.csv

>>> COPY /tmp/ozone_108.00/GMJ_IVECC2_C_1_.csv /home/grierjones/DDCASPT2/ozone/multistate/ANO-RCC-VTZP/ozone_108.00/GMJ_IVECC2_C_1_.csv

>>> COPY /tmp/ozone_108.00/GMJ_e2_C_1_.csv /home/grierjones/DDCASPT2/ozone/multistate/ANO-RCC-VTZP/ozone_108.00/GMJ_e2_C_1_.csv

>>> END FOREACH

>>> EXPORT i = D

>>> IF (-FILE GMJ_e2_${i}_${j}_.csv)

>>> COPY /tmp/ozone_108.00/GMJ_RHS_D_1_.csv /home/grierjones/DDCASPT2/ozone/multistate/ANO-RCC-VTZP/ozone_108.00/GMJ_RHS_D_1_.csv

>>> COPY /tmp/ozone_108.00/GMJ_IVECW_D_1_.csv /home/grierjones/DDCASPT2/ozone/multistate/ANO-RCC-VTZP/ozone_108.00/GMJ_IVECW_D_1_.csv

>>> COPY /tmp/ozone_108.00/GMJ_IVECX_D_1_.csv /home/grierjones/DDCASPT2/ozone/multistate/ANO-RCC-VTZP/ozone_108.00/GMJ_IVECX_D_1_.csv

>>> COPY /tmp/ozone_108.00/GMJ_IVECC2_D_1_.csv /home/grierjones/DDCASPT2/ozone/multistate/ANO-RCC-VTZP/ozone_108.00/GMJ_IVECC2_D_1_.csv

>>> COPY /tmp/ozone_108.00/GMJ_e2_D_1_.csv /home/grierjones/DDCASPT2/ozone/multistate/ANO-RCC-VTZP/ozone_108.00/GMJ_e2_D_1_.csv

>>> END FOREACH

>>> END FOREACH

>>> EXPORT j = 2

>>> EXPORT i = A

>>> IF (-FILE GMJ_e2_${i}_${j}_.csv)

>>> COPY /tmp/ozone_108.00/GMJ_RHS_A_2_.csv /home/grierjones/DDCASPT2/ozone/multistate/ANO-RCC-VTZP/ozone_108.00/GMJ_RHS_A_2_.csv

>>> COPY /tmp/ozone_108.00/GMJ_IVECW_A_2_.csv /home/grierjones/DDCASPT2/ozone/multistate/ANO-RCC-VTZP/ozone_108.00/GMJ_IVECW_A_2_.csv

>>> COPY /tmp/ozone_108.00/GMJ_IVECX_A_2_.csv /home/grierjones/DDCASPT2/ozone/multistate/ANO-RCC-VTZP/ozone_108.00/GMJ_IVECX_A_2_.csv

>>> COPY /tmp/ozone_108.00/GMJ_IVECC2_A_2_.csv /home/grierjones/DDCASPT2/ozone/multistate/ANO-RCC-VTZP/ozone_108.00/GMJ_IVECC2_A_2_.csv

>>> COPY /tmp/ozone_108.00/GMJ_e2_A_2_.csv /home/grierjones/DDCASPT2/ozone/multistate/ANO-RCC-VTZP/ozone_108.00/GMJ_e2_A_2_.csv

>>> END FOREACH

>>> EXPORT i = C

>>> IF (-FILE GMJ_e2_${i}_${j}_.csv)

>>> COPY /tmp/ozone_108.00/GMJ_RHS_C_2_.csv /home/grierjones/DDCASPT2/ozone/multistate/ANO-RCC-VTZP/ozone_108.00/GMJ_RHS_C_2_.csv

>>> COPY /tmp/ozone_108.00/GMJ_IVECW_C_2_.csv /home/grierjones/DDCASPT2/ozone/multistate/ANO-RCC-VTZP/ozone_108.00/GMJ_IVECW_C_2_.csv

>>> COPY /tmp/ozone_108.00/GMJ_IVECX_C_2_.csv /home/grierjones/DDCASPT2/ozone/multistate/ANO-RCC-VTZP/ozone_108.00/GMJ_IVECX_C_2_.csv

>>> COPY /tmp/ozone_108.00/GMJ_IVECC2_C_2_.csv /home/grierjones/DDCASPT2/ozone/multistate/ANO-RCC-VTZP/ozone_108.00/GMJ_IVECC2_C_2_.csv

>>> COPY /tmp/ozone_108.00/GMJ_e2_C_2_.csv /home/grierjones/DDCASPT2/ozone/multistate/ANO-RCC-VTZP/ozone_108.00/GMJ_e2_C_2_.csv

>>> END FOREACH

>>> EXPORT i = D

>>> IF (-FILE GMJ_e2_${i}_${j}_.csv)

>>> COPY /tmp/ozone_108.00/GMJ_RHS_D_2_.csv /home/grierjones/DDCASPT2/ozone/multistate/ANO-RCC-VTZP/ozone_108.00/GMJ_RHS_D_2_.csv

>>> COPY /tmp/ozone_108.00/GMJ_IVECW_D_2_.csv /home/grierjones/DDCASPT2/ozone/multistate/ANO-RCC-VTZP/ozone_108.00/GMJ_IVECW_D_2_.csv

>>> COPY /tmp/ozone_108.00/GMJ_IVECX_D_2_.csv /home/grierjones/DDCASPT2/ozone/multistate/ANO-RCC-VTZP/ozone_108.00/GMJ_IVECX_D_2_.csv

>>> COPY /tmp/ozone_108.00/GMJ_IVECC2_D_2_.csv /home/grierjones/DDCASPT2/ozone/multistate/ANO-RCC-VTZP/ozone_108.00/GMJ_IVECC2_D_2_.csv

>>> COPY /tmp/ozone_108.00/GMJ_e2_D_2_.csv /home/grierjones/DDCASPT2/ozone/multistate/ANO-RCC-VTZP/ozone_108.00/GMJ_e2_D_2_.csv

>>> END FOREACH

>>> END FOREACH

>>> EXPORT j = 3

>>> EXPORT i = A

>>> IF (-FILE GMJ_e2_${i}_${j}_.csv)

>>> COPY /tmp/ozone_108.00/GMJ_RHS_A_3_.csv /home/grierjones/DDCASPT2/ozone/multistate/ANO-RCC-VTZP/ozone_108.00/GMJ_RHS_A_3_.csv

>>> COPY /tmp/ozone_108.00/GMJ_IVECW_A_3_.csv /home/grierjones/DDCASPT2/ozone/multistate/ANO-RCC-VTZP/ozone_108.00/GMJ_IVECW_A_3_.csv

>>> COPY /tmp/ozone_108.00/GMJ_IVECX_A_3_.csv /home/grierjones/DDCASPT2/ozone/multistate/ANO-RCC-VTZP/ozone_108.00/GMJ_IVECX_A_3_.csv

>>> COPY /tmp/ozone_108.00/GMJ_IVECC2_A_3_.csv /home/grierjones/DDCASPT2/ozone/multistate/ANO-RCC-VTZP/ozone_108.00/GMJ_IVECC2_A_3_.csv

>>> COPY /tmp/ozone_108.00/GMJ_e2_A_3_.csv /home/grierjones/DDCASPT2/ozone/multistate/ANO-RCC-VTZP/ozone_108.00/GMJ_e2_A_3_.csv

>>> END FOREACH

>>> EXPORT i = C

>>> IF (-FILE GMJ_e2_${i}_${j}_.csv)

>>> COPY /tmp/ozone_108.00/GMJ_RHS_C_3_.csv /home/grierjones/DDCASPT2/ozone/multistate/ANO-RCC-VTZP/ozone_108.00/GMJ_RHS_C_3_.csv

>>> COPY /tmp/ozone_108.00/GMJ_IVECW_C_3_.csv /home/grierjones/DDCASPT2/ozone/multistate/ANO-RCC-VTZP/ozone_108.00/GMJ_IVECW_C_3_.csv

>>> COPY /tmp/ozone_108.00/GMJ_IVECX_C_3_.csv /home/grierjones/DDCASPT2/ozone/multistate/ANO-RCC-VTZP/ozone_108.00/GMJ_IVECX_C_3_.csv

>>> COPY /tmp/ozone_108.00/GMJ_IVECC2_C_3_.csv /home/grierjones/DDCASPT2/ozone/multistate/ANO-RCC-VTZP/ozone_108.00/GMJ_IVECC2_C_3_.csv

>>> COPY /tmp/ozone_108.00/GMJ_e2_C_3_.csv /home/grierjones/DDCASPT2/ozone/multistate/ANO-RCC-VTZP/ozone_108.00/GMJ_e2_C_3_.csv

>>> END FOREACH

>>> EXPORT i = D

>>> IF (-FILE GMJ_e2_${i}_${j}_.csv)

>>> COPY /tmp/ozone_108.00/GMJ_RHS_D_3_.csv /home/grierjones/DDCASPT2/ozone/multistate/ANO-RCC-VTZP/ozone_108.00/GMJ_RHS_D_3_.csv

>>> COPY /tmp/ozone_108.00/GMJ_IVECW_D_3_.csv /home/grierjones/DDCASPT2/ozone/multistate/ANO-RCC-VTZP/ozone_108.00/GMJ_IVECW_D_3_.csv

>>> COPY /tmp/ozone_108.00/GMJ_IVECX_D_3_.csv /home/grierjones/DDCASPT2/ozone/multistate/ANO-RCC-VTZP/ozone_108.00/GMJ_IVECX_D_3_.csv

>>> COPY /tmp/ozone_108.00/GMJ_IVECC2_D_3_.csv /home/grierjones/DDCASPT2/ozone/multistate/ANO-RCC-VTZP/ozone_108.00/GMJ_IVECC2_D_3_.csv

>>> COPY /tmp/ozone_108.00/GMJ_e2_D_3_.csv /home/grierjones/DDCASPT2/ozone/multistate/ANO-RCC-VTZP/ozone_108.00/GMJ_e2_D_3_.csv

>>> END FOREACH

>>> END FOREACH

.########################.
.# Non-zero return code #.
.########################.

    Timing: Wall=40.51 User=31.42 System=9.07
********************************************
*** WorkDir at /tmp/ozone_108.00 cleaned ***
********************************************
