   This run of MOLCAS is using the pymolcas driver

                             OPE
                             OPE          NMOL  CASOP  ENMOLC A   SO
                 OPE        NMOLC        AS  OP EN  MO LC     AS  OP
                OPENM       OL CA        SO  PE NM  OL CA     SOP EN
                OP EN      MO   LC       AS  OP ENMOL  CASO   PENMOL
                OP  EN     MO   LC       AS  OP EN     MO     LC ASO
               OP   E  NMOL  C  AS       OP  EN MO     LC     AS  OP
               OP  E   NMO   LC AS        OPEN  MO     LCASOP EN   M
               O  PEN   MO  LCA  SO
            OPE   NMO   L   CAS    OP
        OPENMOL  CASOP     ENMOL   CASOPE
     OPENMOLCA   SOPENMOLCASOPEN   MOLCASOPE
    OPENMOLCAS   OP           EN   MOL    CAS
    OPENMOLCAS       OP  ENM        O     LCA
    OPENMOLCAS    OPEN  MOLCASO     P  E  NMO
    OPENMOLCAS     OP               E  N  MOL
    OPENMOLCA   SO           PENM   O  L  CAS    OPEN    MO    LCAS
    OPENMOLCA   SOP           ENM   O  L  CAS   OP  EN  MOLC  AS   O
    OPENMOLCA   SOPE           NM      O  LCA   S      OP  EN MO
    OPENMOLC                AS         O  PEN   M      OL  CA  SOPE
    OPENMO        LCASOPE  NMOL        C  ASO   P      ENMOLC     AS
    OPE     NMO      LCA  SO     P     E   NM   OL  CA SO  PE N   MO
          OPENMOLCA            SOPE   NMO        LCAS  O    P  ENMO
     OPENMOLCASOPENMOLCASOPENMOLCASOPENMOLCA
        OPENMOLCASOPENMOLCASOPENMOLCASOPE
            OPENMOLCASOPENMOLCASOPENM
               OPENMOLCASOPENMOLCA        version: ea724fe96-dirty
                   OPENMOLCASO
                       OPE                tag:

 OpenMolcas is free software; you can redistribute it and/or modify it
 under the terms of the GNU Lesser General Public License version 2.1.
 OpenMolcas is distributed in the hope that it will be useful, but it
 is provided "as is" and without any express or implied warranties.
 For more details see the full text of the license in the file
 LICENSE or in <http://www.gnu.org/licenses/>.

                 Copyright (C) The OpenMolcas Authors
           For the author list and the recommended citation,
                   consult the file CONTRIBUTORS.md

           *************************************************
           * pymolcas version py2.28                       *
           *   build c4a6d18ded8cb6cad61d2372a9abd97c      *
           *   (after the EMIL interpreter by V. Veryazov) *
           *************************************************

configuration info
------------------
C Compiler ID: Intel
C flags: -std=gnu99
Fortran Compiler ID: Intel
Fortran flags: -fpp -i8 -r8 -heap-arrays
Definitions: _MOLCAS_;_I8_;_LINUX_
Parallel: OFF (GA=OFF)


   --------------------------------------------------------------------------------
  |
  |              Project: H6_2.52
  |       Submitted from: /home/grierjones/DDCASPT2/hydrogen_comps/H6_chain/H6_2.52
  |         Scratch area: /tmp/H6_2.52
  |      Save outputs to: /home/grierjones/DDCASPT2/hydrogen_comps/H6_chain/H6_2.52
  |               Molcas: /home/grierjones/Test/build
  |
  | Scratch area is empty
  |
  |       MOLCAS_DRIVER = /usr/local/pymolcas
  | MOLCAS_KEEP_WORKDIR = NO
  |  MOLCAS_NEW_WORKDIR = YES
  |       MOLCAS_NPROCS = 1
  |        MOLCAS_PRINT = NORMAL
  |       MOLCAS_SOURCE = /home/grierjones/Test/build
  |    MOLCAS_STRUCTURE = 0
  |
   --------------------------------------------------------------------------------

++ ---------   Input file   ---------

&GATEWAY
coord=H6_2.52.xyz
Basis = ANO-RCC-VDZP
Group = nosymm
Expert
End of Input

&SEWARD
End of Input

&SCF

>>> COPY $WorkDir/H6_2.52.scf.h5 $CurrDir/

&RASSCF
Title= RASSCF
FileOrb
/home/grierjones/DDCASPT2/hydrogen_comps/H6_chain/H6_2.49/H6_2.49.RasOrb
NACTEL
6 0 0
Inactive
0
RAS2
6
Symmetry
1
Spin
1
orblisting
all
ITERation
300 200

>>> COPY $WorkDir/H6_2.52.rasscf.h5 $CurrDir/

>>> COPY $WorkDir/GMJ_Fock_MO.csv $CurrDir/H6_2.52.GMJ_Fock_MO.csv

>>> COPY $WorkDir/GMJ_PT2_Fock_MO.csv $CurrDir/H6_2.52.GMJ_PT2_Fock_MO.csv

&MOTRA
Frozen=0
LUMORB

>>> COPY $WorkDir/GMJ_one_int_indx.csv $CurrDir/H6_2.52.GMJ_one_int_indx.csv

>>> COPY $WorkDir/GMJ_one_int.csv $CurrDir/H6_2.52.GMJ_one_int.csv

>>> COPY $WorkDir/GMJ_two_int_indx.csv $CurrDir/H6_2.52.GMJ_two_int_indx.csv

>>> COPY $WorkDir/GMJ_two_int.csv $CurrDir/H6_2.52.GMJ_two_int.csv

&CASPT2
Frozen
0
MAXITER
50

>>> FOREACH i IN (B,E,F,G,H)

  >>> FOREACH j IN (P,M)

    >>> IF (-FILE GMJ_e2_${i}_${j}.csv)

      >>> COPY $WorkDir/GMJ_RHS_${i}_${j}.csv $CurrDir/GMJ_RHS_${i}_${j}.csv

      >>> COPY $WorkDir/GMJ_IVECW_${i}_${j}.csv $CurrDir/GMJ_IVECW_${i}_${j}.csv

      >>> COPY $WorkDir/GMJ_IVECX_${i}_${j}.csv $CurrDir/GMJ_IVECX_${i}_${j}.csv

      >>> COPY $WorkDir/GMJ_IVECC2_${i}_${j}.csv $CurrDir/GMJ_IVECC2_${i}_${j}.csv

      >>> COPY $WorkDir/GMJ_e2_${i}_${j}.csv $CurrDir/GMJ_e2_${i}_${j}.csv

    >>> END IF

  >>> END FOREACH

>>> END FOREACH

>>> FOREACH i IN (A,C,D)

  >>> IF (-FILE GMJ_e2_$i.csv)

    >>> COPY $WorkDir/GMJ_RHS_$i.csv $CurrDir/GMJ_RHS_$i.csv

    >>> COPY $WorkDir/GMJ_IVECW_$i.csv $CurrDir/GMJ_IVECW_$i.csv

    >>> COPY $WorkDir/GMJ_IVECX_$i.csv $CurrDir/GMJ_IVECX_$i.csv

    >>> COPY $WorkDir/GMJ_IVECC2_$i.csv $CurrDir/GMJ_IVECC2_$i.csv

    >>> COPY $WorkDir/GMJ_e2_$i.csv $CurrDir/GMJ_e2_$i.csv

  >>> END IF

>>> END FOREACH

-- ----------------------------------

--- Start Module: gateway at Mon Nov 18 14:13:30 2024 ---
 
()()()()()()()()()()()()()()()()()()()()()()()()()()()()()()()()()()()()()()()()()()()()()()()()()()

                                              &GATEWAY

                                   only a single process is used
                       available to each process: 2.0 GB of memory, 1 thread?
()()()()()()()()()()()()()()()()()()()()()()()()()()()()()()()()()()()()()()()()()()()()()()()()()()
 
 ###############################################################################
 ###############################################################################
 ###                                                                         ###
 ###                                                                         ###
 ###                                                                         ###
 ###    WARNING: EXPERT option is ON!                                        ###
 ###                                                                         ###
 ###                                                                         ###
 ###############################################################################
 ###############################################################################
 
++    Symmetry information:
      ---------------------
 
                    Character Table for C1 
 
                             E  
                    a        1  x, y, xy, Rz, z, xz, Ry, yz, Rx, I
--
 
 
++    Basis set information:
      ----------------------
 
 
      Basis set label: H.ANO-RCC...2S1P.
 
      Electronic valence basis set:
      ------------------
      Associated Effective Charge   1.000000 au
      Associated Actual Charge      1.000000 au
      Nuclear Model: Point charge
 
      Shell  nPrim  nBasis  Cartesian Spherical Contaminant
         s       8       2        X                  
         p       4       1        X                  
--
 
 
++    Molecular structure info:
      -------------------------
 
                    ************************************************ 
                    **** Cartesian Coordinates / Bohr, Angstrom **** 
                    ************************************************ 
 
     Center  Label                x              y              z                     x              y              z
        1      H1               0.000000       0.000000       0.000000              0.000000       0.000000       0.000000
        2      H2               0.000000       0.000000       4.752948              0.000000       0.000000       2.515152
        3      H3               0.000000       0.000000       9.505895              0.000000       0.000000       5.030303
        4      H4               0.000000       0.000000      14.258843              0.000000       0.000000       7.545455
        5      H5               0.000000       0.000000      19.011790              0.000000       0.000000      10.060606
        6      H6               0.000000       0.000000      23.764738              0.000000       0.000000      12.575758
 
                    *************************************** 
                    *    InterNuclear Distances / Bohr    * 
                    *************************************** 
 
               1 H1            2 H2            3 H3            4 H4            5 H5            6 H6    
    1 H1       0.000000
    2 H2       4.752948        0.000000
    3 H3       9.505895        4.752947        0.000000
    4 H4      14.258843        9.505895        4.752948        0.000000
    5 H5      19.011790       14.258842        9.505895        4.752947        0.000000
    6 H6      23.764738       19.011790       14.258843        9.505895        4.752948        0.000000
 
                    ******************************************* 
                    *    InterNuclear Distances / Angstrom    * 
                    ******************************************* 
 
               1 H1            2 H2            3 H3            4 H4            5 H5            6 H6    
    1 H1       0.000000
    2 H2       2.515152        0.000000
    3 H3       5.030303        2.515151        0.000000
    4 H4       7.545455        5.030303        2.515152        0.000000
    5 H5      10.060606        7.545454        5.030303        2.515151        0.000000
    6 H6      12.575758       10.060606        7.545455        5.030303        2.515152        0.000000
--
 
 
            Nuclear Potential Energy              1.83044306 au
 
 ###############################################################################
 ###############################################################################
 ###                                                                         ###
 ###                                                                         ###
 ###    There were warnings during the execution                             ###
 ###    Please, check the output with care!                                  ###
 ###                                                                         ###
 ###                                                                         ###
 ###############################################################################
 ###############################################################################
--- Stop Module: gateway at Mon Nov 18 14:13:30 2024 /rc=_RC_ALL_IS_WELL_ ---
*** files: xmldump
    saved to directory /home/grierjones/DDCASPT2/hydrogen_comps/H6_chain/H6_2.52

--- Start Module: seward at Mon Nov 18 14:13:30 2024 ---
 
()()()()()()()()()()()()()()()()()()()()()()()()()()()()()()()()()()()()()()()()()()()()()()()()()()

                                              &SEWARD

                                   only a single process is used
                       available to each process: 2.0 GB of memory, 1 thread?
()()()()()()()()()()()()()()()()()()()()()()()()()()()()()()()()()()()()()()()()()()()()()()()()()()
 
 ###############################################################################
 ###############################################################################
 ###                                                                         ###
 ###                                                                         ###
 ###                                                                         ###
 ###    WARNING: EXPERT option is ON!                                        ###
 ###                                                                         ###
 ###                                                                         ###
 ###############################################################################
 ###############################################################################
               SEWARD will generate:
                  Multipole Moment integrals up to order  2
                  Kinetic Energy integrals
                  Nuclear Attraction integrals (point charge)
                  One-Electron Hamiltonian integrals
                  Velocity integrals
                  Relativistic Douglas-Kroll-Hess integrals:
                    - Parametrization         : EXP
                    - DKH order of Hamiltonian: 2
                    - DKH order of Properties : 0
                         - multipole moment operators
                         - electric potential operators
                         - contact operators
                  Atomic mean-field integrals
                  Two-Electron Repulsion integrals
 
                   Integrals are discarded if absolute value <: 0.10E-13
                   Integral cutoff threshold is set to       <: 0.10E-15
 
            Nuclear Potential Energy              1.83044306 au
 
 
      Basis set specifications :
      Symmetry species         a  
      Basis functions           30
 
 
  Input file to MOLDEN was generated!
 
 ###############################################################################
 ###############################################################################
 ###                                                                         ###
 ###                                                                         ###
 ###    There were warnings during the execution                             ###
 ###    Please, check the output with care!                                  ###
 ###                                                                         ###
 ###                                                                         ###
 ###############################################################################
 ###############################################################################
--- Stop Module: seward at Mon Nov 18 14:13:31 2024 /rc=_RC_ALL_IS_WELL_ ---
*** files: H6_2.52.GssOrb H6_2.52.guessorb.h5 H6_2.52.guessorb.molden xmldump
    saved to directory /home/grierjones/DDCASPT2/hydrogen_comps/H6_chain/H6_2.52

*** symbolic link created: INPORB -> H6_2.52.GssOrb
--- Start Module: scf at Mon Nov 18 14:13:31 2024 ---
 
()()()()()()()()()()()()()()()()()()()()()()()()()()()()()()()()()()()()()()()()()()()()()()()()()()

                                                &SCF

                                   only a single process is used
                       available to each process: 2.0 GB of memory, 1 thread?
()()()()()()()()()()()()()()()()()()()()()()()()()()()()()()()()()()()()()()()()()()()()()()()()()()
 
++    Input section:
      --------------
 
      Header of the integral files:
      
       Integrals generated by seward 4.2.0  , Mon Nov 18 14:13:30 2024
 
 
      Cartesian coordinates in Angstrom:
      -----------------------------------------------------
      No.  Label        X            Y            Z        
      -----------------------------------------------------
       1   H1         0.00000000   0.00000000   0.00000000
       2   H2         0.00000000   0.00000000   2.51515200
       3   H3         0.00000000   0.00000000   5.03030300
       4   H4         0.00000000   0.00000000   7.54545500
       5   H5         0.00000000   0.00000000  10.06060600
       6   H6         0.00000000   0.00000000  12.57575800
      -----------------------------------------------------
      Nuclear repulsion energy =    1.83044306
--
 
++    Orbital specifications:
      -----------------------
 
      Symmetry species               1
                                     a
      Frozen orbitals                0
      Occupied orbitals              3
      Secondary orbitals            27
      Deleted orbitals               0
      Total number of orbitals      30
      Number of basis functions     30
--
 
      Molecular charge                           0.000
 
++    Optimization specifications:
      ----------------------------
 
      SCF Algorithm: Conventional
      Minimized density differences are used
      Number of density matrices in core                5
      Maximum number of NDDO SCF iterations           400
      Maximum number of HF SCF iterations             400
      Threshold for SCF energy change            0.10E-08
      Threshold for density matrix               0.10E-03
      Threshold for Fock matrix                  0.15E-03
      Threshold for linear dependence            0.10E-08
      Threshold at which DIIS is turned on       0.15E+00
      Threshold at which QNR/C2DIIS is turned on 0.75E-01
      Threshold for Norm(delta) (QNR/C2DIIS)     0.20E-04
      DIIS extrapolation of the SCF procedure
      All orbitals punched on: SCFORB
--
 
      Input vectors read from INPORB
      Orbital file label: *Guess orbitals
 
 
++ Convergence information
                                   SCF        iterations: Energy and convergence statistics
 
Iter     Tot. SCF        One-elec.       Two-elec.     Energy      Max Dij or  Max Fij      DNorm      TNorm      AccCon     Time
         Energy          Energy          Energy        Change      Delta Norm                                                in Sec.
   1    -2.418410847    -6.757100845     2.508246936   0.00E+00    0.39E+00*   0.12E+00*    0.38E+01   0.60E+01   None         0.
   2    -2.590436415    -6.736927813     2.316048336  -0.17E+00*   0.13E+00*   0.24E-01*    0.11E+01   0.57E+01   EDIIS        0.
   3    -2.598697171    -6.690611450     2.261471217  -0.83E-02*   0.78E-01*   0.91E-02*    0.23E+00   0.56E+01   EDIIS        0.
   4    -2.600073086    -6.695837253     2.265321105  -0.14E-02*   0.51E-01*   0.59E-02*    0.14E+00   0.57E+01   c2DIIS       0.
   5    -2.600528620    -6.686067413     2.255095732  -0.46E-03*   0.17E-01*   0.34E-02*    0.21E-01   0.56E+01   QNRc2DIIS    0.
   6    -2.600667025    -6.691634957     2.260524870  -0.14E-03*   0.11E-01*   0.20E-02*    0.59E-02   0.57E+01   QNRc2DIIS    0.
   7    -2.600731136    -6.689685342     2.258511145  -0.64E-04*   0.60E-02*   0.67E-03*    0.91E-03   0.57E+01   QNRc2DIIS    0.
   8    -2.600739981    -6.688806763     2.257623721  -0.88E-05*   0.12E-03*   0.12E-04     0.62E-03   0.56E+01   QNRc2DIIS    0.
   9    -2.600739984    -6.688809388     2.257626343  -0.33E-08*   0.28E-04*   0.22E-05     0.94E-04   0.56E+01   QNRc2DIIS    0.
  10    -2.600739984    -6.688808184     2.257625138  -0.15E-09    0.38E-05    0.39E-06     0.14E-04   0.56E+01   QNRc2DIIS    0.
 
       Convergence after 10 Macro Iterations
--
 
 *****************************************************************************************************************************
 *                                                                                                                           *
 *                                             SCF/KS-DFT Program, Final results                                             *
 *                                                                                                                           *
 *                                                                                                                           *
 *                                                                                                                           *
 *                                                       Final Results                                                       *
 *                                                                                                                           *
 *****************************************************************************************************************************
 
::    Total SCF energy                                 -2.6007399841
      One-electron energy                              -6.6888081838
      Two-electron energy                               2.2576251382
      Nuclear repulsion energy                          1.8304430615
      Kinetic energy (interpolated)                     1.9758907943
      Virial theorem                                    1.3162367027
      Total spin, S(S+1)                                0.0000000000
      Total spin, S                                     0.0000000000
      Max non-diagonal density matrix element           0.0000059000
      Max non-diagonal Fock matrix element              0.0000003146
 
 
      All orbitals with orbital energies smaller than  E(LUMO)+0.5 are printed
 
++    Molecular orbitals:
      -------------------
 
      Title: SCF orbitals

      Molecular orbitals for symmetry species 1: a  
 
          Orbital            1         2         3         4         5         6         7         8    
          Energy           -0.3874   -0.3647   -0.3346   -0.1422   -0.0990   -0.0607    0.3239    0.3447
          Occ. No.          2.0000    2.0000    2.0000    0.0000    0.0000    0.0000    0.0000    0.0000
 
        1 H1     1s         0.2426   -0.4159    0.3851   -0.4616    0.5502   -0.3511   -0.1436    0.1887
        2 H1     2s         0.0443   -0.0806    0.0811   -0.1460    0.1867   -0.1230    0.2881   -0.4837
        3 H1     2px       -0.0000    0.0000    0.0000   -0.0000    0.0000    0.0000    0.0000   -0.0000
        4 H1     2py        0.0000   -0.0000   -0.0000    0.0000    0.0000   -0.0000    0.0000   -0.0000
        5 H1     2pz        0.0088   -0.0126    0.0091    0.0044   -0.0129    0.0141   -0.0142    0.0183
        6 H2     1s         0.3188   -0.4541    0.3164    0.2837   -0.5931    0.5258   -0.2231    0.2130
        7 H2     2s         0.0526   -0.1018    0.0947    0.0844   -0.2078    0.1886    0.2715   -0.2959
        8 H2     2px       -0.0000    0.0000    0.0000   -0.0000    0.0000    0.0000   -0.0000    0.0000
        9 H2     2py       -0.0000    0.0000   -0.0000   -0.0000    0.0000    0.0000    0.0000   -0.0000
       10 H2     2pz       -0.0019    0.0090   -0.0133    0.0187   -0.0115   -0.0040    0.0033   -0.0050
       11 H3     1s         0.4346   -0.0766   -0.4500    0.4972    0.1747   -0.6637   -0.2323    0.0789
       12 H3     2s         0.0784    0.0007   -0.1184    0.1596    0.0670   -0.2348    0.3178   -0.1314
       13 H3     2px       -0.0000   -0.0000    0.0000    0.0000   -0.0000   -0.0000   -0.0000    0.0000
       14 H3     2py       -0.0000   -0.0000    0.0000    0.0000   -0.0000   -0.0000   -0.0000    0.0000
       15 H3     2pz        0.0068    0.0060   -0.0124   -0.0161    0.0153    0.0082   -0.0037   -0.0020
       16 H4     1s         0.4346    0.0766   -0.4500   -0.4972    0.1747    0.6637   -0.2323   -0.0789
       17 H4     2s         0.0784   -0.0007   -0.1184   -0.1596    0.0670    0.2348    0.3178    0.1314
       18 H4     2px        0.0000   -0.0000   -0.0000    0.0000   -0.0000    0.0000    0.0000    0.0000
       19 H4     2py       -0.0000   -0.0000   -0.0000    0.0000    0.0000    0.0000    0.0000   -0.0000
       20 H4     2pz       -0.0068    0.0060    0.0124   -0.0161   -0.0153    0.0082    0.0037   -0.0020
       21 H5     1s         0.3188    0.4541    0.3164   -0.2837   -0.5931   -0.5258   -0.2231   -0.2130
       22 H5     2s         0.0526    0.1018    0.0947   -0.0844   -0.2078   -0.1886    0.2715    0.2959
       23 H5     2px        0.0000   -0.0000   -0.0000    0.0000    0.0000    0.0000   -0.0000    0.0000
       24 H5     2py        0.0000    0.0000   -0.0000   -0.0000    0.0000    0.0000   -0.0000   -0.0000
       25 H5     2pz        0.0019    0.0090    0.0133    0.0187    0.0115   -0.0040   -0.0033   -0.0050
       26 H6     1s         0.2426    0.4159    0.3851    0.4616    0.5502    0.3511   -0.1436   -0.1887
       27 H6     2s         0.0443    0.0806    0.0811    0.1460    0.1867    0.1230    0.2881    0.4837
       28 H6     2px        0.0000    0.0000   -0.0000    0.0000    0.0000    0.0000   -0.0000    0.0000
       29 H6     2py        0.0000    0.0000   -0.0000   -0.0000   -0.0000    0.0000    0.0000    0.0000
       30 H6     2pz       -0.0088   -0.0126   -0.0091    0.0044    0.0129    0.0141    0.0142    0.0183
--
 
 
++    Molecular charges:
      ------------------
 
      Mulliken charges per centre and basis function type
      ---------------------------------------------------
 
                H1      H2      H3      H4      H5      H6    
      1s       0.8817  0.9323  0.9129  0.9129  0.9323  0.8817
      2s       0.0837  0.0919  0.0833  0.0833  0.0919  0.0837
      2px      0.0000  0.0000  0.0000  0.0000  0.0000  0.0000
      2pz      0.0043  0.0050  0.0049  0.0049  0.0050  0.0043
      2py      0.0000  0.0000  0.0000  0.0000  0.0000  0.0000
      Total    0.9696  1.0292  1.0011  1.0011  1.0292  0.9696
 
      N-E      0.0304 -0.0292 -0.0011 -0.0011 -0.0292  0.0304
 
      Total electronic charge=    6.000000
 
      Total            charge=   -0.000000
--
 
 
  Input file to MOLDEN was generated!
 
 
++    Static properties:
      ------------------
 
 
      LoProp Charges per center
 

                   H1       H2       H3       H4       H5       H6    
      Nuclear      1.0000   1.0000   1.0000   1.0000   1.0000   1.0000
      Electronic  -0.9818  -1.0161  -1.0021  -1.0021  -1.0161  -0.9818
 
      Total        0.0182  -0.0161  -0.0021  -0.0021  -0.0161   0.0182
--
 
 
++    Natural Bond Order analysis
      ---------------------------
      Based on LoProp computed density
      -------------------------------------------------------------------------------------
      Atom A       Atom B       Bond Order
      -------------------------------------------------------------------------------------
      NBO located      0.970 non-bonded electrons on atom H1        
      NBO located      1.009 non-bonded electrons on atom H3        
      NBO located      1.009 non-bonded electrons on atom H4        
      NBO located      0.970 non-bonded electrons on atom H6        
      The remaining    2.041 electrons are to be considered as diffuse
--
 
 
++    Molecular properties:
      ---------------------
 
      Charge (e):
                      =   -0.0000
      Dipole Moment (Debye):
      Origin of the operator (Ang)=    0.0000    0.0000    0.0000
                   X=  1.5717E-16               Y=  8.6474E-15               Z= -2.1311E-12           Total=  2.1311E-12
      Quadrupole Moment (Debye*Ang):
      Origin of the operator (Ang)=    0.0000    0.0000    6.2879
                  XX= -1.4225E+01              XY=  1.1754E-29              XZ= -1.6415E-14              YY= -1.4225E+01
                  YZ= -2.9428E-14              ZZ= -1.3087E+00
      In traceless form (Debye*Ang)
                  XX= -6.4582E+00              XY=  1.7631E-29              XZ= -2.4622E-14              YY= -6.4582E+00
                  YZ= -4.4142E-14              ZZ=  1.2916E+01
--
 
 
  Input file to MOLDEN was generated!
 
 ###############################################################################
 ###############################################################################
 ###                                                                         ###
 ###                                                                         ###
 ###    RunFile label nBas                                                   ###
 ###    was used       78 times                                              ###
 ###                                                                         ###
 ###                                                                         ###
 ###############################################################################
 ###############################################################################
--- Stop Module: scf at Mon Nov 18 14:13:31 2024 /rc=_RC_ALL_IS_WELL_ ---
*** files: H6_2.52.LprOrb H6_2.52.LoProp.molden H6_2.52.scf.molden H6_2.52.ScfOrb H6_2.52.scf.h5 xmldump
    saved to directory /home/grierjones/DDCASPT2/hydrogen_comps/H6_chain/H6_2.52

>>> COPY /tmp/H6_2.52/H6_2.52.scf.h5 /home/grierjones/DDCASPT2/hydrogen_comps/H6_chain/H6_2.52/

*** symbolic link created: INPORB -> H6_2.52.ScfOrb
--- Start Module: rasscf at Mon Nov 18 14:13:31 2024 ---
 
()()()()()()()()()()()()()()()()()()()()()()()()()()()()()()()()()()()()()()()()()()()()()()()()()()

                                              &RASSCF

                                   only a single process is used
                       available to each process: 2.0 GB of memory, 1 thread?
()()()()()()()()()()()()()()()()()()()()()()()()()()()()()()()()()()()()()()()()()()()()()()()()()()
 
 
 *************** WARNING ****************
 ###############################################################################
 ###############################################################################
 ###                                                                         ###
 ###                                                                         ###
 ###    Too many macro-iterations.                                           ###
 ###                                                                         ###
 ###                                                                         ###
 ###############################################################################
 ###############################################################################
 Too many macro-iterations requested.
 Reset to maximum, new MAXIT=     200
 ****************************************
 
 *************** WARNING ****************
 ###############################################################################
 ###############################################################################
 ###                                                                         ###
 ###                                                                         ###
 ###    Too many SX-iterations.                                              ###
 ###                                                                         ###
 ###                                                                         ###
 ###############################################################################
 ###############################################################################
 Too many SX-iterations requested.
 Reset to maximum, new ITMAX=     100
 ****************************************
 
      Header of the ONEINT file:
      --------------------------
      
      Integrals generated by seward 4.2.0  , Mon Nov 18 14:13:30 2024
 
 
      OrdInt status: non-squared
 
 
      Cartesian coordinates in Angstrom:
      -----------------------------------------------------
      No.  Label        X            Y            Z        
      -----------------------------------------------------
       1   H1         0.00000000   0.00000000   0.00000000
       2   H2         0.00000000   0.00000000   2.51515200
       3   H3         0.00000000   0.00000000   5.03030300
       4   H4         0.00000000   0.00000000   7.54545500
       5   H5         0.00000000   0.00000000  10.06060600
       6   H6         0.00000000   0.00000000  12.57575800
      -----------------------------------------------------
      Nuclear repulsion energy =    1.83044306
 
++    Wave function specifications:
      -----------------------------
 
      Number of closed shell electrons           0
      Number of electrons in active shells       6
      Max number of holes in RAS1 space          0
      Max nr of electrons in RAS3 space          0
      Number of inactive orbitals                0
      Number of active orbitals                  6
      Number of secondary orbitals              24
      Spin quantum number                      0.0
      State symmetry                             1
--
 
++    Orbital specifications:
      -----------------------
 
      Symmetry species                           1
                                                 a
      Frozen orbitals                            0
      Inactive orbitals                          0
      Active orbitals                            6
      RAS1 orbitals                              0
      RAS2 orbitals                              6
      RAS3 orbitals                              0
      Secondary orbitals                        24
      Deleted orbitals                           0
      Number of basis functions                 30
--
 
++    CI expansion specifications:
      ----------------------------
 
      Number of CSFs                           175
      Number of determinants                   210
      Number of root(s) required                 1
      Root chosen for geometry opt.              1
      CI root used                               1
         
      highest root included in the CI            1
      max. size of the explicit Hamiltonian    175
--
 
++    Optimization specifications:
      ----------------------------
 
      RASSCF algorithm: Conventional
      Maximum number of macro iterations       200
      Maximum number of SX iterations          100
      Threshold for RASSCF energy            0.100E-07
      Threshold for max MO rotation          0.100E+00
      Threshold for max BLB element          0.100E-03
      Level shift parameter                  0.500E+00
      Make Quasi-Newton update
--
 
      The MO-coefficients are taken from the file:
      /home/grierjones/DDCASPT2/hydrogen_comps/H6_chain/H6_2.49/H6_2.49.RasOrb                                                        
      Title: RASSCF average (pseudo-natural) orbitals                                      
 
      Total molecular charge    0.00
 
      ************************************************************************************************************************
      *                                                                                                                      *
      *                                            Wave function control section                                             *
      *                                                                                                                      *
      ************************************************************************************************************************
 
 
                                         RASSCF iterations: Energy and convergence statistics
                                         ----------------------------------------------------
 
      Iter CI   SX   CI       RASSCF       Energy    max ROT     max BLB   max BLB  Level Ln srch  Step   QN   Walltime
          iter iter root      energy       change     param      element    value   shift minimum  type update hh:mm:ss
 Nr of preliminary CI iterations:   1
        1   1    4    1    -3.00158364    0.00E+00   0.68E-03    3  11 1  0.57E-03*  0.01   0.00    SX    NO    0:00:00
        2   1    3    1    -3.00158509   -0.14E-05*  0.20E-03    1   7 1  0.15E-03*  0.01   0.00    SX    NO    0:00:00
        3   1    3    1    -3.00158513   -0.47E-07* -0.49E-04    1   7 1 -0.35E-04   0.01   0.00    SX    NO    0:00:00
        4   1    3    1    -3.00158514   -0.32E-08  -0.17E-04    1   7 1  0.12E-04   0.01   0.00    SX    NO    0:00:00
      Convergence after  4 iterations
 
  Dmat in MO in SXCTL bf call to SXHAM                                                                                    
  mat. size =     6x    6
 
        1.3573200805732955
       -0.0000000000104372      1.2906593788551459
        0.0000755629051901     -0.0000000000058332      1.1865768850298575
       -0.0000000000137442      0.0000180736792302     -0.0000000000010422      0.8173506319603115
        0.0000000000005924     -0.0001034607982690     -0.0000000000125520      0.0000401374460154      0.6386824850145513
       -0.0000568232487190     -0.0000000000003564     -0.0001708186188151     -0.0000000000075421      0.0000000000087377
        0.7094105385668352
        5   1    3    1    -3.00158514   -0.29E-09  -0.17E-04    1   7 1 -0.37E-05   0.01   0.00    SX    NO    0:00:00
 
      ************************************************************************************************************************
                                                      Wave function printout:
                       occupation of active orbitals, and spin coupling of open shells (u,d: Spin up or down)
      ************************************************************************************************************************
 
      Note: transformation to natural orbitals
      has been made, which may change the order of the CSFs.
 
      printout of CI-coefficients larger than  0.05 for root  1
      energy=      -3.001585
      conf/sym  111111     Coeff  Weight
             1  222000   0.48483 0.23506
            11  220200  -0.27070 0.07328
            12  220ud0  -0.05078 0.00258
            13  220020  -0.05821 0.00339
            16  220002  -0.07256 0.00527
            20  2udu0d  -0.28950 0.08381
            21  2ud0ud   0.09657 0.00933
            23  u2d200   0.05194 0.00270
            24  u2dud0   0.28848 0.08322
            25  u2d020   0.05268 0.00277
            28  u2d002  -0.11219 0.01259
            29  202200  -0.07479 0.00559
            30  202ud0   0.11236 0.01262
            31  202020  -0.07164 0.00513
            34  202002  -0.19972 0.03989
            38  ud2u0d  -0.09966 0.00993
            39  ud20ud   0.23241 0.05401
            41  022200  -0.06178 0.00382
            42  022ud0  -0.05427 0.00294
            43  022020  -0.17281 0.02986
            46  022002  -0.07385 0.00545
            48  2uud0d   0.08342 0.00696
            50  u2udd0  -0.09831 0.00966
            55  uu20dd   0.05093 0.00259
           120  200220   0.06082 0.00370
           123  200202   0.18256 0.03333
           124  200ud2  -0.05075 0.00258
           127  ud02ud  -0.20336 0.04135
           128  ud0u2d  -0.06635 0.00440
           132  020220   0.14887 0.02216
           135  020202   0.06258 0.00392
           136  020ud2   0.08192 0.00671
           138  u0d220   0.08186 0.00670
           141  u0d202  -0.05218 0.00272
           142  u0dud2   0.20413 0.04167
           145  0ud2ud  -0.06837 0.00467
           146  0udu2d  -0.17335 0.03005
           155  002022   0.13052 0.01704
           162  u0udd2  -0.06735 0.00454
           164  0uud2d   0.05080 0.00258
           175  000222  -0.18128 0.03286
 
      Natural orbitals and occupation numbers for root  1
      sym 1:   1.357320   1.290659   1.186577   0.817351   0.638682   0.709410
 
      ************************************************************************************************************************
      *                                                                                                                      *
      *                                                    Final results                                                     *
      *                                                                                                                      *
      ************************************************************************************************************************
 
 
++    Wave function specifications:
      -----------------------------
 
      Number of closed shell electrons           0
      Number of electrons in active shells       6
      Max number of holes in RAS1 space          0
      Max nr of electrons in RAS3 space          0
      Number of inactive orbitals                0
      Number of active orbitals                  6
      Number of secondary orbitals              24
      Spin quantum number                      0.0
      State symmetry                             1
--
 
++    Orbital specifications:
      -----------------------
 
      Symmetry species                           1
                                                 a
      Frozen orbitals                            0
      Inactive orbitals                          0
      Active orbitals                            6
      RAS1 orbitals                              0
      RAS2 orbitals                              6
      RAS3 orbitals                              0
      Secondary orbitals                        24
      Deleted orbitals                           0
      Number of basis functions                 30
--
 
++    CI expansion specifications:
      ----------------------------
 
      Number of CSFs                           175
      Number of determinants                   210
      Number of root(s) required                 1
      CI root used                               1
      highest root included in the CI            1
      Root passed to geometry opt.               1
--
 
++    Final optimization conditions:
      ------------------------------
 
      Average CI energy                              -3.00158514
      RASSCF energy for state  1                     -3.00158514
      Super-CI energy                                -0.00000000
      RASSCF energy change                           -0.00000000
      Max change in MO coefficients               0.830E-05
      Max non-diagonal density matrix element    -0.174E-04
      Maximum BLB matrix element                 -0.372E-05
      (orbital pair   1,   7 in symmetry   1)
      Norm of electronic gradient            0.579E-05
--
 
 
      Final state energy(ies):
      ------------------------
 
::    RASSCF root number  1 Total energy:     -3.00158514
 
++    Molecular orbitals:
      -------------------
 
      Pseudonatural active orbitals and approximate occupation numbers
 
 
 
 
      Molecular orbitals for symmetry species 1: a  
 
 
      Orbital                1         2         3         4         5         6         7         8         9        10
      Energy            0.0000    0.0000    0.0000    0.0000    0.0000    0.0000    0.3336    0.3543    0.3981    0.4734
      Occ. No.          1.3573    1.2907    1.1866    0.8174    0.6387    0.7094    0.0000    0.0000    0.0000    0.0000
 
    1 H1     1s         0.2691   -0.4393    0.4092   -0.4546    0.3359   -0.5220   -0.1035   -0.1178    0.0254   -0.1122
    2 H1     2s         0.0201   -0.0340    0.0336   -0.0483    0.0439   -0.0622    0.2883    0.4901   -0.5913   -0.6006
    3 H1     2px       -0.0000    0.0000    0.0000    0.0000   -0.0000    0.0000    0.0000    0.0000   -0.0000   -0.0000
    4 H1     2py       -0.0000    0.0000   -0.0000    0.0000   -0.0000    0.0000    0.0000    0.0000   -0.0000   -0.0000
    5 H1     2pz        0.0015   -0.0018    0.0010   -0.0011    0.0023   -0.0024   -0.0106   -0.0147    0.0165    0.0346
    6 H2     1s         0.3579   -0.4718    0.2892    0.2756   -0.4875    0.5670   -0.1816   -0.1779    0.0432    0.0242
    7 H2     2s         0.0237   -0.0437    0.0410    0.0221   -0.0824    0.0792    0.2786    0.3058   -0.0014    0.4968
    8 H2     2px        0.0000   -0.0000   -0.0000   -0.0000   -0.0000    0.0000   -0.0000   -0.0000   -0.0000    0.0000
    9 H2     2py       -0.0000    0.0000   -0.0000    0.0000    0.0000    0.0000    0.0000    0.0000   -0.0000   -0.0000
   10 H2     2pz        0.0009    0.0008   -0.0024    0.0003    0.0003   -0.0007   -0.0000    0.0020    0.0107    0.0464
   11 H3     1s         0.4426   -0.1046   -0.4752    0.5093    0.5952   -0.1653   -0.1880   -0.0510   -0.1175   -0.0028
   12 H3     2s         0.0311    0.0009   -0.0530    0.0610    0.1006   -0.0326    0.3248    0.1340    0.4148    0.4805
   13 H3     2px       -0.0000    0.0000   -0.0000   -0.0000    0.0000    0.0000    0.0000    0.0000   -0.0000    0.0000
   14 H3     2py        0.0000   -0.0000    0.0000   -0.0000   -0.0000    0.0000   -0.0000   -0.0000    0.0000    0.0000
   15 H3     2pz       -0.0001    0.0020   -0.0014    0.0001    0.0015    0.0003   -0.0004    0.0021    0.0014   -0.0408
   16 H4     1s         0.4426    0.1046   -0.4752   -0.5093   -0.5952   -0.1653   -0.1880    0.0510   -0.1175    0.0028
   17 H4     2s         0.0311   -0.0009   -0.0530   -0.0610   -0.1006   -0.0326    0.3248   -0.1340    0.4148   -0.4805
   18 H4     2px       -0.0000   -0.0000    0.0000   -0.0000   -0.0000   -0.0000    0.0000   -0.0000    0.0000    0.0000
   19 H4     2py        0.0000   -0.0000    0.0000    0.0000    0.0000   -0.0000   -0.0000   -0.0000    0.0000   -0.0000
   20 H4     2pz        0.0001    0.0020    0.0014    0.0001    0.0015   -0.0003    0.0004    0.0021   -0.0014   -0.0408
   21 H5     1s         0.3579    0.4718    0.2892   -0.2756    0.4875    0.5670   -0.1816    0.1779    0.0432   -0.0242
   22 H5     2s         0.0237    0.0437    0.0410   -0.0221    0.0824    0.0792    0.2786   -0.3058   -0.0014   -0.4968
   23 H5     2px        0.0000   -0.0000   -0.0000    0.0000    0.0000    0.0000   -0.0000   -0.0000    0.0000   -0.0000
   24 H5     2py        0.0000   -0.0000    0.0000    0.0000   -0.0000   -0.0000   -0.0000   -0.0000    0.0000   -0.0000
   25 H5     2pz       -0.0009    0.0008    0.0024    0.0003    0.0003    0.0007    0.0000    0.0020   -0.0107    0.0464
   26 H6     1s         0.2691    0.4393    0.4092    0.4546   -0.3359   -0.5220   -0.1035    0.1178    0.0254    0.1122
   27 H6     2s         0.0201    0.0340    0.0336    0.0483   -0.0439   -0.0622    0.2883   -0.4901   -0.5913    0.6006
   28 H6     2px        0.0000   -0.0000   -0.0000   -0.0000   -0.0000    0.0000   -0.0000   -0.0000   -0.0000    0.0000
   29 H6     2py       -0.0000   -0.0000   -0.0000    0.0000   -0.0000    0.0000    0.0000   -0.0000   -0.0000   -0.0000
   30 H6     2pz       -0.0015   -0.0018   -0.0010   -0.0011    0.0023    0.0024    0.0106   -0.0147   -0.0165    0.0346
 
 
      Orbital               11        12        13        14        15        16        17        18        19        20
      Energy            0.5922    0.7286    0.7558    0.8534    0.8534    0.8811    0.8811    0.9228    0.9228    0.9725
      Occ. No.          0.0000    0.0000    0.0000    0.0000    0.0000    0.0000    0.0000    0.0000    0.0000    0.0000
 
    1 H1     1s        -0.2062    0.1791   -0.1011   -0.0000    0.0000    0.0000    0.0000    0.0000   -0.0000    0.0000
    2 H1     2s        -0.5031    0.2877   -0.1399   -0.0000    0.0000   -0.0000   -0.0000    0.0000    0.0000    0.0000
    3 H1     2px       -0.0000    0.0000   -0.0000   -0.2119   -0.0538    0.3855    0.1110   -0.4587   -0.2279   -0.5259
    4 H1     2py       -0.0000    0.0000   -0.0000    0.0538   -0.2119   -0.1110    0.3855    0.2279   -0.4587    0.0507
    5 H1     2pz        0.1059   -0.3367    0.3246   -0.0000   -0.0000    0.0000    0.0000   -0.0000   -0.0000   -0.0000
    6 H2     1s         0.2091   -0.2232    0.0719   -0.0000    0.0000    0.0000    0.0000    0.0000    0.0000    0.0000
    7 H2     2s         0.8827   -0.5952    0.1977    0.0000   -0.0000    0.0000    0.0000   -0.0000   -0.0000   -0.0000
    8 H2     2px        0.0000    0.0000   -0.0000   -0.3864   -0.0981    0.4873    0.1404   -0.2114   -0.1050    0.2287
    9 H2     2py       -0.0000   -0.0000   -0.0000    0.0981   -0.3864   -0.1404    0.4873    0.1050   -0.2114   -0.0221
   10 H2     2pz        0.0342    0.3087   -0.3841    0.0000    0.0000   -0.0000   -0.0000    0.0000    0.0000    0.0000
   11 H3     1s        -0.0940    0.2682   -0.0287   -0.0000    0.0000    0.0000    0.0000    0.0000    0.0000   -0.0000
   12 H3     2s        -0.4456    0.7268   -0.0868   -0.0000   -0.0000    0.0000   -0.0000   -0.0000    0.0000    0.0000
   13 H3     2px       -0.0000   -0.0000    0.0000   -0.4839   -0.1228    0.2167    0.0624    0.3701    0.1838    0.4229
   14 H3     2py       -0.0000    0.0000   -0.0000    0.1228   -0.4839   -0.0624    0.2167   -0.1838    0.3701   -0.0408
   15 H3     2pz       -0.1910   -0.1192    0.3706   -0.0000   -0.0000    0.0000    0.0000   -0.0000   -0.0000   -0.0000
   16 H4     1s        -0.0940   -0.2682   -0.0287    0.0000    0.0000   -0.0000    0.0000    0.0000   -0.0000   -0.0000
   17 H4     2s        -0.4456   -0.7268   -0.0868   -0.0000    0.0000   -0.0000    0.0000    0.0000    0.0000    0.0000
   18 H4     2px        0.0000    0.0000    0.0000   -0.4839   -0.1228   -0.2167   -0.0624    0.3701    0.1838   -0.4229
   19 H4     2py        0.0000    0.0000    0.0000    0.1228   -0.4839    0.0624   -0.2167   -0.1838    0.3701    0.0408
   20 H4     2pz        0.1910   -0.1192   -0.3706   -0.0000   -0.0000   -0.0000    0.0000   -0.0000    0.0000    0.0000
   21 H5     1s         0.2091    0.2232    0.0719    0.0000   -0.0000    0.0000   -0.0000   -0.0000   -0.0000   -0.0000
   22 H5     2s         0.8827    0.5952    0.1977    0.0000    0.0000    0.0000    0.0000   -0.0000    0.0000   -0.0000
   23 H5     2px        0.0000   -0.0000    0.0000   -0.3864   -0.0981   -0.4873   -0.1404   -0.2114   -0.1050   -0.2287
   24 H5     2py        0.0000    0.0000    0.0000    0.0981   -0.3864    0.1404   -0.4873    0.1050   -0.2114    0.0221
   25 H5     2pz       -0.0342    0.3087    0.3841    0.0000    0.0000   -0.0000    0.0000    0.0000    0.0000    0.0000
   26 H6     1s        -0.2062   -0.1791   -0.1011   -0.0000    0.0000    0.0000    0.0000   -0.0000    0.0000    0.0000
   27 H6     2s        -0.5031   -0.2877   -0.1399    0.0000   -0.0000   -0.0000   -0.0000    0.0000   -0.0000    0.0000
   28 H6     2px       -0.0000    0.0000    0.0000   -0.2119   -0.0538   -0.3855   -0.1110   -0.4587   -0.2279    0.5259
   29 H6     2py        0.0000    0.0000   -0.0000    0.0538   -0.2119    0.1110   -0.3855    0.2279   -0.4587   -0.0507
   30 H6     2pz       -0.1059   -0.3367   -0.3246   -0.0000   -0.0000    0.0000   -0.0000   -0.0000   -0.0000   -0.0000
 
 
      Orbital               21        22        23        24        25        26        27        28        29        30
      Energy            0.9725    1.0195    1.0195    1.0538    1.0538    1.0746    1.0998    1.1836    1.2859    1.3715
      Occ. No.          0.0000    0.0000    0.0000    0.0000    0.0000    0.0000    0.0000    0.0000    0.0000    0.0000
 
    1 H1     1s         0.0000   -0.0000   -0.0000   -0.0000    0.0000    0.1480   -0.1506    0.1403   -0.1114    0.0676
    2 H1     2s        -0.0000   -0.0000    0.0000    0.0000    0.0000    0.2849   -0.3216    0.2759   -0.1787    0.0891
    3 H1     2px        0.0507    0.3561   -0.2540   -0.2310    0.0891   -0.0000   -0.0000   -0.0000    0.0000   -0.0000
    4 H1     2py        0.5259   -0.2540   -0.3561    0.0891    0.2310   -0.0000   -0.0000    0.0000   -0.0000    0.0000
    5 H1     2pz       -0.0000   -0.0000   -0.0000    0.0000    0.0000    0.2705   -0.4736    0.5437   -0.4601    0.2654
    6 H2     1s         0.0000    0.0000   -0.0000   -0.0000   -0.0000   -0.4199    0.3322   -0.2090    0.0529    0.0138
    7 H2     2s         0.0000    0.0000   -0.0000   -0.0000   -0.0000   -0.8464    0.6459   -0.3466    0.0876   -0.0093
    8 H2     2px       -0.0221   -0.4370    0.3117    0.4099   -0.1580   -0.0000    0.0000   -0.0000   -0.0000   -0.0000
    9 H2     2py       -0.2287    0.3117    0.4370   -0.1580   -0.4099    0.0000    0.0000    0.0000    0.0000   -0.0000
   10 H2     2pz       -0.0000    0.0000    0.0000   -0.0000   -0.0000   -0.3745    0.1557    0.2954   -0.6320    0.5103
   11 H3     1s        -0.0000    0.0000   -0.0000    0.0000    0.0000    0.6444   -0.1821   -0.0275    0.0743    0.0225
   12 H3     2s        -0.0000   -0.0000   -0.0000    0.0000    0.0000    1.3036   -0.3512   -0.0161    0.0691    0.0317
   13 H3     2px       -0.0408    0.1928   -0.1376   -0.5096    0.1965    0.0000   -0.0000    0.0000   -0.0000   -0.0000
   14 H3     2py       -0.4229   -0.1376   -0.1928    0.1965    0.5096   -0.0000   -0.0000   -0.0000    0.0000   -0.0000
   15 H3     2pz        0.0000    0.0000   -0.0000    0.0000    0.0000    0.1735    0.5055   -0.4735   -0.2612    0.6308
   16 H4     1s        -0.0000    0.0000   -0.0000   -0.0000   -0.0000   -0.6444   -0.1821    0.0275    0.0743   -0.0225
   17 H4     2s         0.0000    0.0000    0.0000   -0.0000   -0.0000   -1.3036   -0.3512    0.0161    0.0691   -0.0317
   18 H4     2px        0.0408    0.1928   -0.1376    0.5096   -0.1965   -0.0000   -0.0000   -0.0000    0.0000    0.0000
   19 H4     2py        0.4229   -0.1376   -0.1928   -0.1965   -0.5096    0.0000   -0.0000   -0.0000    0.0000   -0.0000
   20 H4     2pz       -0.0000   -0.0000    0.0000    0.0000    0.0000    0.1735   -0.5055   -0.4735    0.2612    0.6308
   21 H5     1s        -0.0000   -0.0000   -0.0000    0.0000    0.0000    0.4199    0.3322    0.2090    0.0529   -0.0138
   22 H5     2s         0.0000   -0.0000   -0.0000    0.0000    0.0000    0.8464    0.6459    0.3466    0.0876    0.0093
   23 H5     2px        0.0221   -0.4370    0.3117   -0.4099    0.1580    0.0000    0.0000    0.0000    0.0000   -0.0000
   24 H5     2py        0.2287    0.3117    0.4370    0.1580    0.4099   -0.0000   -0.0000    0.0000   -0.0000   -0.0000
   25 H5     2pz        0.0000    0.0000    0.0000   -0.0000   -0.0000   -0.3745   -0.1557    0.2954    0.6320    0.5103
   26 H6     1s        -0.0000   -0.0000   -0.0000   -0.0000   -0.0000   -0.1480   -0.1506   -0.1403   -0.1114   -0.0676
   27 H6     2s         0.0000   -0.0000    0.0000   -0.0000   -0.0000   -0.2849   -0.3216   -0.2759   -0.1787   -0.0891
   28 H6     2px       -0.0507    0.3561   -0.2540    0.2310   -0.0891   -0.0000    0.0000   -0.0000   -0.0000   -0.0000
   29 H6     2py       -0.5259   -0.2540   -0.3561   -0.0891   -0.2310    0.0000    0.0000    0.0000    0.0000    0.0000
   30 H6     2pz        0.0000    0.0000   -0.0000    0.0000    0.0000    0.2705    0.4736    0.5437    0.4601    0.2654
--
 
      Von Neumann Entropy (Root  1) =  2.81806
 

      Mulliken population analysis for root number:  1
      -----------------------------------------------
 
 
++    Molecular charges:
      ------------------
 
      Mulliken charges per centre and basis function type
      ---------------------------------------------------
 
                H1      H2      H3      H4      H5      H6    
      1s       0.9915  1.0015  1.0018  1.0018  1.0015  0.9915
      2s       0.0063  0.0002 -0.0023 -0.0023  0.0002  0.0063
      2px      0.0000  0.0000  0.0000  0.0000  0.0000  0.0000
      2pz      0.0000  0.0005  0.0004  0.0004  0.0005  0.0000
      2py      0.0000  0.0000  0.0000  0.0000  0.0000  0.0000
      Total    0.9978  1.0022  0.9999  0.9999  1.0022  0.9978
 
      N-E      0.0022 -0.0022  0.0001  0.0001 -0.0022  0.0022
 
      Total electronic charge=    6.000000
 
      Total            charge=   -0.000000
--
 
 

      Expectation values of various properties for root number:  1
      -----------------------------------------------------------
 
 
++    Molecular properties:
      ---------------------
 
      Charge (e):
                      =   -0.0000
      Dipole Moment (Debye):
      Origin of the operator (Ang)=    0.0000    0.0000    0.0000
                   X=  2.1665E-13               Y=  4.8389E-13               Z= -1.6615E-12           Total=  1.7441E-12
      Quadrupole Moment (Debye*Ang):
      Origin of the operator (Ang)=    0.0000    0.0000    6.2879
                  XX= -9.1380E+00              XY=  7.7916E-28              XZ= -8.2819E-13              YY= -9.1380E+00
                  YZ= -1.0091E-12              ZZ= -8.6729E+00
      In traceless form (Debye*Ang)
                  XX= -2.3256E-01              XY=  1.1687E-27              XZ= -1.2423E-12              YY= -2.3256E-01
                  YZ= -1.5137E-12              ZZ=  4.6512E-01
--
 

      LoProp population analysis for root number:  1
      -----------------------------------------------
 
 
++    LoProp analysis:
      ----------------
 
 
 
  Input file to MOLDEN was generated!
 
 
++    Static properties:
      ------------------
 
 
      LoProp Charges per center
 

                   H1       H2       H3       H4       H5       H6    
      Nuclear      1.0000   1.0000   1.0000   1.0000   1.0000   1.0000
      Electronic  -1.0001  -0.9999  -1.0000  -1.0000  -0.9999  -1.0001
 
      Total       -0.0001   0.0001   0.0000   0.0000   0.0001  -0.0001
--
 
 
      Natural Bond Order analysis for root number:  1
 
++    Natural Bond Order analysis
      ---------------------------
      Based on LoProp computed density
      -------------------------------------------------------------------------------------
      Atom A       Atom B       Bond Order
      -------------------------------------------------------------------------------------
      The remaining    6.000 electrons are to be considered as diffuse
--
 
--
 
 
  Input file to MOLDEN was generated!
 
      Average orbitals are written to the RASORB file
      Natural orbitals for root   1 are written to the RASORB.1 file
      Spin density orbitals for root   1 are written to the SPDORB.1 file
 
--- Stop Module: rasscf at Mon Nov 18 14:13:31 2024 /rc=_RC_ALL_IS_WELL_ ---
*** files: H6_2.52.LprOrb H6_2.52.rasscf.molden H6_2.52.LoProp.molden H6_2.52.RasOrb H6_2.52.RasOrb.1 H6_2.52.rasscf.h5 H6_2.52.SpdOrb.1 xmldump
    saved to directory /home/grierjones/DDCASPT2/hydrogen_comps/H6_chain/H6_2.52

>>> COPY /tmp/H6_2.52/H6_2.52.rasscf.h5 /home/grierjones/DDCASPT2/hydrogen_comps/H6_chain/H6_2.52/

>>> COPY /tmp/H6_2.52/GMJ_Fock_MO.csv /home/grierjones/DDCASPT2/hydrogen_comps/H6_chain/H6_2.52/H6_2.52.GMJ_Fock_MO.csv

>>> COPY /tmp/H6_2.52/GMJ_PT2_Fock_MO.csv /home/grierjones/DDCASPT2/hydrogen_comps/H6_chain/H6_2.52/H6_2.52.GMJ_PT2_Fock_MO.csv

*** symbolic link created: INPORB -> H6_2.52.RasOrb
--- Start Module: motra at Mon Nov 18 14:13:31 2024 ---
 
()()()()()()()()()()()()()()()()()()()()()()()()()()()()()()()()()()()()()()()()()()()()()()()()()()

                                               &MOTRA

                                   only a single process is used
                       available to each process: 2.0 GB of memory, 1 thread?
()()()()()()()()()()()()()()()()()()()()()()()()()()()()()()()()()()()()()()()()()()()()()()()()()()
 
 
      *** WARNING: Default frozen orbitals is overwritten by user input.
      *** Default values:   0
 
      Header of the integral files:
      
       Integrals generated by seward 4.2.0  , Mon Nov 18 14:13:30 2024
 
 
      Header of MO coefficients source file:
      * RASSCF average (pseudo-natural) orbitals                                      
 
 
      Cartesian coordinates in Angstrom:
      -----------------------------------------------------
      No.  Label        X            Y            Z        
      -----------------------------------------------------
       1   H1         0.00000000   0.00000000   0.00000000
       2   H2         0.00000000   0.00000000   2.51515200
       3   H3         0.00000000   0.00000000   5.03030300
       4   H4         0.00000000   0.00000000   7.54545500
       5   H5         0.00000000   0.00000000  10.06060600
       6   H6         0.00000000   0.00000000  12.57575800
      -----------------------------------------------------
      Nuclear repulsion energy =    1.83044306
 
      Orbital specifications:
      -----------------------
 
      Symmetry species:              1
      Number of basis functions:    30
      Frozen orbitals:               0
      Deleted orbitals:              0
      Number of orbitals used:      30

       SYMMETRY  BASIS FUNCTIONS       ORBITALS      INTEGRALS   CPU(SEC)  I/O(SEC)
 
        1 1 1 1   30  30  30  30    30  30  30  30      108345       0.00      0.00

       TOTAL CPU TIME(SEC)    0.05TOTAL I/O TIME(SEC)    0.14
 
--- Stop Module: motra at Mon Nov 18 14:13:32 2024 /rc=_RC_ALL_IS_WELL_ ---
*** files: xmldump
    saved to directory /home/grierjones/DDCASPT2/hydrogen_comps/H6_chain/H6_2.52

>>> COPY /tmp/H6_2.52/GMJ_one_int_indx.csv /home/grierjones/DDCASPT2/hydrogen_comps/H6_chain/H6_2.52/H6_2.52.GMJ_one_int_indx.csv

>>> COPY /tmp/H6_2.52/GMJ_one_int.csv /home/grierjones/DDCASPT2/hydrogen_comps/H6_chain/H6_2.52/H6_2.52.GMJ_one_int.csv

>>> COPY /tmp/H6_2.52/GMJ_two_int_indx.csv /home/grierjones/DDCASPT2/hydrogen_comps/H6_chain/H6_2.52/H6_2.52.GMJ_two_int_indx.csv

>>> COPY /tmp/H6_2.52/GMJ_two_int.csv /home/grierjones/DDCASPT2/hydrogen_comps/H6_chain/H6_2.52/H6_2.52.GMJ_two_int.csv

*** symbolic link created: INPORB -> H6_2.52.RasOrb
--- Start Module: caspt2 at Mon Nov 18 14:13:32 2024 ---
 
()()()()()()()()()()()()()()()()()()()()()()()()()()()()()()()()()()()()()()()()()()()()()()()()()()

                                              &CASPT2

                                   only a single process is used
                       available to each process: 2.0 GB of memory, 1 thread?
()()()()()()()()()()()()()()()()()()()()()()()()()()()()()()()()()()()()()()()()()()()()()()()()()()
 
 Cholesky algorithm in CASPT2 =    1
 
 ###############################################################################
 ###############################################################################
 ###                                                                         ###
 ###                                                                         ###
 ###    User changed nr of frozen orbitals.                                  ###
 ###                                                                         ###
 ###                                                                         ###
 ###############################################################################
 ###############################################################################
 
++    Wave function specifications:
      -----------------------------
 
      Number of closed shell electrons           0
      Number of electrons in active shells       6
      Max number of holes in RAS1 space          0
      Max number of electrons in RAS3 space      0
      Number of inactive orbitals                0
      Number of active orbitals                  6
      Number of secondary orbitals              24
      Spin quantum number                      0.0
      State symmetry                             1
      Number of CSFs                           175
      Number of root(s) available                1
      Root passed to geometry opt.               1
      A file JOBMIX will be created.
      This is a CASSCF or RASSCF reference function
--
 
++    Orbital specifications:
      -----------------------
 
      Symmetry species                           1
                                                 a
      Frozen orbitals                            0
      Inactive orbitals                          0
      Active orbitals                            6
      Secondary orbitals                        24
      Deleted orbitals                           0
      Number of basis functions                 30
--
 
      Type of Fock operator: STANDARD
      Type of 0-order Hamiltonian: STANDARD WITH DEFAULT IPEA
        "IP-EA" denominator shift =      0.25
      The input orbitals and the CI vector will be transformed.
 
--------------------------------------------------------------------------------
 Estimated memory requirements:
  POLY3 :                   262414
  RHS:                      285604
  SIGMA :                   275200
  PRPCTL:                        0
 Available workspace:    230396124
 
++ CASPT2 computation for group   1
 
********************************************************************************
 Multi-State initialization phase begins for group   1
--------------------------------------------------------------------------------
********************************************************************************
 Compute H0 matrices for state    1
--------------------------------------------------------------------------------
--------------------------------------------------------------------------------
 H0 matrices have been computed.
 
********************************************************************************
  CASPT2 EQUATION SOLUTION
--------------------------------------------------------------------------------
 
  Total nr of CASPT2 parameters:
   Before reduction:       15624
   After  reduction:       14904
 
 The contributions to the second order correlation energy in atomic units.
-----------------------------------------------------------------------------------------------------------------------------
  IT.      VJTU        VJTI        ATVX        AIVX        VJAI        BVAT        BJAT        BJAI        TOTAL       RNORM  
-----------------------------------------------------------------------------------------------------------------------------
   1     0.000000    0.000000   -0.000573    0.000000    0.000000   -0.001691    0.000000    0.000000   -0.002265    0.000502
   2     0.000000    0.000000   -0.000580    0.000000    0.000000   -0.001694    0.000000    0.000000   -0.002273    0.000071
   3     0.000000    0.000000   -0.000580    0.000000    0.000000   -0.001694    0.000000    0.000000   -0.002274    0.000015
   4     0.000000    0.000000   -0.000580    0.000000    0.000000   -0.001694    0.000000    0.000000   -0.002274    0.000002
-------------------------------------------------------------------------------------------------------------------
 
  FINAL CASPT2 RESULT:
 
  Correlation energy /Case, /Symm, and sums:
 VJTU      0.00000000  0.00000000
 VJTIP     0.00000000  0.00000000
 VJTIM     0.00000000  0.00000000
 ATVX     -0.00058005 -0.00058005
 AIVX      0.00000000  0.00000000
 VJAIP     0.00000000  0.00000000
 VJAIM     0.00000000  0.00000000
 BVATP    -0.00154830 -0.00154830
 BVATM    -0.00014540 -0.00014540
 BJATP     0.00000000  0.00000000
 BJATM     0.00000000  0.00000000
 BJAIP     0.00000000  0.00000000
 BJAIM     0.00000000  0.00000000
 Summed:  -0.00227375 -0.00227375
 
      Reference energy:          -3.0015851382
      E2 (Non-variational):      -0.0022737536
      E2 (Variational):          -0.0022737566
      Total energy:              -3.0038588948
      Residual norm:              0.0000003166
      Reference weight:           0.99857
 
      Contributions to the CASPT2 correlation energy
      Active & Virtual Only:         -0.0022737536
      One Inactive Excited:           0.0000000000
      Two Inactive Excited:           0.0000000000
 
 
++ Denominators, etc.
----------------------------------------------------------------------------------------------------
 Report on small energy denominators, large coefficients, and large energy contributions.
CASE  SYMM ACTIVE-MIX  NON-ACTIVE INDICES          DENOMINATOR     RHS VALUE       COEFFICIENT     CONTRIBUTION
--
 
   (Skipping property calculation,
    use PROP keyword to activate)
--
 
  Total CASPT2 energies:
::    CASPT2 Root  1     Total energy:     -3.00385889
 
  A NEW JOBIPH FILE NAMED 'JOBMIX' IS PREPARED.
********************************************************************************
--- Stop Module: caspt2 at Mon Nov 18 14:13:32 2024 /rc=_RC_ALL_IS_WELL_ ---
*** files: xmldump
    saved to directory /home/grierjones/DDCASPT2/hydrogen_comps/H6_chain/H6_2.52

>>> EXPORT i = B

>>> EXPORT j = P

>>> IF (-FILE GMJ_e2_${i}_${j}.csv)
(Skipped)

>>> END FOREACH

>>> EXPORT j = M

>>> IF (-FILE GMJ_e2_${i}_${j}.csv)
(Skipped)

>>> END FOREACH

>>> END FOREACH

>>> EXPORT i = E

>>> EXPORT j = P

>>> IF (-FILE GMJ_e2_${i}_${j}.csv)
(Skipped)

>>> END FOREACH

>>> EXPORT j = M

>>> IF (-FILE GMJ_e2_${i}_${j}.csv)
(Skipped)

>>> END FOREACH

>>> END FOREACH

>>> EXPORT i = F

>>> EXPORT j = P

>>> IF (-FILE GMJ_e2_${i}_${j}.csv)

>>> COPY /tmp/H6_2.52/GMJ_RHS_F_P.csv /home/grierjones/DDCASPT2/hydrogen_comps/H6_chain/H6_2.52/GMJ_RHS_F_P.csv

>>> COPY /tmp/H6_2.52/GMJ_IVECW_F_P.csv /home/grierjones/DDCASPT2/hydrogen_comps/H6_chain/H6_2.52/GMJ_IVECW_F_P.csv

>>> COPY /tmp/H6_2.52/GMJ_IVECX_F_P.csv /home/grierjones/DDCASPT2/hydrogen_comps/H6_chain/H6_2.52/GMJ_IVECX_F_P.csv

>>> COPY /tmp/H6_2.52/GMJ_IVECC2_F_P.csv /home/grierjones/DDCASPT2/hydrogen_comps/H6_chain/H6_2.52/GMJ_IVECC2_F_P.csv

>>> COPY /tmp/H6_2.52/GMJ_e2_F_P.csv /home/grierjones/DDCASPT2/hydrogen_comps/H6_chain/H6_2.52/GMJ_e2_F_P.csv

>>> END FOREACH

>>> EXPORT j = M

>>> IF (-FILE GMJ_e2_${i}_${j}.csv)

>>> COPY /tmp/H6_2.52/GMJ_RHS_F_M.csv /home/grierjones/DDCASPT2/hydrogen_comps/H6_chain/H6_2.52/GMJ_RHS_F_M.csv

>>> COPY /tmp/H6_2.52/GMJ_IVECW_F_M.csv /home/grierjones/DDCASPT2/hydrogen_comps/H6_chain/H6_2.52/GMJ_IVECW_F_M.csv

>>> COPY /tmp/H6_2.52/GMJ_IVECX_F_M.csv /home/grierjones/DDCASPT2/hydrogen_comps/H6_chain/H6_2.52/GMJ_IVECX_F_M.csv

>>> COPY /tmp/H6_2.52/GMJ_IVECC2_F_M.csv /home/grierjones/DDCASPT2/hydrogen_comps/H6_chain/H6_2.52/GMJ_IVECC2_F_M.csv

>>> COPY /tmp/H6_2.52/GMJ_e2_F_M.csv /home/grierjones/DDCASPT2/hydrogen_comps/H6_chain/H6_2.52/GMJ_e2_F_M.csv

>>> END FOREACH

>>> END FOREACH

>>> EXPORT i = G

>>> EXPORT j = P

>>> IF (-FILE GMJ_e2_${i}_${j}.csv)
(Skipped)

>>> END FOREACH

>>> EXPORT j = M

>>> IF (-FILE GMJ_e2_${i}_${j}.csv)
(Skipped)

>>> END FOREACH

>>> END FOREACH

>>> EXPORT i = H

>>> EXPORT j = P

>>> IF (-FILE GMJ_e2_${i}_${j}.csv)
(Skipped)

>>> END FOREACH

>>> EXPORT j = M

>>> IF (-FILE GMJ_e2_${i}_${j}.csv)
(Skipped)

>>> END FOREACH

>>> END FOREACH

>>> EXPORT i = A

>>> IF (-FILE GMJ_e2_$i.csv)
(Skipped)

>>> END FOREACH

>>> EXPORT i = C

>>> IF (-FILE GMJ_e2_$i.csv)

>>> COPY /tmp/H6_2.52/GMJ_RHS_C.csv /home/grierjones/DDCASPT2/hydrogen_comps/H6_chain/H6_2.52/GMJ_RHS_C.csv

>>> COPY /tmp/H6_2.52/GMJ_IVECW_C.csv /home/grierjones/DDCASPT2/hydrogen_comps/H6_chain/H6_2.52/GMJ_IVECW_C.csv

>>> COPY /tmp/H6_2.52/GMJ_IVECX_C.csv /home/grierjones/DDCASPT2/hydrogen_comps/H6_chain/H6_2.52/GMJ_IVECX_C.csv

>>> COPY /tmp/H6_2.52/GMJ_IVECC2_C.csv /home/grierjones/DDCASPT2/hydrogen_comps/H6_chain/H6_2.52/GMJ_IVECC2_C.csv

>>> COPY /tmp/H6_2.52/GMJ_e2_C.csv /home/grierjones/DDCASPT2/hydrogen_comps/H6_chain/H6_2.52/GMJ_e2_C.csv

>>> END FOREACH

>>> EXPORT i = D

>>> IF (-FILE GMJ_e2_$i.csv)
(Skipped)

>>> END FOREACH

.########################.
.# Non-zero return code #.
.########################.

    Timing: Wall=1.79 User=1.06 System=0.72
***************************************
*** WorkDir at /tmp/H6_2.52 cleaned ***
***************************************
