[Molden Format]
[N_Atoms]
                     2
[Atoms] (AU)
BE1         1      4           0.00000000      0.00000000      0.00000000
N2          2      7           0.00000000      0.00000000      1.88972612
[Charge] (Mulliken)
  0.629445348538149     
 -0.629445348538173     
[GTO] (AU)
   1
   s  14
  2.262859900E+04  8.443999941E-05
  3.372318100E+03  4.601499968E-04
  7.603504000E+02  2.285389984E-03
  2.117404800E+02  9.648129932E-03
  6.722346800E+01  3.494469975E-02
  2.337217700E+01  1.061099893E-01
  8.721373000E+00  2.458240383E-01
  3.468091000E+00  3.862428773E-01
  1.452144000E+00  3.105526078E-01
  6.086150000E-01  6.415933955E-02
  2.576860000E-01 -2.265049984E-03
  1.041760000E-01 -5.217499963E-04
  4.242700000E-02 -8.757499938E-04
  1.484900000E-02  1.242199991E-04
   s  14
  2.262859900E+04 -1.586999994E-05
  3.372318100E+03 -8.656999968E-05
  7.603504000E+02 -4.302199984E-04
  2.117404800E+02 -1.825079993E-03
  6.722346800E+01 -6.682749976E-03
  2.337217700E+01 -2.095119992E-02
  8.721373000E+00 -5.200308981E-02
  3.468091000E+00 -9.849176964E-02
  1.452144000E+00 -1.355800695E-01
  6.086150000E-01 -6.429875976E-02
  2.576860000E-01  3.125414989E-01
  1.041760000E-01  6.270468577E-01
  4.242700000E-02  2.110231492E-01
  1.484900000E-02 -4.104669985E-03
   p   9
  3.371018400E+01  1.069960000E-03
  8.057649500E+00  6.828550001E-03
  2.836471400E+00  2.119065000E-02
  1.099965700E+00  5.843696001E-02
  4.433964000E-01  2.020920800E-01
  1.822264000E-01  4.582953101E-01
  7.572410000E-02  3.691239601E-01
  3.168540000E-02  6.611471001E-02
  1.108990000E-02  1.405160000E-03
 
   2
   s  14
  7.476171500E+04  1.182599996E-04
  1.112365400E+04  5.172899983E-04
  2.512685700E+03  2.266659992E-03
  7.037772900E+02  9.145289970E-03
  2.254787900E+02  3.239342989E-02
  7.961581000E+01  9.770792967E-02
  3.023728300E+01  2.317036792E-01
  1.226362200E+01  3.768898887E-01
  5.265086000E+00  3.177420689E-01
  2.333471000E+00  8.211308973E-02
  9.018560000E-01  3.312089989E-03
  3.583360000E-01  3.720819988E-03
  1.410930000E-01  3.165419989E-03
  4.938300000E-02  4.595799985E-04
   s  14
  7.476171500E+04 -2.707000010E-05
  1.112365400E+04 -1.183700004E-04
  2.512685700E+03 -5.203800020E-04
  7.037772900E+02 -2.102930008E-03
  2.254787900E+02 -7.568200028E-03
  7.961581000E+01 -2.346767009E-02
  3.023728300E+01 -6.042901023E-02
  1.226362200E+01 -1.170549104E-01
  5.265086000E+00 -1.555321506E-01
  2.333471000E+00 -2.468935009E-02
  9.018560000E-01  3.625054514E-01
  3.583360000E-01  5.550845021E-01
  1.410930000E-01  2.148376908E-01
  4.938300000E-02  8.983850034E-03
   p   9
  1.266665700E+02  1.233630000E-03
  2.983738900E+01  9.493409996E-03
  9.394038000E+00  4.293961998E-02
  3.405104000E+00  1.362925399E-01
  1.350000000E+00  2.921362499E-01
  5.576960000E-01  3.887887598E-01
  2.324490000E-01  2.946801399E-01
  9.426400000E-02  8.012875997E-02
  3.299200000E-02  5.405199998E-04
 
[MO]
Sym=     1a  
Ene=   -15.5410
Spin= Alpha
Occup=    1.00000
   1        -0.00175104
   2        -0.00459384
   3         0.00000000
   4         0.00000000
   5        -0.00278208
   6         1.00075400
   7         0.00151002
   8         0.00000000
   9         0.00000000
  10        -0.00239214
Sym=     1a  
Ene=   -15.4910
Spin= Beta
Occup=    1.00000
   1        -0.00110079
   2        -0.00297111
   3         0.00000000
   4         0.00000000
   5        -0.00153568
   6         1.00043955
   7        -0.00307888
   8         0.00000000
   9        -0.00000000
  10        -0.00235189
Sym=     2a  
Ene=    -4.8246
Spin= Alpha
Occup=    1.00000
   1         0.99080111
   2        -0.00694968
   3         0.00000000
   4         0.00000000
   5        -0.00250046
   6        -0.00601548
   7         0.02233558
   8         0.00000000
   9         0.00000000
  10        -0.01949872
Sym=     2a  
Ene=    -4.8040
Spin= Beta
Occup=    1.00000
   1         0.99185599
   2        -0.00431460
   3         0.00000000
   4         0.00000000
   5        -0.00239237
   6        -0.00606258
   7         0.02094882
   8         0.00000000
   9        -0.00000000
  10        -0.01653118
Sym=     3a  
Ene=    -1.0810
Spin= Alpha
Occup=    1.00000
   1        -0.22919985
   2        -0.00921130
   3        -0.00000000
   4         0.00000000
   5         0.07681826
   6        -0.00469468
   7         0.96659585
   8        -0.00000000
   9         0.00000000
  10        -0.17403557
Sym=     3a  
Ene=    -0.9273
Spin= Beta
Occup=    1.00000
   1        -0.23551005
   2         0.07283994
   3         0.00000000
   4         0.00000000
   5         0.13499120
   6        -0.01660501
   7         0.86264043
   8        -0.00000000
   9         0.00000000
  10        -0.26260371
Sym=     4a  
Ene=    -0.5496
Spin= Alpha
Occup=    1.00000
   1         0.25374669
   2         0.03067631
   3        -0.00000000
   4        -0.00000000
   5        -0.12192196
   6         0.01287786
   7         0.17941258
   8        -0.00000000
   9        -0.00000000
  10         1.02820603
Sym=     4a  
Ene=    -0.4045
Spin= Beta
Occup=    1.00000
   1        -0.00000000
   2         0.00000000
   3         0.47351332
   4        -0.05196516
   5         0.00000000
   6        -0.00000000
   7        -0.00000000
   8         0.67842570
   9        -0.07445303
  10        -0.00000000
Sym=     5a  
Ene=    -0.4774
Spin= Alpha
Occup=    1.00000
   1         0.00000000
   2         0.00000000
   3         0.32042736
   4        -0.03562066
   5         0.00000000
   6        -0.00000000
   7         0.00000000
   8         0.80149016
   9        -0.08909854
  10         0.00000000
Sym=     5a  
Ene=    -0.4045
Spin= Beta
Occup=    1.00000
   1        -0.00000000
   2        -0.00000000
   3         0.05196516
   4         0.47351332
   5         0.00000000
   6         0.00000000
   7        -0.00000000
   8         0.07445303
   9         0.67842570
  10        -0.00000000
Sym=     6a  
Ene=    -0.4774
Spin= Alpha
Occup=    1.00000
   1         0.00000000
   2        -0.00000000
   3         0.03562066
   4         0.32042736
   5         0.00000000
   6         0.00000000
   7        -0.00000000
   8         0.08909854
   9         0.80149016
  10         0.00000000
Sym=     6a  
Ene=    -0.0241
Spin= Beta
Occup=    0.00000
   1        -0.04134747
   2        -0.85072290
   3        -0.00000000
   4        -0.00000000
   5         0.56562620
   6        -0.00107949
   7         0.17642206
   8         0.00000000
   9        -0.00000000
  10        -0.04692181
Sym=     7a  
Ene=    -0.0120
Spin= Alpha
Occup=    0.00000
   1        -0.05808782
   2        -0.86343552
   3        -0.00000000
   4         0.00000000
   5         0.56930628
   6        -0.00105429
   7         0.13042140
   8         0.00000000
   9        -0.00000000
  10        -0.13324948
Sym=     7a  
Ene=     0.2516
Spin= Beta
Occup=    0.00000
   1         0.24852264
   2         0.17044769
   3         0.00000000
   4         0.00000000
   5        -0.09957515
   6        -0.00033629
   7         0.18623644
   8        -0.00000000
   9         0.00000000
  10         1.02842558
Sym=     8a  
Ene=     0.2936
Spin= Alpha
Occup=    0.00000
   1        -0.00000000
   2        -0.00000000
   3        -0.18290940
   4        -1.07244805
   5         0.00000000
   6         0.00000000
   7         0.00000000
   8         0.13420772
   9         0.78689673
  10        -0.00000000
Sym=     8a  
Ene=     0.3387
Spin= Beta
Occup=    0.00000
   1         0.00000000
   2         0.00000000
   3        -1.01842045
   4        -0.15312653
   5         0.00000000
   6        -0.00000000
   7        -0.00000000
   8         0.89642178
   9         0.13478319
  10         0.00000000
Sym=     9a  
Ene=     0.2936
Spin= Alpha
Occup=    0.00000
   1         0.00000000
   2         0.00000000
   3        -1.07244805
   4         0.18290940
   5        -0.00000000
   6        -0.00000000
   7        -0.00000000
   8         0.78689673
   9        -0.13420772
  10        -0.00000000
Sym=     9a  
Ene=     0.3387
Spin= Beta
Occup=    0.00000
   1        -0.00000000
   2        -0.00000000
   3         0.15312653
   4        -1.01842045
   5         0.00000000
   6         0.00000000
   7         0.00000000
   8        -0.13478319
   9         0.89642178
  10        -0.00000000
Sym=    10a  
Ene=     0.5151
Spin= Alpha
Occup=    0.00000
   1         0.37423349
   2         1.29138043
   3         0.00000000
   4        -0.00000000
   5         1.38551043
   6        -0.28910236
   7        -1.62093149
   8        -0.00000000
   9         0.00000000
  10         0.34418837
Sym=    10a  
Ene=     0.5374
Spin= Beta
Occup=    0.00000
   1        -0.37325209
   2        -1.28692059
   3        -0.00000000
   4        -0.00000000
   5        -1.38435901
   6         0.29003599
   7         1.67362499
   8         0.00000000
   9        -0.00000000
  10        -0.30822502
