[Molden Format]
[N_Atoms]
                     2
[Atoms] (AU)
LI1         1      3           0.00000000      0.00000000      0.00000000
LI2         2      3           0.00000000      0.00000000      3.59047964
[Charge] (Mulliken)
  5.901945598907332E-013
 -6.021849685566849E-013
[GTO] (AU)
   1
   s  14
  9.497934400E+03  9.668999974E-05
  1.416811200E+03  6.087099984E-04
  3.214599400E+02  3.101519992E-03
  9.112416300E+01  1.266904997E-02
  2.999989100E+01  4.248012989E-02
  1.101763100E+01  1.150183297E-01
  4.372801000E+00  2.398650094E-01
  1.831256000E+00  3.584300090E-01
  8.022610000E-01  3.048527792E-01
  3.626480000E-01  8.824261976E-02
  1.139950000E-01 -8.445899977E-04
  5.123700000E-02 -7.943959979E-03
  2.246800000E-02 -3.764419990E-03
  7.860000000E-03 -8.868999976E-05
   s  14
  9.497934400E+03 -1.244999993E-05
  1.416811200E+03 -7.838999954E-05
  3.214599400E+02 -4.007099976E-04
  9.112416300E+01 -1.645249990E-03
  2.999989100E+01 -5.634599967E-03
  1.101763100E+01 -1.590780991E-02
  4.372801000E+00 -3.612581979E-02
  1.831256000E+00 -6.459927962E-02
  8.022610000E-01 -1.008321794E-01
  3.626480000E-01 -9.757613942E-02
  1.139950000E-01  2.301215886E-01
  5.123700000E-02  6.102389764E-01
  2.246800000E-02  2.849406083E-01
  7.860000000E-03  4.026899976E-03
   p   9
  1.311950400E+01  1.524940000E-03
  3.077424200E+00  8.314830000E-03
  1.098800500E+00  1.933203000E-02
  4.357784000E-01  4.934293000E-02
  1.802432000E-01  1.623554000E-01
  7.613330000E-02  3.847505400E-01
  3.254650000E-02  4.336100400E-01
  1.401820000E-02  1.287005900E-01
  4.906400000E-03 -1.018520000E-03
 
   2
   s  14
  9.497934400E+03  9.668999974E-05
  1.416811200E+03  6.087099984E-04
  3.214599400E+02  3.101519992E-03
  9.112416300E+01  1.266904997E-02
  2.999989100E+01  4.248012989E-02
  1.101763100E+01  1.150183297E-01
  4.372801000E+00  2.398650094E-01
  1.831256000E+00  3.584300090E-01
  8.022610000E-01  3.048527792E-01
  3.626480000E-01  8.824261976E-02
  1.139950000E-01 -8.445899977E-04
  5.123700000E-02 -7.943959979E-03
  2.246800000E-02 -3.764419990E-03
  7.860000000E-03 -8.868999976E-05
   s  14
  9.497934400E+03 -1.244999993E-05
  1.416811200E+03 -7.838999954E-05
  3.214599400E+02 -4.007099976E-04
  9.112416300E+01 -1.645249990E-03
  2.999989100E+01 -5.634599967E-03
  1.101763100E+01 -1.590780991E-02
  4.372801000E+00 -3.612581979E-02
  1.831256000E+00 -6.459927962E-02
  8.022610000E-01 -1.008321794E-01
  3.626480000E-01 -9.757613942E-02
  1.139950000E-01  2.301215886E-01
  5.123700000E-02  6.102389764E-01
  2.246800000E-02  2.849406083E-01
  7.860000000E-03  4.026899976E-03
   p   9
  1.311950400E+01  1.524940000E-03
  3.077424200E+00  8.314830000E-03
  1.098800500E+00  1.933203000E-02
  4.357784000E-01  4.934293000E-02
  1.802432000E-01  1.623554000E-01
  7.613330000E-02  3.847505400E-01
  3.254650000E-02  4.336100400E-01
  1.401820000E-02  1.287005900E-01
  4.906400000E-03 -1.018520000E-03
 
[MO]
Sym=     1a  
Ene=    -2.4873
Spin= Alpha
Occup=    2.00000
   1         0.70563019
   2         0.00615277
   3        -0.00000000
   4         0.00000000
   5         0.00074966
   6         0.70563019
   7         0.00615277
   8         0.00000000
   9        -0.00000000
  10        -0.00074966
Sym=     2a  
Ene=    -2.4796
Spin= Alpha
Occup=    2.00000
   1        -0.70823289
   2        -0.00633495
   3        -0.00000000
   4         0.00000000
   5         0.00090764
   6         0.70823289
   7         0.00633495
   8         0.00000000
   9        -0.00000000
  10         0.00090764
Sym=     3a  
Ene=    -0.1882
Spin= Alpha
Occup=    1.86299
   1        -0.09743820
   2         0.48837618
   3        -0.00000000
   4        -0.00000000
   5         0.15380381
   6        -0.09743820
   7         0.48837618
   8         0.00000000
   9        -0.00000000
  10        -0.15380381
Sym=     4a  
Ene=    -0.0000
Spin= Alpha
Occup=    0.13701
   1         0.00000000
   2        -0.00000000
   3         0.50066154
   4        -0.20791961
   5        -0.00000000
   6         0.00000000
   7         0.00000000
   8         0.50066154
   9        -0.20791961
  10         0.00000000
Sym=     5a  
Ene=     0.0265
Spin= Alpha
Occup=    0.00000
   1         0.05634788
   2        -0.33602111
   3         0.00000000
   4         0.00000000
   5         0.49221122
   6        -0.05634788
   7         0.33602111
   8         0.00000000
   9         0.00000000
  10         0.49221122
Sym=     6a  
Ene=     0.0276
Spin= Alpha
Occup=    0.00000
   1        -0.00000000
   2         0.00000000
   3         0.20791961
   4         0.50066154
   5        -0.00000000
   6         0.00000000
   7        -0.00000000
   8         0.20791961
   9         0.50066154
  10        -0.00000000
Sym=     7a  
Ene=     0.0912
Spin= Alpha
Occup=    0.00000
   1         0.12990905
   2         0.35252202
   3         0.00000000
   4         0.00000000
   5        -0.91790975
   6         0.12990905
   7         0.35252202
   8         0.00000000
   9         0.00000000
  10         0.91790975
Sym=     8a  
Ene=     0.1507
Spin= Alpha
Occup=    0.00000
   1         0.00000000
   2        -0.00000000
   3        -1.19486503
   4         0.49621520
   5        -0.00000000
   6         0.00000000
   7        -0.00000000
   8         1.19486503
   9        -0.49621520
  10        -0.00000000
Sym=     9a  
Ene=     0.1510
Spin= Alpha
Occup=    0.00000
   1         0.00000000
   2         0.00000000
   3        -0.49621520
   4        -1.19486503
   5         0.00000000
   6        -0.00000000
   7        -0.00000000
   8         0.49621520
   9         1.19486503
  10        -0.00000000
Sym=    10a  
Ene=     0.5859
Spin= Alpha
Occup=    0.00000
   1        -1.20647352
   2        -5.77349319
   3        -0.00000000
   4        -0.00000000
   5        -2.60824443
   6         1.20647352
   7         5.77349319
   8        -0.00000000
   9         0.00000000
  10        -2.60824443
