[Molden Format]
[N_Atoms]
                     2
[Atoms] (AU)
LI1         1      3           0.00000000      0.00000000      0.00000000
LI2         2      3           0.00000000      0.00000000      3.59047964
[Charge] (Mulliken)
 -1.212363542890671E-013
  1.194599974496668E-013
[GTO] (AU)
   1
   s  14
  9.497934400E+03  9.668999974E-05
  1.416811200E+03  6.087099984E-04
  3.214599400E+02  3.101519992E-03
  9.112416300E+01  1.266904997E-02
  2.999989100E+01  4.248012989E-02
  1.101763100E+01  1.150183297E-01
  4.372801000E+00  2.398650094E-01
  1.831256000E+00  3.584300090E-01
  8.022610000E-01  3.048527792E-01
  3.626480000E-01  8.824261976E-02
  1.139950000E-01 -8.445899977E-04
  5.123700000E-02 -7.943959979E-03
  2.246800000E-02 -3.764419990E-03
  7.860000000E-03 -8.868999976E-05
   s  14
  9.497934400E+03 -1.244999993E-05
  1.416811200E+03 -7.838999954E-05
  3.214599400E+02 -4.007099976E-04
  9.112416300E+01 -1.645249990E-03
  2.999989100E+01 -5.634599967E-03
  1.101763100E+01 -1.590780991E-02
  4.372801000E+00 -3.612581979E-02
  1.831256000E+00 -6.459927962E-02
  8.022610000E-01 -1.008321794E-01
  3.626480000E-01 -9.757613942E-02
  1.139950000E-01  2.301215886E-01
  5.123700000E-02  6.102389764E-01
  2.246800000E-02  2.849406083E-01
  7.860000000E-03  4.026899976E-03
   p   9
  1.311950400E+01  1.524940000E-03
  3.077424200E+00  8.314830000E-03
  1.098800500E+00  1.933203000E-02
  4.357784000E-01  4.934293000E-02
  1.802432000E-01  1.623554000E-01
  7.613330000E-02  3.847505400E-01
  3.254650000E-02  4.336100400E-01
  1.401820000E-02  1.287005900E-01
  4.906400000E-03 -1.018520000E-03
 
   2
   s  14
  9.497934400E+03  9.668999974E-05
  1.416811200E+03  6.087099984E-04
  3.214599400E+02  3.101519992E-03
  9.112416300E+01  1.266904997E-02
  2.999989100E+01  4.248012989E-02
  1.101763100E+01  1.150183297E-01
  4.372801000E+00  2.398650094E-01
  1.831256000E+00  3.584300090E-01
  8.022610000E-01  3.048527792E-01
  3.626480000E-01  8.824261976E-02
  1.139950000E-01 -8.445899977E-04
  5.123700000E-02 -7.943959979E-03
  2.246800000E-02 -3.764419990E-03
  7.860000000E-03 -8.868999976E-05
   s  14
  9.497934400E+03 -1.244999993E-05
  1.416811200E+03 -7.838999954E-05
  3.214599400E+02 -4.007099976E-04
  9.112416300E+01 -1.645249990E-03
  2.999989100E+01 -5.634599967E-03
  1.101763100E+01 -1.590780991E-02
  4.372801000E+00 -3.612581979E-02
  1.831256000E+00 -6.459927962E-02
  8.022610000E-01 -1.008321794E-01
  3.626480000E-01 -9.757613942E-02
  1.139950000E-01  2.301215886E-01
  5.123700000E-02  6.102389764E-01
  2.246800000E-02  2.849406083E-01
  7.860000000E-03  4.026899976E-03
   p   9
  1.311950400E+01  1.524940000E-03
  3.077424200E+00  8.314830000E-03
  1.098800500E+00  1.933203000E-02
  4.357784000E-01  4.934293000E-02
  1.802432000E-01  1.623554000E-01
  7.613330000E-02  3.847505400E-01
  3.254650000E-02  4.336100400E-01
  1.401820000E-02  1.287005900E-01
  4.906400000E-03 -1.018520000E-03
 
[MO]
Sym=     1a  
Ene=    -2.4803
Spin= Alpha
Occup=    1.00000
   1         0.70507387
   2         0.00895569
   3        -0.00000000
   4        -0.00000000
   5         0.00155869
   6         0.70507387
   7         0.00895569
   8         0.00000000
   9         0.00000000
  10        -0.00155869
Sym=     1a  
Ene=    -2.4803
Spin= Beta
Occup=    1.00000
   1         0.70507387
   2         0.00895569
   3        -0.00000000
   4        -0.00000000
   5         0.00155869
   6         0.70507387
   7         0.00895569
   8         0.00000000
   9         0.00000000
  10        -0.00155869
Sym=     2a  
Ene=    -2.4725
Spin= Alpha
Occup=    1.00000
   1        -0.70814110
   2        -0.00589886
   3        -0.00000000
   4        -0.00000000
   5         0.00110799
   6         0.70814110
   7         0.00589886
   8         0.00000000
   9        -0.00000000
  10         0.00110799
Sym=     2a  
Ene=    -2.4725
Spin= Beta
Occup=    1.00000
   1        -0.70814110
   2        -0.00589886
   3        -0.00000000
   4        -0.00000000
   5         0.00110799
   6         0.70814110
   7         0.00589886
   8         0.00000000
   9        -0.00000000
  10         0.00110799
Sym=     3a  
Ene=    -0.1975
Spin= Alpha
Occup=    1.00000
   1        -0.10039867
   2         0.49116261
   3         0.00000000
   4         0.00000000
   5         0.14638351
   6        -0.10039867
   7         0.49116261
   8        -0.00000000
   9         0.00000000
  10        -0.14638351
Sym=     3a  
Ene=    -0.1975
Spin= Beta
Occup=    1.00000
   1        -0.10039867
   2         0.49116261
   3         0.00000000
   4         0.00000000
   5         0.14638351
   6        -0.10039867
   7         0.49116261
   8        -0.00000000
   9         0.00000000
  10        -0.14638351
Sym=     4a  
Ene=     0.0272
Spin= Alpha
Occup=    0.00000
   1         0.05613719
   2        -0.33704686
   3         0.00000000
   4         0.00000000
   5         0.49174779
   6        -0.05613719
   7         0.33704686
   8         0.00000000
   9         0.00000000
  10         0.49174779
Sym=     4a  
Ene=     0.0272
Spin= Beta
Occup=    0.00000
   1         0.05613719
   2        -0.33704686
   3         0.00000000
   4         0.00000000
   5         0.49174779
   6        -0.05613719
   7         0.33704686
   8         0.00000000
   9         0.00000000
  10         0.49174779
Sym=     5a  
Ene=     0.0289
Spin= Alpha
Occup=    0.00000
   1        -0.00000000
   2         0.00000000
   3         0.46065030
   4         0.28582136
   5        -0.00000000
   6         0.00000000
   7        -0.00000000
   8         0.46065030
   9         0.28582136
  10        -0.00000000
Sym=     5a  
Ene=     0.0289
Spin= Beta
Occup=    0.00000
   1        -0.00000000
   2         0.00000000
   3         0.46065030
   4         0.28582136
   5        -0.00000000
   6         0.00000000
   7        -0.00000000
   8         0.46065030
   9         0.28582136
  10        -0.00000000
Sym=     6a  
Ene=     0.0289
Spin= Alpha
Occup=    0.00000
   1        -0.00000000
   2         0.00000000
   3        -0.28582136
   4         0.46065030
   5        -0.00000000
   6         0.00000000
   7        -0.00000000
   8        -0.28582136
   9         0.46065030
  10        -0.00000000
Sym=     6a  
Ene=     0.0289
Spin= Beta
Occup=    0.00000
   1        -0.00000000
   2         0.00000000
   3        -0.28582136
   4         0.46065030
   5        -0.00000000
   6         0.00000000
   7        -0.00000000
   8        -0.28582136
   9         0.46065030
  10        -0.00000000
Sym=     7a  
Ene=     0.0936
Spin= Alpha
Occup=    0.00000
   1         0.13067313
   2         0.34856852
   3         0.00000000
   4         0.00000000
   5        -0.91912128
   6         0.13067313
   7         0.34856852
   8         0.00000000
   9         0.00000000
  10         0.91912128
Sym=     7a  
Ene=     0.0936
Spin= Beta
Occup=    0.00000
   1         0.13067313
   2         0.34856852
   3         0.00000000
   4         0.00000000
   5        -0.91912128
   6         0.13067313
   7         0.34856852
   8         0.00000000
   9         0.00000000
  10         0.91912128
Sym=     8a  
Ene=     0.1537
Spin= Alpha
Occup=    0.00000
   1         0.00000000
   2         0.00000000
   3        -0.00328990
   4        -1.29380105
   5         0.00000000
   6        -0.00000000
   7        -0.00000000
   8         0.00328990
   9         1.29380105
  10         0.00000000
Sym=     8a  
Ene=     0.1537
Spin= Beta
Occup=    0.00000
   1         0.00000000
   2         0.00000000
   3        -0.00328990
   4        -1.29380105
   5         0.00000000
   6        -0.00000000
   7        -0.00000000
   8         0.00328990
   9         1.29380105
  10         0.00000000
Sym=     9a  
Ene=     0.1537
Spin= Alpha
Occup=    0.00000
   1         0.00000000
   2         0.00000000
   3        -1.29380105
   4         0.00328990
   5         0.00000000
   6        -0.00000000
   7        -0.00000000
   8         1.29380105
   9        -0.00328990
  10        -0.00000000
Sym=     9a  
Ene=     0.1537
Spin= Beta
Occup=    0.00000
   1         0.00000000
   2         0.00000000
   3        -1.29380105
   4         0.00328990
   5         0.00000000
   6        -0.00000000
   7        -0.00000000
   8         1.29380105
   9        -0.00328990
  10        -0.00000000
Sym=    10a  
Ene=     0.5882
Spin= Alpha
Occup=    0.00000
   1         1.20653722
   2         5.77343387
   3         0.00000000
   4         0.00000000
   5         2.60833177
   6        -1.20653722
   7        -5.77343387
   8        -0.00000000
   9        -0.00000000
  10         2.60833177
Sym=    10a  
Ene=     0.5882
Spin= Beta
Occup=    0.00000
   1         1.20653722
   2         5.77343387
   3         0.00000000
   4         0.00000000
   5         2.60833177
   6        -1.20653722
   7        -5.77343387
   8        -0.00000000
   9        -0.00000000
  10         2.60833177
