[Molden Format]
[N_Atoms]
                     2
[Atoms] (AU)
LI1         1      3           0.00000000      0.00000000      0.00000000
LI2         2      3           0.00000000      0.00000000      3.59047964
[Charge] (Mulliken)
   1.00028354939327     
  0.999716450606721     
[GTO] (AU)
   1
   s  14
  9.497934400E+03  9.668999974E-05
  1.416811200E+03  6.087099984E-04
  3.214599400E+02  3.101519992E-03
  9.112416300E+01  1.266904997E-02
  2.999989100E+01  4.248012989E-02
  1.101763100E+01  1.150183297E-01
  4.372801000E+00  2.398650094E-01
  1.831256000E+00  3.584300090E-01
  8.022610000E-01  3.048527792E-01
  3.626480000E-01  8.824261976E-02
  1.139950000E-01 -8.445899977E-04
  5.123700000E-02 -7.943959979E-03
  2.246800000E-02 -3.764419990E-03
  7.860000000E-03 -8.868999976E-05
   s  14
  9.497934400E+03 -1.244999993E-05
  1.416811200E+03 -7.838999954E-05
  3.214599400E+02 -4.007099976E-04
  9.112416300E+01 -1.645249990E-03
  2.999989100E+01 -5.634599967E-03
  1.101763100E+01 -1.590780991E-02
  4.372801000E+00 -3.612581979E-02
  1.831256000E+00 -6.459927962E-02
  8.022610000E-01 -1.008321794E-01
  3.626480000E-01 -9.757613942E-02
  1.139950000E-01  2.301215886E-01
  5.123700000E-02  6.102389764E-01
  2.246800000E-02  2.849406083E-01
  7.860000000E-03  4.026899976E-03
   p   9
  1.311950400E+01  1.524940000E-03
  3.077424200E+00  8.314830000E-03
  1.098800500E+00  1.933203000E-02
  4.357784000E-01  4.934293000E-02
  1.802432000E-01  1.623554000E-01
  7.613330000E-02  3.847505400E-01
  3.254650000E-02  4.336100400E-01
  1.401820000E-02  1.287005900E-01
  4.906400000E-03 -1.018520000E-03
 
   2
   s  14
  9.497934400E+03  9.668999974E-05
  1.416811200E+03  6.087099984E-04
  3.214599400E+02  3.101519992E-03
  9.112416300E+01  1.266904997E-02
  2.999989100E+01  4.248012989E-02
  1.101763100E+01  1.150183297E-01
  4.372801000E+00  2.398650094E-01
  1.831256000E+00  3.584300090E-01
  8.022610000E-01  3.048527792E-01
  3.626480000E-01  8.824261976E-02
  1.139950000E-01 -8.445899977E-04
  5.123700000E-02 -7.943959979E-03
  2.246800000E-02 -3.764419990E-03
  7.860000000E-03 -8.868999976E-05
   s  14
  9.497934400E+03 -1.244999993E-05
  1.416811200E+03 -7.838999954E-05
  3.214599400E+02 -4.007099976E-04
  9.112416300E+01 -1.645249990E-03
  2.999989100E+01 -5.634599967E-03
  1.101763100E+01 -1.590780991E-02
  4.372801000E+00 -3.612581979E-02
  1.831256000E+00 -6.459927962E-02
  8.022610000E-01 -1.008321794E-01
  3.626480000E-01 -9.757613942E-02
  1.139950000E-01  2.301215886E-01
  5.123700000E-02  6.102389764E-01
  2.246800000E-02  2.849406083E-01
  7.860000000E-03  4.026899976E-03
   p   9
  1.311950400E+01  1.524940000E-03
  3.077424200E+00  8.314830000E-03
  1.098800500E+00  1.933203000E-02
  4.357784000E-01  4.934293000E-02
  1.802432000E-01  1.623554000E-01
  7.613330000E-02  3.847505400E-01
  3.254650000E-02  4.336100400E-01
  1.401820000E-02  1.287005900E-01
  4.906400000E-03 -1.018520000E-03
 
[MO]
Sym=     1a  
Ene=    -3.0719
Spin= Alpha
Occup=    2.00000
   1         0.00350274
   2        -0.00724566
   3        -0.00000000
   4         0.00000000
   5        -0.00090609
   6         1.00095488
   7         0.01792933
   8         0.00000000
   9         0.00000000
  10        -0.00720565
Sym=     2a  
Ene=    -3.0719
Spin= Alpha
Occup=    1.99997
   1        -1.00091846
   2        -0.01775630
   3        -0.00000000
   4        -0.00000000
   5        -0.00706929
   6         0.01223814
   7         0.00711634
   8        -0.00000000
   9         0.00000000
  10        -0.00074127
Sym=     3a  
Ene=    -0.0011
Spin= Alpha
Occup=    0.00003
   1        -0.65844299
   2        -2.09841202
   3        -0.00000000
   4         0.00000000
   5        -1.06229531
   6         0.45179921
   7         2.68043950
   8        -0.00000000
   9        -0.00000000
  10        -1.67762895
Sym=     4a  
Ene=    -0.3479
Spin= Alpha
Occup=    0.00000
   1        -0.03133051
   2        -0.16948521
   3         0.00000000
   4        -0.00000000
   5         0.51598781
   6        -0.08529179
   7         0.60879842
   8         0.00000000
   9        -0.00000000
  10         0.24831047
Sym=     5a  
Ene=    -0.3413
Spin= Alpha
Occup=    0.00000
   1         0.00000000
   2         0.00000000
   3        -0.44225963
   4        -0.31359644
   5        -0.00000000
   6         0.00000000
   7        -0.00000000
   8        -0.44219378
   9        -0.31354975
  10         0.00000000
Sym=     6a  
Ene=    -0.3413
Spin= Alpha
Occup=    0.00000
   1        -0.00000000
   2        -0.00000000
   3        -0.31359644
   4         0.44225963
   5         0.00000000
   6        -0.00000000
   7         0.00000000
   8        -0.31354975
   9         0.44219378
  10         0.00000000
Sym=     7a  
Ene=    -0.2861
Spin= Alpha
Occup=    0.00000
   1        -0.11248060
   2        -0.53820617
   3        -0.00000000
   4        -0.00000000
   5         0.85879949
   6        -0.09542276
   7        -0.37776283
   8        -0.00000000
   9        -0.00000000
  10        -0.84657631
Sym=     8a  
Ene=    -0.2364
Spin= Alpha
Occup=    0.00000
   1        -0.00000000
   2        -0.00000000
   3        -0.06711535
   4         1.29204634
   5        -0.00000000
   6         0.00000000
   7         0.00000000
   8         0.06711710
   9        -1.29208012
  10         0.00000000
Sym=     9a  
Ene=    -0.2364
Spin= Alpha
Occup=    0.00000
   1         0.00000000
   2         0.00000000
   3        -1.29204634
   4        -0.06711535
   5         0.00000000
   6        -0.00000000
   7        -0.00000000
   8         1.29208012
   9         0.06711710
  10        -0.00000000
Sym=    10a  
Ene=     0.0782
Spin= Alpha
Occup=    0.00000
   1        -1.01764488
   2        -5.39322751
   3         0.00000000
   4        -0.00000000
   5        -2.40398089
   6         1.12341828
   7         5.10984605
   8         0.00000000
   9         0.00000000
  10        -2.07812062
