[Molden Format]
[N_Atoms]
                     2
[Atoms] (AU)
C1          1      6           0.00000000      0.00000000      0.00000000
F2          2      9           0.00000000      0.00000000      3.02356180
[Charge] (Mulliken)
  0.381690497064740     
 -0.381690497064762     
[GTO] (AU)
   1
   s  14
  5.055750100E+04  1.128874000E-04
  7.524785600E+03  5.295373000E-04
  1.694327600E+03  2.450038300E-03
  4.728227900E+02  1.005398470E-02
  1.517107500E+02  3.545398060E-02
  5.391874600E+01  1.044071086E-01
  2.065931100E+01  2.412894918E-01
  8.383976000E+00  3.834225483E-01
  3.577015000E+00  3.078514393E-01
  1.547118000E+00  6.872442990E-02
  6.130130000E-01  2.224445000E-04
  2.460680000E-01  1.976748900E-03
  9.908700000E-02  2.057859400E-03
  3.468000000E-02  4.182020000E-04
   s  14
  5.055750100E+04 -2.507420000E-05
  7.524785600E+03 -1.175945000E-04
  1.694327600E+03 -5.456275000E-04
  4.728227900E+02 -2.245077100E-03
  1.517107500E+02 -8.043471800E-03
  5.391874600E+01 -2.442588710E-02
  2.065931100E+01 -6.136791180E-02
  8.383976000E+00 -1.177767835E-01
  3.577015000E+00 -1.550487783E-01
  1.547118000E+00 -1.933316860E-02
  6.130130000E-01  3.996930678E-01
  2.460680000E-01  5.589420949E-01
  9.908700000E-02  1.711195023E-01
  3.468000000E-02  7.456244600E-03
   p   9
  8.333315500E+01  1.344656000E-03
  1.955761100E+01  1.023555500E-02
  6.080365000E+00  4.520067100E-02
  2.179317000E+00  1.410756198E-01
  8.651500000E-01  3.047388085E-01
  3.619440000E-01  3.995281011E-01
  1.547400000E-01  2.719163432E-01
  6.542900000E-02  5.857669330E-02
  2.290000000E-02 -1.263813000E-04
 
   2
   s  14
  1.031094600E+05  1.713099991E-04
  1.528100700E+04  7.123999962E-04
  3.441539200E+03  2.990479984E-03
  9.670948300E+02  1.164036994E-02
  3.140353400E+02  3.968642979E-02
  1.134423000E+02  1.128546094E-01
  4.464472700E+01  2.473650687E-01
  1.894287400E+01  3.672702681E-01
  8.532743000E+00  2.896286985E-01
  3.919401000E+00  7.786681959E-02
  1.568157000E+00  4.562139976E-03
  6.232900000E-01  2.468879987E-03
  2.408610000E-01  1.106309994E-03
  8.430100000E-02  1.739699991E-04
   s  14
  1.031094600E+05 -4.044999995E-05
  1.528100700E+04 -1.682299998E-04
  3.441539200E+03 -7.084299991E-04
  9.670948300E+02 -2.767999996E-03
  3.140353400E+02 -9.611379987E-03
  1.134423000E+02 -2.833957996E-02
  4.464472700E+01 -6.839343991E-02
  1.894287400E+01 -1.237379298E-01
  8.532743000E+00 -1.512859698E-01
  3.919401000E+00 -9.099909988E-03
  1.568157000E+00  3.716257695E-01
  6.232900000E-01  5.500214393E-01
  2.408610000E-01  2.092318697E-01
  8.430100000E-02  8.074639989E-03
   p   9
  2.453302900E+02  1.024860004E-03
  5.691900500E+01  8.344290032E-03
  1.760456800E+01  4.078927016E-02
  6.274995000E+00  1.351370605E-01
  2.447030000E+00  2.798830811E-01
  9.950600000E-01  3.597966414E-01
  4.039730000E-01  3.055347412E-01
  1.548100000E-01  1.354703905E-01
  5.418400000E-02  2.804449011E-02
 
[MO]
Sym=     1a  
Ene=   -26.2210
Spin= Alpha
Occup=    1.00000
   1        -0.00004377
   2        -0.00034973
   3        -0.00000000
   4         0.00000000
   5        -0.00026810
   6         1.00000916
   7        -0.00277349
   8        -0.00000000
   9         0.00000000
  10        -0.00076971
Sym=     1a  
Ene=   -26.2230
Spin= Beta
Occup=    1.00000
   1        -0.00004347
   2        -0.00034937
   3        -0.00000000
   4         0.00000000
   5        -0.00028044
   6         1.00000979
   7        -0.00267712
   8        -0.00000000
   9         0.00000000
  10        -0.00078591
Sym=     2a  
Ene=   -11.4660
Spin= Alpha
Occup=    1.00000
   1         1.00000964
   2        -0.00169252
   3        -0.00000000
   4        -0.00000000
   5         0.00171231
   6        -0.00014166
   7        -0.00084502
   8         0.00000000
   9         0.00000000
  10         0.00014100
Sym=     2a  
Ene=   -11.4400
Spin= Beta
Occup=    1.00000
   1         0.99998800
   2        -0.00445893
   3        -0.00000000
   4        -0.00000000
   5         0.00145513
   6        -0.00009360
   7        -0.00039876
   8         0.00000000
   9         0.00000000
  10        -0.00015474
Sym=     3a  
Ene=    -1.5402
Spin= Alpha
Occup=    1.00000
   1        -0.01048885
   2         0.11151268
   3         0.00000000
   4         0.00000000
   5         0.07745896
   6        -0.00125111
   7         0.94471335
   8         0.00000000
   9         0.00000000
  10        -0.06076421
Sym=     3a  
Ene=    -1.5444
Spin= Beta
Occup=    1.00000
   1        -0.01049298
   2         0.08311205
   3         0.00000000
   4         0.00000000
   5         0.06813926
   6        -0.00061858
   7         0.95550419
   8         0.00000000
   9         0.00000000
  10        -0.06873855
Sym=     4a  
Ene=    -0.8669
Spin= Alpha
Occup=    1.00000
   1         0.00633333
   2        -0.85749582
   3        -0.00000000
   4        -0.00000000
   5        -0.03575930
   6         0.01487226
   7         0.31111664
   8        -0.00000000
   9        -0.00000000
  10         0.34767557
Sym=     4a  
Ene=    -0.7793
Spin= Beta
Occup=    1.00000
   1         0.01096225
   2        -0.70874150
   3        -0.00000000
   4         0.00000000
   5        -0.06782890
   6         0.01365856
   7         0.27892418
   8        -0.00000000
   9         0.00000000
  10         0.54335136
Sym=     5a  
Ene=    -0.6538
Spin= Alpha
Occup=    1.00000
   1        -0.00000000
   2        -0.00000000
   3        -0.18891697
   4         0.27402770
   5        -0.00000000
   6         0.00000000
   7         0.00000000
   8        -0.50943590
   9         0.73894658
  10        -0.00000000
Sym=     5a  
Ene=    -0.6221
Spin= Beta
Occup=    1.00000
   1        -0.00000000
   2        -0.00000000
   3         0.10114001
   4         0.06972676
   5         0.00000000
   6         0.00000000
   7         0.00000000
   8         0.80303375
   9         0.55361813
  10         0.00000000
Sym=     6a  
Ene=    -0.6161
Spin= Alpha
Occup=    1.00000
   1        -0.00000000
   2        -0.00000000
   3         0.12073497
   4         0.08323569
   5         0.00000000
   6        -0.00000000
   7        -0.00000000
   8         0.79767810
   9         0.54992590
  10        -0.00000000
Sym=     6a  
Ene=    -0.6169
Spin= Beta
Occup=    1.00000
   1        -0.00000000
   2         0.00000000
   3        -0.05707800
   4         0.08279274
   5        -0.00000000
   6        -0.00000000
   7        -0.00000000
   8        -0.55678296
   9         0.80762439
  10        -0.00000000
Sym=     7a  
Ene=    -0.5477
Spin= Alpha
Occup=    1.00000
   1         0.02296506
   2         0.49142665
   3         0.00000000
   4         0.00000000
   5        -0.50056277
   6         0.00847697
   7         0.10785479
   8         0.00000000
   9         0.00000000
  10         0.72056040
Sym=     7a  
Ene=    -0.5333
Spin= Beta
Occup=    1.00000
   1         0.02355599
   2         0.67941708
   3         0.00000000
   4        -0.00000000
   5        -0.43519238
   6         0.00349004
   7         0.03480638
   8        -0.00000000
   9         0.00000000
  10         0.66226737
Sym=     8a  
Ene=    -0.4696
Spin= Alpha
Occup=    1.00000
   1         0.00000000
   2         0.00000000
   3        -0.54121756
   4         0.78504649
   5        -0.00000000
   6        -0.00000000
   7         0.00000000
   8         0.26283291
   9        -0.38124419
  10         0.00000000
Sym=     8a  
Ene=     0.0650
Spin= Beta
Occup=    0.00000
   1        -0.00000000
   2        -0.00000000
   3         0.82532410
   4         0.56898528
   5         0.00000000
   6         0.00000000
   7         0.00000000
   8        -0.21569880
   9        -0.14870454
  10        -0.00000000
Sym=     9a  
Ene=     0.0293
Spin= Alpha
Occup=    0.00000
   1        -0.00000000
   2        -0.00000000
   3         0.82268599
   4         0.56716655
   5        -0.00000000
   6         0.00000000
   7        -0.00000000
   8        -0.23473139
   9        -0.16182577
  10        -0.00000000
Sym=     9a  
Ene=     0.1257
Spin= Beta
Occup=    0.00000
   1         0.00000000
   2         0.00000000
   3        -0.57039300
   4         0.82736602
   5        -0.00000000
   6        -0.00000000
   7        -0.00000000
   8         0.13637747
   9        -0.19781815
  10         0.00000000
Sym=    10a  
Ene=     0.2062
Spin= Alpha
Occup=    0.00000
   1         0.02464385
   2         0.36122850
   3         0.00000000
   4         0.00000000
   5         0.95325499
   6        -0.03454394
   7        -0.37987493
   8        -0.00000000
   9         0.00000000
  10         0.70502455
Sym=    10a  
Ene=     0.2380
Spin= Beta
Occup=    0.00000
   1         0.02330165
   2         0.38584144
   3         0.00000000
   4        -0.00000000
   5         0.98381983
   6        -0.03588207
   7        -0.39142959
   8        -0.00000000
   9         0.00000000
  10         0.63425838
