[Molden Format]
[N_Atoms]
                     2
[Atoms] (AU)
C1          1      6           0.00000000      0.00000000      0.00000000
N2          2      7           0.00000000      0.00000000      2.45664396
[Charge] (Mulliken)
  0.120648791568397     
 -0.120648791568415     
[GTO] (AU)
   1
   s  14
  5.055750100E+04  1.128874000E-04
  7.524785600E+03  5.295373000E-04
  1.694327600E+03  2.450038300E-03
  4.728227900E+02  1.005398470E-02
  1.517107500E+02  3.545398060E-02
  5.391874600E+01  1.044071086E-01
  2.065931100E+01  2.412894918E-01
  8.383976000E+00  3.834225483E-01
  3.577015000E+00  3.078514393E-01
  1.547118000E+00  6.872442990E-02
  6.130130000E-01  2.224445000E-04
  2.460680000E-01  1.976748900E-03
  9.908700000E-02  2.057859400E-03
  3.468000000E-02  4.182020000E-04
   s  14
  5.055750100E+04 -2.507420000E-05
  7.524785600E+03 -1.175945000E-04
  1.694327600E+03 -5.456275000E-04
  4.728227900E+02 -2.245077100E-03
  1.517107500E+02 -8.043471800E-03
  5.391874600E+01 -2.442588710E-02
  2.065931100E+01 -6.136791180E-02
  8.383976000E+00 -1.177767835E-01
  3.577015000E+00 -1.550487783E-01
  1.547118000E+00 -1.933316860E-02
  6.130130000E-01  3.996930678E-01
  2.460680000E-01  5.589420949E-01
  9.908700000E-02  1.711195023E-01
  3.468000000E-02  7.456244600E-03
   p   9
  8.333315500E+01  1.344656000E-03
  1.955761100E+01  1.023555500E-02
  6.080365000E+00  4.520067100E-02
  2.179317000E+00  1.410756198E-01
  8.651500000E-01  3.047388085E-01
  3.619440000E-01  3.995281011E-01
  1.547400000E-01  2.719163432E-01
  6.542900000E-02  5.857669330E-02
  2.290000000E-02 -1.263813000E-04
 
   2
   s  14
  7.476171500E+04  1.182599996E-04
  1.112365400E+04  5.172899983E-04
  2.512685700E+03  2.266659992E-03
  7.037772900E+02  9.145289970E-03
  2.254787900E+02  3.239342989E-02
  7.961581000E+01  9.770792967E-02
  3.023728300E+01  2.317036792E-01
  1.226362200E+01  3.768898887E-01
  5.265086000E+00  3.177420689E-01
  2.333471000E+00  8.211308973E-02
  9.018560000E-01  3.312089989E-03
  3.583360000E-01  3.720819988E-03
  1.410930000E-01  3.165419989E-03
  4.938300000E-02  4.595799985E-04
   s  14
  7.476171500E+04 -2.707000010E-05
  1.112365400E+04 -1.183700004E-04
  2.512685700E+03 -5.203800020E-04
  7.037772900E+02 -2.102930008E-03
  2.254787900E+02 -7.568200028E-03
  7.961581000E+01 -2.346767009E-02
  3.023728300E+01 -6.042901023E-02
  1.226362200E+01 -1.170549104E-01
  5.265086000E+00 -1.555321506E-01
  2.333471000E+00 -2.468935009E-02
  9.018560000E-01  3.625054514E-01
  3.583360000E-01  5.550845021E-01
  1.410930000E-01  2.148376908E-01
  4.938300000E-02  8.983850034E-03
   p   9
  1.266665700E+02  1.233630000E-03
  2.983738900E+01  9.493409996E-03
  9.394038000E+00  4.293961998E-02
  3.405104000E+00  1.362925399E-01
  1.350000000E+00  2.921362499E-01
  5.576960000E-01  3.887887598E-01
  2.324490000E-01  2.946801399E-01
  9.426400000E-02  8.012875997E-02
  3.299200000E-02  5.405199998E-04
 
[MO]
Sym=     1a  
Ene=   -15.6330
Spin= Alpha
Occup=    1.00000
   1        -0.00024773
   2        -0.00164287
   3         0.00000000
   4         0.00000000
   5        -0.00069940
   6         1.00010488
   7        -0.00606510
   8        -0.00000000
   9         0.00000000
  10        -0.00272508
Sym=     1a  
Ene=   -15.6790
Spin= Beta
Occup=    1.00000
   1        -0.00054033
   2        -0.00284712
   3         0.00000000
   4         0.00000000
   5        -0.00181256
   6         1.00026463
   7        -0.00211015
   8        -0.00000000
   9         0.00000000
  10        -0.00360432
Sym=     2a  
Ene=   -11.4270
Spin= Alpha
Occup=    1.00000
   1         1.00005707
   2         0.00125691
   3        -0.00000000
   4        -0.00000000
   5         0.00126031
   6        -0.00060626
   7        -0.00137685
   8         0.00000000
   9         0.00000000
  10        -0.00005785
Sym=     2a  
Ene=   -11.3570
Spin= Beta
Occup=    1.00000
   1         0.99997185
   2        -0.00371259
   3        -0.00000000
   4         0.00000000
   5         0.00121806
   6        -0.00033726
   7        -0.00036096
   8         0.00000000
   9         0.00000000
  10        -0.00045716
Sym=     3a  
Ene=    -1.1842
Spin= Alpha
Occup=    1.00000
   1        -0.04046336
   2         0.53640437
   3        -0.00000000
   4        -0.00000000
   5         0.17472475
   6        -0.03369872
   7         0.48794573
   8         0.00000000
   9        -0.00000000
  10        -0.21937325
Sym=     3a  
Ene=    -1.2375
Spin= Beta
Occup=    1.00000
   1        -0.04860351
   2         0.21723436
   3        -0.00000000
   4         0.00000000
   5         0.17374413
   6        -0.02040366
   7         0.76486529
   8         0.00000000
   9         0.00000000
  10        -0.19246506
Sym=     4a  
Ene=    -0.7620
Spin= Alpha
Occup=    1.00000
   1        -0.01817088
   2        -0.73448108
   3        -0.00000000
   4         0.00000000
   5         0.47779285
   6        -0.00131986
   7         0.53406183
   8        -0.00000000
   9        -0.00000000
  10         0.06927587
Sym=     4a  
Ene=    -0.6178
Spin= Beta
Occup=    1.00000
   1         0.02108237
   2        -0.46683575
   3         0.00000000
   4         0.00000000
   5        -0.19590601
   6         0.03973687
   7         0.63632679
   8        -0.00000000
   9         0.00000000
  10         0.62982466
Sym=     5a  
Ene=    -0.5361
Spin= Alpha
Occup=    1.00000
   1         0.02933538
   2         0.11641605
   3         0.00000000
   4         0.00000000
   5        -0.52620829
   6         0.04118289
   7         0.59499603
   8         0.00000000
   9         0.00000000
  10         0.68220408
Sym=     5a  
Ene=    -0.5621
Spin= Beta
Occup=    1.00000
   1        -0.00000000
   2         0.00000000
   3        -0.08532870
   4         0.23034339
   5         0.00000000
   6        -0.00000000
   7        -0.00000000
   8        -0.31379682
   9         0.84708925
  10        -0.00000000
Sym=     6a  
Ene=    -0.5282
Spin= Alpha
Occup=    1.00000
   1        -0.00000000
   2        -0.00000000
   3         0.72941531
   4        -0.49159397
   5         0.00000000
   6        -0.00000000
   7        -0.00000000
   8         0.24053256
   9        -0.16210841
  10        -0.00000000
Sym=     6a  
Ene=    -0.5621
Spin= Beta
Occup=    1.00000
   1        -0.00000000
   2         0.00000000
   3         0.23034339
   4         0.08532870
   5         0.00000000
   6        -0.00000000
   7        -0.00000000
   8         0.84708925
   9         0.31379682
  10        -0.00000000
Sym=     7a  
Ene=    -0.5282
Spin= Alpha
Occup=    1.00000
   1        -0.00000000
   2        -0.00000000
   3         0.49159397
   4         0.72941531
   5         0.00000000
   6        -0.00000000
   7        -0.00000000
   8         0.16210841
   9         0.24053256
  10        -0.00000000
Sym=     7a  
Ene=     0.0313
Spin= Beta
Occup=    0.00000
   1         0.03926403
   2         0.82361097
   3         0.00000000
   4        -0.00000000
   5        -0.55276190
   6         0.00770162
   7        -0.04729364
   8         0.00000000
   9        -0.00000000
  10         0.41657855
Sym=     8a  
Ene=     0.2205
Spin= Alpha
Occup=    0.00000
   1        -0.00000000
   2        -0.00000000
   3         0.13502696
   4        -0.54054859
   5         0.00000000
   6        -0.00000000
   7         0.00000000
   8        -0.24234965
   9         0.97018967
  10        -0.00000000
Sym=     8a  
Ene=     0.2317
Spin= Beta
Occup=    0.00000
   1         0.00000000
   2        -0.00000000
   3        -1.01173889
   4         0.01348097
   5        -0.00000000
   6         0.00000000
   7         0.00000000
   8         0.51774526
   9        -0.00689873
  10         0.00000000
Sym=     9a  
Ene=     0.2205
Spin= Alpha
Occup=    0.00000
   1         0.00000000
   2        -0.00000000
   3        -0.54054859
   4        -0.13502696
   5        -0.00000000
   6         0.00000000
   7         0.00000000
   8         0.97018967
   9         0.24234965
  10         0.00000000
Sym=     9a  
Ene=     0.2317
Spin= Beta
Occup=    0.00000
   1        -0.00000000
   2        -0.00000000
   3        -0.01348097
   4        -1.01173889
   5        -0.00000000
   6         0.00000000
   7         0.00000000
   8         0.00689873
   9         0.51774526
  10        -0.00000000
Sym=    10a  
Ene=     0.7179
Spin= Alpha
Occup=    0.00000
   1         0.12739398
   2         0.96218837
   3        -0.00000000
   4        -0.00000000
   5         1.06864146
   6        -0.12967875
   7        -1.01016551
   8        -0.00000000
   9         0.00000000
  10         1.01362392
Sym=    10a  
Ene=     0.7690
Spin= Beta
Occup=    0.00000
   1         0.12197961
   2         0.90723329
   3        -0.00000000
   4        -0.00000000
   5         1.14174861
   6        -0.13143822
   7        -0.95164827
   8        -0.00000000
   9         0.00000000
  10         0.96875914
