   This run of MOLCAS is using the pymolcas driver

                             OPE
                             OPE          NMOL  CASOP  ENMOLC A   SO
                 OPE        NMOLC        AS  OP EN  MO LC     AS  OP
                OPENM       OL CA        SO  PE NM  OL CA     SOP EN
                OP EN      MO   LC       AS  OP ENMOL  CASO   PENMOL
                OP  EN     MO   LC       AS  OP EN     MO     LC ASO
               OP   E  NMOL  C  AS       OP  EN MO     LC     AS  OP
               OP  E   NMO   LC AS        OPEN  MO     LCASOP EN   M
               O  PEN   MO  LCA  SO
            OPE   NMO   L   CAS    OP
        OPENMOL  CASOP     ENMOL   CASOPE
     OPENMOLCA   SOPENMOLCASOPEN   MOLCASOPE
    OPENMOLCAS   OP           EN   MOL    CAS
    OPENMOLCAS       OP  ENM        O     LCA
    OPENMOLCAS    OPEN  MOLCASO     P  E  NMO
    OPENMOLCAS     OP               E  N  MOL
    OPENMOLCA   SO           PENM   O  L  CAS    OPEN    MO    LCAS
    OPENMOLCA   SOP           ENM   O  L  CAS   OP  EN  MOLC  AS   O
    OPENMOLCA   SOPE           NM      O  LCA   S      OP  EN MO
    OPENMOLC                AS         O  PEN   M      OL  CA  SOPE
    OPENMO        LCASOPE  NMOL        C  ASO   P      ENMOLC     AS
    OPE     NMO      LCA  SO     P     E   NM   OL  CA SO  PE N   MO
          OPENMOLCA            SOPE   NMO        LCAS  O    P  ENMO
     OPENMOLCASOPENMOLCASOPENMOLCASOPENMOLCA
        OPENMOLCASOPENMOLCASOPENMOLCASOPE
            OPENMOLCASOPENMOLCASOPENM
               OPENMOLCASOPENMOLCA        version: ea724fe96-dirty
                   OPENMOLCASO
                       OPE                tag:

 OpenMolcas is free software; you can redistribute it and/or modify it
 under the terms of the GNU Lesser General Public License version 2.1.
 OpenMolcas is distributed in the hope that it will be useful, but it
 is provided "as is" and without any express or implied warranties.
 For more details see the full text of the license in the file
 LICENSE or in <http://www.gnu.org/licenses/>.

                 Copyright (C) The OpenMolcas Authors
           For the author list and the recommended citation,
                   consult the file CONTRIBUTORS.md

           *************************************************
           * pymolcas version py2.28                       *
           *   build c4a6d18ded8cb6cad61d2372a9abd97c      *
           *   (after the EMIL interpreter by V. Veryazov) *
           *************************************************

configuration info
------------------
C Compiler ID: Intel
C flags: -std=gnu99
Fortran Compiler ID: Intel
Fortran flags: -fpp -i8 -r8 -heap-arrays
Definitions: _MOLCAS_;_I8_;_LINUX_
Parallel: OFF (GA=OFF)


   -------------------------------------------------------------------------------
  |
  |              Project: 5.94
  |       Submitted from: /home/grierjones/DDCASPT2/iron_oxo_DDCASPT2/cluster/5.94
  |         Scratch area: /tmp/5.94
  |      Save outputs to: /home/grierjones/DDCASPT2/iron_oxo_DDCASPT2/cluster/5.94
  |               Molcas: /home/grierjones/Test/build
  |
  | Scratch area is empty
  |
  |       MOLCAS_DRIVER = /usr/local/pymolcas
  | MOLCAS_KEEP_WORKDIR = NO
  |  MOLCAS_NEW_WORKDIR = YES
  |       MOLCAS_NPROCS = 1
  |        MOLCAS_PRINT = NORMAL
  |       MOLCAS_SOURCE = /home/grierjones/Test/build
  |    MOLCAS_STRUCTURE = 0
  |
   -------------------------------------------------------------------------------

++ ---------   Input file   ---------

&GATEWAY
coord=5.94.xyz
Basis = ANO-RCC-VDZP
Group = nosymm
Expert
End of Input

&SEWARD
End of Input

&SCF
UHF
charge
2
spin
5
FileOrb
/home/grierjones/DDCASPT2/iron_oxo_DDCASPT2/cluster/5.92/5.92.UhfOrb

>>> COPY $WorkDir/5.94.scf.h5 $CurrDir/

&RASSCF
Title= RASSCF
FileOrb
/home/grierjones/DDCASPT2/iron_oxo_DDCASPT2/cluster/5.92/5.92.RasOrb
NACTEL
10 0 0
RAS2
14
Symmetry
1
Spin
5
charge
2
orblisting
all
ITERation
300 200

>>> COPY $WorkDir/5.94.rasscf.h5 $CurrDir/

>>> COPY $WorkDir/GMJ_Fock_MO.csv $CurrDir/5.94.GMJ_Fock_MO.csv

>>> COPY $WorkDir/GMJ_PT2_Fock_MO.csv $CurrDir/5.94.GMJ_PT2_Fock_MO.csv

&MOTRA
Frozen=0
LUMORB

>>> COPY $WorkDir/GMJ_one_int_indx.csv $CurrDir/5.94.GMJ_one_int_indx.csv

>>> COPY $WorkDir/GMJ_one_int.csv $CurrDir/5.94.GMJ_one_int.csv

>>> COPY $WorkDir/GMJ_two_int_indx.csv $CurrDir/5.94.GMJ_two_int_indx.csv

>>> COPY $WorkDir/GMJ_two_int.csv $CurrDir/5.94.GMJ_two_int.csv

&CASPT2
Frozen
0
MAXITER
50

>>> FOREACH i IN (B,E,F,G,H)

  >>> FOREACH j IN (P,M)

    >>> IF (-FILE GMJ_e2_${i}_${j}.csv)

      >>> COPY $WorkDir/GMJ_RHS_${i}_${j}.csv $CurrDir/GMJ_RHS_${i}_${j}.csv

      >>> COPY $WorkDir/GMJ_IVECW_${i}_${j}.csv $CurrDir/GMJ_IVECW_${i}_${j}.csv

      >>> COPY $WorkDir/GMJ_IVECX_${i}_${j}.csv $CurrDir/GMJ_IVECX_${i}_${j}.csv

      >>> COPY $WorkDir/GMJ_IVECC2_${i}_${j}.csv $CurrDir/GMJ_IVECC2_${i}_${j}.csv

      >>> COPY $WorkDir/GMJ_e2_${i}_${j}.csv $CurrDir/GMJ_e2_${i}_${j}.csv

    >>> END IF

  >>> END FOREACH

>>> END FOREACH

>>> FOREACH i IN (A,C,D)

  >>> IF (-FILE GMJ_e2_$i.csv)

    >>> COPY $WorkDir/GMJ_RHS_$i.csv $CurrDir/GMJ_RHS_$i.csv

    >>> COPY $WorkDir/GMJ_IVECW_$i.csv $CurrDir/GMJ_IVECW_$i.csv

    >>> COPY $WorkDir/GMJ_IVECX_$i.csv $CurrDir/GMJ_IVECX_$i.csv

    >>> COPY $WorkDir/GMJ_IVECC2_$i.csv $CurrDir/GMJ_IVECC2_$i.csv

    >>> COPY $WorkDir/GMJ_e2_$i.csv $CurrDir/GMJ_e2_$i.csv

  >>> END IF

>>> END FOREACH

-- ----------------------------------

--- Start Module: gateway at Wed Dec 25 12:08:27 2024 ---
 
()()()()()()()()()()()()()()()()()()()()()()()()()()()()()()()()()()()()()()()()()()()()()()()()()()

                                              &GATEWAY

                                   only a single process is used
                       available to each process: 2.0 GB of memory, 1 thread?
()()()()()()()()()()()()()()()()()()()()()()()()()()()()()()()()()()()()()()()()()()()()()()()()()()
 
 ###############################################################################
 ###############################################################################
 ###                                                                         ###
 ###                                                                         ###
 ###                                                                         ###
 ###    WARNING: EXPERT option is ON!                                        ###
 ###                                                                         ###
 ###                                                                         ###
 ###############################################################################
 ###############################################################################
 
++    Symmetry information:
      ---------------------
 
                    Character Table for C1 
 
                             E  
                    a        1  x, y, xy, Rz, z, xz, Ry, yz, Rx, I
--
 
 
++    Basis set information:
      ----------------------
 
 
      Basis set label: O.ANO-RCC...3S2P1D.
 
      Electronic valence basis set:
      ------------------
      Associated Effective Charge   8.000000 au
      Associated Actual Charge      8.000000 au
      Nuclear Model: Point charge
 
      Shell  nPrim  nBasis  Cartesian Spherical Contaminant
         s      14       3        X                  
         p       9       2        X                  
         d       4       1                 X         
 
 
      Basis set label: FE.ANO-RCC...5S4P2D1F.
 
      Electronic valence basis set:
      ------------------
      Associated Effective Charge  26.000000 au
      Associated Actual Charge     26.000000 au
      Nuclear Model: Point charge
 
      Shell  nPrim  nBasis  Cartesian Spherical Contaminant
         s      21       5        X                  
         p      15       4        X                  
         d      10       2                 X         
         f       6       1                 X         
--
 
 
++    Molecular structure info:
      -------------------------
 
                    ************************************************ 
                    **** Cartesian Coordinates / Bohr, Angstrom **** 
                    ************************************************ 
 
     Center  Label                x              y              z                     x              y              z
        1      O1               0.000000       0.000000       7.121131              0.000000       0.000000       3.768340
        2      FE2              0.000000       0.000000      -4.097569              0.000000       0.000000      -2.168340
--
 
 
            Nuclear Potential Energy             18.54047377 au
 
 ###############################################################################
 ###############################################################################
 ###                                                                         ###
 ###                                                                         ###
 ###    There were warnings during the execution                             ###
 ###    Please, check the output with care!                                  ###
 ###                                                                         ###
 ###                                                                         ###
 ###############################################################################
 ###############################################################################
--- Stop Module: gateway at Wed Dec 25 12:08:27 2024 /rc=_RC_ALL_IS_WELL_ ---
*** files: xmldump
    saved to directory /home/grierjones/DDCASPT2/iron_oxo_DDCASPT2/cluster/5.94

--- Start Module: seward at Wed Dec 25 12:08:27 2024 ---
 
()()()()()()()()()()()()()()()()()()()()()()()()()()()()()()()()()()()()()()()()()()()()()()()()()()

                                              &SEWARD

                                   only a single process is used
                       available to each process: 2.0 GB of memory, 1 thread?
()()()()()()()()()()()()()()()()()()()()()()()()()()()()()()()()()()()()()()()()()()()()()()()()()()
 
 ###############################################################################
 ###############################################################################
 ###                                                                         ###
 ###                                                                         ###
 ###                                                                         ###
 ###    WARNING: EXPERT option is ON!                                        ###
 ###                                                                         ###
 ###                                                                         ###
 ###############################################################################
 ###############################################################################
               SEWARD will generate:
                  Multipole Moment integrals up to order  2
                  Kinetic Energy integrals
                  Nuclear Attraction integrals (point charge)
                  One-Electron Hamiltonian integrals
                  Velocity integrals
                  Relativistic Douglas-Kroll-Hess integrals:
                    - Parametrization         : EXP
                    - DKH order of Hamiltonian: 2
                    - DKH order of Properties : 0
                         - multipole moment operators
                         - electric potential operators
                         - contact operators
                  Atomic mean-field integrals
                  Two-Electron Repulsion integrals
 
                   Integrals are discarded if absolute value <: 0.10E-13
                   Integral cutoff threshold is set to       <: 0.10E-15
 
            Nuclear Potential Energy             18.54047377 au
 
 
      Basis set specifications :
      Symmetry species         a  
      Basis functions           48
 
 
  Input file to MOLDEN was generated!
 
 ###############################################################################
 ###############################################################################
 ###                                                                         ###
 ###                                                                         ###
 ###    There were warnings during the execution                             ###
 ###    Please, check the output with care!                                  ###
 ###                                                                         ###
 ###                                                                         ###
 ###############################################################################
 ###############################################################################
--- Stop Module: seward at Wed Dec 25 12:08:28 2024 /rc=_RC_ALL_IS_WELL_ ---
*** files: 5.94.GssOrb 5.94.guessorb.h5 5.94.guessorb.molden xmldump
    saved to directory /home/grierjones/DDCASPT2/iron_oxo_DDCASPT2/cluster/5.94

*** symbolic link created: INPORB -> 5.94.GssOrb
--- Start Module: scf at Wed Dec 25 12:08:28 2024 ---
 
()()()()()()()()()()()()()()()()()()()()()()()()()()()()()()()()()()()()()()()()()()()()()()()()()()

                                                &SCF

                                   only a single process is used
                       available to each process: 2.0 GB of memory, 1 thread?
()()()()()()()()()()()()()()()()()()()()()()()()()()()()()()()()()()()()()()()()()()()()()()()()()()
 
 *** Possible bug in opening file
 *** isFreeUnit resets the unit number
++    Input section:
      --------------
 
      Header of the integral files:
      
       Integrals generated by seward 4.2.0  , Wed Dec 25 12:08:27 2024
 
 
      Cartesian coordinates in Angstrom:
      -----------------------------------------------------
      No.  Label        X            Y            Z        
      -----------------------------------------------------
       1   O1         0.00000000   0.00000000   3.76834000
       2   FE2        0.00000000   0.00000000  -2.16834000
      -----------------------------------------------------
      Nuclear repulsion energy =   18.54047377
--
 
++    Orbital specifications:
      -----------------------
 
      Symmetry species               1
                                     a
      Frozen orbitals                0
      Occupied orbitals alpha       18
      Occupied orbitals beta        14
      Secondary orbitals alpha      30
      Secondary orbitals beta       34
      Deleted orbitals               0
      Total number of orbitals      48
      Number of basis functions     48
--
 
      Molecular charge                           2.000
 
++    Optimization specifications:
      ----------------------------
 
      SCF Algorithm: Conventional USCF
      D(i)-D(i-1) density differences are used
      Number of density matrices in core                5
      Maximum number of NDDO SCF iterations           400
      Maximum number of HF SCF iterations             400
      Threshold for SCF energy change            0.10E-08
      Threshold for density matrix               0.10E-03
      Threshold for Fock matrix                  0.15E-03
      Threshold for linear dependence            0.10E-08
      Threshold at which DIIS is turned on       0.15E+00
      Threshold at which QNR/C2DIIS is turned on 0.75E-01
      Threshold for Norm(delta) (QNR/C2DIIS)     0.20E-04
      DIIS extrapolation of the SCF procedure
      All orbitals punched on: UHFORB
--
 
      Input vectors read from INPORB
      Orbital file label: * UHF orbitals
 
 
++ Convergence information
                               UHF SCF        iterations: Energy and convergence statistics
 
Iter     Tot. SCF        One-elec.       Two-elec.     Energy      Max Dij or  Max Fij      DNorm      TNorm      AccCon     Time
         Energy          Energy          Energy        Change      Delta Norm                                                in Sec.
 
 The total and one-electron energies are shifted by a value of      1000. a.u.
 
   1  -345.269578055  -885.671438043   521.861386218   0.00E+00    0.57E-04    0.23E-04     0.80E+01   0.18E+03   None         0.
   2  -345.269578061  -885.673447687   521.863395857  -0.53E-08*   0.27E-04    0.20E-04     0.22E-03   0.18E+03   EDIIS        0.
   3  -345.269578062  -885.671523278   521.861471446  -0.95E-09    0.20E-04    0.13E-04     0.13E-03   0.18E+03   c2DIIS       0.
 
       Convergence after  3 Macro Iterations
--
 
 *****************************************************************************************************************************
 *                                                                                                                           *
 *                                             SCF/KS-DFT Program, Final results                                             *
 *                                                                                                                           *
 *                                                                                                                           *
 *                                                                                                                           *
 *                                                       Final Results                                                       *
 *                                                                                                                           *
 *****************************************************************************************************************************
 
::    Total SCF energy                              -1345.2695780615
      One-electron energy                           -1885.6715232775
      Two-electron energy                             521.8614714462
      Nuclear repulsion energy                         18.5404737697
      Kinetic energy (interpolated)                  1399.3966237460
      Virial theorem                                    0.9613211546
      Total spin, S(S+1)                                7.0175267691
      Total spin, S                                     2.1958350782
      Max non-diagonal density matrix element           0.0000199256
      Max non-diagonal Fock matrix element              0.0000133498
 
 
      All orbitals with orbital energies smaller than  E(LUMO)+0.5 are printed
 
++    Molecular orbitals:
      -------------------
 
      Title: UHF orbitals (alpha)

      Molecular orbitals for symmetry species 1: a  
 
          Orbital            1         2         3         4         5         6         7         8         9        10    
          Energy         -263.8650  -32.6415  -27.7250  -27.7250  -27.6942  -21.4878   -4.5555   -3.1328   -3.1328   -3.0612
          Occ. No.          1.0000    1.0000    1.0000    1.0000    1.0000    1.0000    1.0000    1.0000    1.0000    1.0000
 
        1 O1     1s         0.0000   -0.0000    0.0000    0.0000   -0.0000    1.0000    0.0000   -0.0000   -0.0000    0.0000
        2 O1     2s         0.0000   -0.0000    0.0000    0.0000   -0.0000    0.0003    0.0001   -0.0000   -0.0000    0.0001
        3 O1     3s        -0.0000   -0.0000    0.0000    0.0000   -0.0000   -0.0010    0.0001   -0.0000   -0.0000    0.0001
        4 O1     2px        0.0000    0.0000    0.0000   -0.0000    0.0000   -0.0000    0.0000   -0.0000    0.0000   -0.0000
        5 O1     3px        0.0000    0.0000    0.0000   -0.0000    0.0000    0.0000    0.0000   -0.0000    0.0000   -0.0000
        6 O1     2py       -0.0000   -0.0000   -0.0000   -0.0000   -0.0000    0.0000   -0.0000    0.0000    0.0000    0.0000
        7 O1     3py       -0.0000   -0.0000   -0.0000   -0.0000   -0.0000   -0.0000   -0.0000    0.0000    0.0000    0.0000
        8 O1     2pz        0.0000    0.0000   -0.0000   -0.0000    0.0000   -0.0000   -0.0000    0.0000    0.0000   -0.0000
        9 O1     3pz        0.0000    0.0000   -0.0000   -0.0000    0.0000    0.0000   -0.0001    0.0000    0.0000   -0.0001
       10 O1     3d2-       0.0000   -0.0000   -0.0000    0.0000    0.0000    0.0000   -0.0000    0.0000   -0.0000   -0.0000
       11 O1     3d1-       0.0000    0.0000    0.0000    0.0000    0.0000    0.0000    0.0000   -0.0000   -0.0000   -0.0000
       12 O1     3d0       -0.0000   -0.0000    0.0000    0.0000   -0.0000   -0.0015    0.0000   -0.0000   -0.0000    0.0000
       13 O1     3d1+      -0.0000   -0.0000   -0.0000    0.0000   -0.0000   -0.0000   -0.0000    0.0000   -0.0000    0.0000
       14 O1     3d2+      -0.0000   -0.0000   -0.0000   -0.0000   -0.0000    0.0000   -0.0000    0.0000    0.0000   -0.0000
       15 FE2    1s         1.0000    0.0000    0.0000    0.0000   -0.0000    0.0000   -0.0000   -0.0000   -0.0000    0.0000
       16 FE2    2s        -0.0000    1.0000    0.0000    0.0000   -0.0003   -0.0000   -0.0023    0.0000    0.0000   -0.0000
       17 FE2    3s         0.0000    0.0023    0.0000    0.0000   -0.0000    0.0000    0.9999    0.0000    0.0000   -0.0013
       18 FE2    4s        -0.0000   -0.0001   -0.0000   -0.0000    0.0000    0.0000    0.0063   -0.0000   -0.0000    0.0006
       19 FE2    5s         0.0000    0.0001   -0.0000   -0.0000   -0.0000    0.0000   -0.0044    0.0000    0.0000   -0.0004
       20 FE2    2px       -0.0000   -0.0000   -0.7060    0.7082   -0.0000   -0.0000    0.0000    0.0015   -0.0014    0.0000
       21 FE2    3px        0.0000   -0.0000   -0.0014    0.0014   -0.0000    0.0000   -0.0000   -0.7425    0.6697   -0.0000
       22 FE2    4px       -0.0000    0.0000    0.0002   -0.0002    0.0000   -0.0000    0.0000   -0.0025    0.0022   -0.0000
       23 FE2    5px        0.0000   -0.0000   -0.0004    0.0004   -0.0000   -0.0000   -0.0000    0.0032   -0.0029    0.0000
       24 FE2    2py        0.0000    0.0000    0.7082    0.7060    0.0001    0.0000   -0.0000   -0.0014   -0.0015   -0.0000
       25 FE2    3py       -0.0000    0.0000    0.0014    0.0014    0.0000   -0.0000    0.0000    0.6697    0.7425    0.0001
       26 FE2    4py        0.0000   -0.0000   -0.0002   -0.0002   -0.0000    0.0000   -0.0000    0.0022    0.0025    0.0000
       27 FE2    5py       -0.0000    0.0000    0.0004    0.0004    0.0000    0.0000    0.0000   -0.0029   -0.0032   -0.0000
       28 FE2    2pz        0.0000    0.0003   -0.0001   -0.0000    1.0000   -0.0000   -0.0000    0.0000    0.0000   -0.0016
       29 FE2    3pz       -0.0000    0.0000   -0.0000   -0.0000    0.0016   -0.0000    0.0013   -0.0001   -0.0000    1.0000
       30 FE2    4pz        0.0000   -0.0000    0.0000    0.0000   -0.0001    0.0000    0.0001   -0.0000   -0.0000    0.0057
       31 FE2    5pz       -0.0000    0.0000   -0.0000   -0.0000    0.0003    0.0000   -0.0001    0.0000    0.0000   -0.0057
       32 FE2    3d2-       0.0000    0.0000   -0.0000    0.0000   -0.0000    0.0000    0.0000   -0.0000    0.0000   -0.0000
       33 FE2    4d2-      -0.0000   -0.0000    0.0000   -0.0000    0.0000   -0.0000   -0.0000    0.0000   -0.0000    0.0000
       34 FE2    3d1-      -0.0000   -0.0000    0.0000    0.0000    0.0000    0.0000   -0.0000    0.0004    0.0005    0.0000
       35 FE2    4d1-       0.0000    0.0000   -0.0000   -0.0000   -0.0000    0.0000    0.0000    0.0000    0.0001    0.0000
       36 FE2    3d0       -0.0000   -0.0005   -0.0000   -0.0000    0.0000    0.0000   -0.0124   -0.0000   -0.0000    0.0007
       37 FE2    4d0        0.0000    0.0004    0.0000    0.0000   -0.0000    0.0000    0.0041   -0.0000   -0.0000    0.0002
       38 FE2    3d1+       0.0000    0.0000   -0.0000    0.0000   -0.0000   -0.0000    0.0000   -0.0005    0.0004   -0.0000
       39 FE2    4d1+      -0.0000   -0.0000    0.0000   -0.0000    0.0000   -0.0000   -0.0000   -0.0001    0.0000   -0.0000
       40 FE2    3d2+       0.0000    0.0000   -0.0000   -0.0000    0.0000    0.0000    0.0000   -0.0000   -0.0000    0.0000
       41 FE2    4d2+      -0.0000   -0.0000    0.0000    0.0000   -0.0000   -0.0000   -0.0000    0.0000    0.0000   -0.0000
       42 FE2    4f3-      -0.0000   -0.0000    0.0000    0.0000    0.0000   -0.0000   -0.0000    0.0000    0.0000    0.0000
       43 FE2    4f2-       0.0000    0.0000    0.0000   -0.0000    0.0000   -0.0000    0.0000    0.0000   -0.0000    0.0000
       44 FE2    4f1-      -0.0000   -0.0000   -0.0002   -0.0002   -0.0000    0.0000   -0.0000   -0.0054   -0.0060   -0.0000
       45 FE2    4f0        0.0000   -0.0000    0.0000    0.0000   -0.0001    0.0000   -0.0000    0.0000    0.0000   -0.0018
       46 FE2    4f1+       0.0000    0.0000    0.0002   -0.0002    0.0000   -0.0000    0.0000    0.0060   -0.0054    0.0000
       47 FE2    4f2+       0.0000    0.0000    0.0000    0.0000    0.0000   -0.0000    0.0000    0.0000    0.0000    0.0000
       48 FE2    4f3+      -0.0000   -0.0000   -0.0000    0.0000    0.0000   -0.0000   -0.0000   -0.0000    0.0000    0.0000
 
          Orbital           11        12        13        14        15        16        17        18        19        20    
          Energy           -1.9995   -1.3849   -1.3849   -0.8668   -0.8668   -0.8278   -0.7929   -0.7929   -0.5441   -0.3191
          Occ. No.          1.0000    1.0000    1.0000    1.0000    1.0000    1.0000    1.0000    1.0000    0.0000    0.0000
 
        1 O1     1s        -0.0004    0.0000   -0.0000    0.0000    0.0000   -0.0000    0.0000    0.0000   -0.0000   -0.0005
        2 O1     2s         0.9962    0.0000   -0.0000    0.0000    0.0000   -0.0003    0.0000    0.0000    0.0049   -0.0049
        3 O1     3s        -0.0712   -0.0000    0.0000    0.0000    0.0000   -0.0002    0.0000    0.0000   -0.0047    0.0030
        4 O1     2px       -0.0000   -0.2026    0.9688    0.0000   -0.0000    0.0000    0.0001   -0.0001    0.0000    0.0000
        5 O1     3px        0.0000    0.0293   -0.1399    0.0000   -0.0000    0.0000    0.0001   -0.0002    0.0000    0.0000
        6 O1     2py        0.0000    0.9688    0.2026   -0.0000   -0.0000   -0.0000   -0.0001   -0.0001   -0.0001   -0.0000
        7 O1     3py       -0.0000   -0.1399   -0.0293   -0.0000   -0.0000   -0.0000   -0.0002   -0.0001   -0.0000   -0.0000
        8 O1     2pz       -0.0055    0.0001   -0.0000   -0.0000   -0.0000    0.0005   -0.0000   -0.0000    0.9945    0.0163
        9 O1     3pz       -0.0002   -0.0000    0.0000   -0.0000   -0.0000    0.0011   -0.0000   -0.0000    0.1056   -0.0051
       10 O1     3d2-       0.0000   -0.0000    0.0000    0.0000   -0.0000   -0.0000    0.0000   -0.0000    0.0000   -0.0000
       11 O1     3d1-       0.0000   -0.0016   -0.0003    0.0000    0.0000   -0.0000   -0.0000   -0.0000    0.0000   -0.0000
       12 O1     3d0       -0.0509   -0.0000    0.0000    0.0000    0.0000   -0.0000   -0.0000   -0.0000   -0.0026    0.0006
       13 O1     3d1+      -0.0000    0.0003   -0.0016   -0.0000    0.0000    0.0000    0.0000   -0.0000   -0.0000    0.0000
       14 O1     3d2+       0.0000   -0.0000   -0.0000    0.0000    0.0000   -0.0000    0.0000    0.0000    0.0000   -0.0000
       15 FE2    1s        -0.0000   -0.0000    0.0000    0.0000   -0.0000    0.0000   -0.0000   -0.0000    0.0000    0.0000
       16 FE2    2s        -0.0000   -0.0000    0.0000    0.0000   -0.0000    0.0004   -0.0000   -0.0000    0.0000    0.0001
       17 FE2    3s        -0.0000   -0.0000    0.0000    0.0000   -0.0000    0.0124   -0.0000   -0.0000    0.0003   -0.0058
       18 FE2    4s        -0.0001   -0.0000    0.0000   -0.0000   -0.0000   -0.0134   -0.0000   -0.0000    0.0012    0.9929
       19 FE2    5s        -0.0003   -0.0000    0.0000    0.0000    0.0000    0.0074   -0.0000   -0.0000    0.0024    0.0709
       20 FE2    2px        0.0000   -0.0000    0.0000    0.0000   -0.0000    0.0000    0.0000   -0.0000   -0.0000    0.0000
       21 FE2    3px       -0.0000   -0.0000    0.0000    0.0000   -0.0000    0.0000    0.0004   -0.0006   -0.0000    0.0000
       22 FE2    4px       -0.0000   -0.0001    0.0003   -0.0000    0.0000   -0.0000   -0.0048    0.0073   -0.0000    0.0000
       23 FE2    5px       -0.0000   -0.0000    0.0002   -0.0000    0.0000   -0.0000   -0.0002    0.0003   -0.0000    0.0000
       24 FE2    2py       -0.0000    0.0000    0.0000   -0.0000   -0.0000   -0.0000   -0.0000   -0.0000    0.0000   -0.0000
       25 FE2    3py        0.0000    0.0000    0.0000   -0.0000   -0.0000   -0.0000   -0.0006   -0.0004    0.0000   -0.0000
       26 FE2    4py        0.0000    0.0003    0.0001    0.0000    0.0000    0.0000    0.0073    0.0048    0.0000   -0.0000
       27 FE2    5py        0.0000    0.0002    0.0000    0.0000    0.0000    0.0000    0.0003    0.0002    0.0000   -0.0000
       28 FE2    2pz        0.0000   -0.0000    0.0000    0.0000    0.0000   -0.0000    0.0000    0.0000    0.0000    0.0000
       29 FE2    3pz       -0.0000   -0.0000    0.0000    0.0000    0.0000   -0.0007    0.0000    0.0000    0.0003   -0.0011
       30 FE2    4pz       -0.0001   -0.0000    0.0000   -0.0000   -0.0000    0.0099   -0.0000   -0.0000    0.0012    0.0898
       31 FE2    5pz       -0.0001   -0.0000    0.0000   -0.0000   -0.0000    0.0004   -0.0000   -0.0000    0.0004    0.0130
       32 FE2    3d2-       0.0000    0.0000   -0.0000    0.9647   -0.2633   -0.0000   -0.0001    0.0001    0.0000   -0.0000
       33 FE2    4d2-       0.0000    0.0000   -0.0000    0.0030   -0.0008   -0.0000   -0.0000    0.0000    0.0000    0.0000
       34 FE2    3d1-       0.0000    0.0001    0.0000    0.0000    0.0001    0.0002    0.8334    0.5519   -0.0000    0.0000
       35 FE2    4d1-       0.0000    0.0002    0.0000    0.0000    0.0000    0.0000    0.0226    0.0149    0.0000   -0.0000
       36 FE2    3d0       -0.0000   -0.0000    0.0000   -0.0000   -0.0000    0.9996   -0.0002   -0.0000    0.0012    0.0121
       37 FE2    4d0       -0.0000   -0.0000    0.0000   -0.0000   -0.0000    0.0154   -0.0000   -0.0000    0.0003   -0.0072
       38 FE2    3d1+      -0.0000   -0.0000    0.0001   -0.0001    0.0001   -0.0000   -0.5519    0.8334    0.0000   -0.0000
       39 FE2    4d1+      -0.0000   -0.0000    0.0002   -0.0000    0.0000   -0.0000   -0.0149    0.0226   -0.0000    0.0000
       40 FE2    3d2+       0.0000    0.0000    0.0000    0.2633    0.9647   -0.0000   -0.0001   -0.0001    0.0000   -0.0000
       41 FE2    4d2+       0.0000    0.0000    0.0000    0.0008    0.0030   -0.0000   -0.0000   -0.0000    0.0000    0.0000
       42 FE2    4f3-       0.0000   -0.0000   -0.0000   -0.0000    0.0000    0.0000   -0.0000   -0.0000    0.0000    0.0000
       43 FE2    4f2-      -0.0000   -0.0000    0.0000    0.0006   -0.0002   -0.0000   -0.0000    0.0000   -0.0000   -0.0000
       44 FE2    4f1-       0.0000    0.0000    0.0000    0.0000    0.0000    0.0000    0.0006    0.0004   -0.0000    0.0000
       45 FE2    4f0        0.0000   -0.0000    0.0000   -0.0000   -0.0000    0.0008   -0.0000   -0.0000   -0.0000    0.0000
       46 FE2    4f1+      -0.0000   -0.0000    0.0000   -0.0000    0.0000   -0.0000   -0.0004    0.0006    0.0000   -0.0000
       47 FE2    4f2+      -0.0000   -0.0000   -0.0000    0.0002    0.0006   -0.0000   -0.0000   -0.0000   -0.0000   -0.0000
       48 FE2    4f3+       0.0000    0.0000   -0.0000   -0.0000   -0.0000    0.0000    0.0000    0.0000    0.0000    0.0000
 
          Orbital           21        22        23        24    
          Energy           -0.1717   -0.1717   -0.1643   -0.0838
          Occ. No.          0.0000    0.0000    0.0000    0.0000
 
        1 O1     1s         0.0000   -0.0000   -0.0006   -0.0013
        2 O1     2s         0.0000   -0.0000   -0.0061   -0.0126
        3 O1     3s        -0.0000    0.0000    0.0115    0.0286
        4 O1     2px       -0.0002    0.0008    0.0000    0.0000
        5 O1     3px       -0.0024    0.0105    0.0000    0.0000
        6 O1     2py        0.0008    0.0002   -0.0000   -0.0000
        7 O1     3py        0.0105    0.0024   -0.0000   -0.0000
        8 O1     2pz       -0.0000    0.0000    0.0234    0.0366
        9 O1     3pz        0.0000   -0.0000   -0.0361   -0.0632
       10 O1     3d2-       0.0000   -0.0000   -0.0000   -0.0000
       11 O1     3d1-      -0.0003   -0.0001   -0.0000   -0.0000
       12 O1     3d0       -0.0000    0.0000    0.0014    0.0026
       13 O1     3d1+       0.0001   -0.0003    0.0000    0.0000
       14 O1     3d2+       0.0000    0.0000   -0.0000   -0.0000
       15 FE2    1s         0.0000   -0.0000   -0.0000   -0.0000
       16 FE2    2s         0.0000   -0.0000   -0.0000   -0.0002
       17 FE2    3s        -0.0000    0.0000    0.0006    0.0045
       18 FE2    4s         0.0000   -0.0000   -0.0983   -0.0665
       19 FE2    5s        -0.0000    0.0000    0.0758    0.9842
       20 FE2    2px       -0.0000    0.0001   -0.0000   -0.0000
       21 FE2    3px        0.0006   -0.0027    0.0000   -0.0000
       22 FE2    4px       -0.2248    0.9674   -0.0000    0.0000
       23 FE2    5px       -0.0259    0.1113   -0.0000    0.0000
       24 FE2    2py        0.0001    0.0000    0.0000    0.0000
       25 FE2    3py       -0.0027   -0.0006   -0.0000    0.0000
       26 FE2    4py        0.9674    0.2248    0.0001   -0.0000
       27 FE2    5py        0.1113    0.0259    0.0000   -0.0000
       28 FE2    2pz       -0.0000    0.0000    0.0001   -0.0000
       29 FE2    3pz        0.0000   -0.0000   -0.0049    0.0008
       30 FE2    4pz       -0.0001    0.0000    0.9814   -0.0934
       31 FE2    5pz       -0.0000    0.0000    0.1198   -0.0060
       32 FE2    3d2-       0.0000   -0.0000    0.0000    0.0000
       33 FE2    4d2-       0.0000   -0.0000   -0.0000   -0.0000
       34 FE2    3d1-      -0.0087   -0.0020   -0.0000   -0.0000
       35 FE2    4d1-       0.0080    0.0019    0.0000    0.0000
       36 FE2    3d0        0.0000   -0.0000   -0.0120   -0.0078
       37 FE2    4d0       -0.0000    0.0000    0.0142    0.0152
       38 FE2    3d1+       0.0020   -0.0087    0.0000    0.0000
       39 FE2    4d1+      -0.0019    0.0080   -0.0000   -0.0000
       40 FE2    3d2+       0.0000    0.0000    0.0000    0.0000
       41 FE2    4d2+       0.0000    0.0000   -0.0000   -0.0000
       42 FE2    4f3-      -0.0000   -0.0000   -0.0000   -0.0000
       43 FE2    4f2-       0.0000   -0.0000    0.0000    0.0000
       44 FE2    4f1-      -0.0000   -0.0000   -0.0000   -0.0000
       45 FE2    4f0        0.0000   -0.0000   -0.0004    0.0000
       46 FE2    4f1+       0.0000   -0.0000    0.0000    0.0000
       47 FE2    4f2+      -0.0000   -0.0000    0.0000    0.0000
       48 FE2    4f3+       0.0000   -0.0000   -0.0000   -0.0000
--
 
 
  Input file to MOLDEN was generated!
 
 
++    Static properties:
      ------------------
 
 
      LoProp Charges per center
 

                   O1       FE2   
      Nuclear      8.0000  26.0000
      Electronic  -6.9999 -25.0001
 
      Total        1.0001   0.9999
--
 
 
      All orbitals with orbital energies smaller than  E(LUMO)+0.5 are printed
 
++    Molecular orbitals:
      -------------------
 
      Title: UHF orbitals (beta)

      Molecular orbitals for symmetry species 1: a  
 
          Orbital            1         2         3         4         5         6         7         8         9        10    
          Energy         -263.8636  -32.5566  -27.6306  -27.6306  -27.6300  -21.4408   -4.3040   -2.8374   -2.7880   -2.7880
          Occ. No.          1.0000    1.0000    1.0000    1.0000    1.0000    1.0000    1.0000    1.0000    1.0000    1.0000
 
        1 O1     1s         0.0000    0.0000   -0.0000   -0.0000    0.0000    1.0000    0.0000    0.0000   -0.0000    0.0000
        2 O1     2s         0.0000    0.0000   -0.0000   -0.0000    0.0000   -0.0019    0.0001    0.0001   -0.0000    0.0000
        3 O1     3s        -0.0000    0.0000   -0.0000   -0.0000    0.0000    0.0002    0.0002    0.0001   -0.0000    0.0000
        4 O1     2px       -0.0000    0.0000   -0.0000    0.0000   -0.0000    0.0000    0.0000   -0.0000    0.0000    0.0000
        5 O1     3px        0.0000    0.0000   -0.0000    0.0000   -0.0000   -0.0000    0.0000   -0.0000    0.0000    0.0000
        6 O1     2py        0.0000   -0.0000    0.0000    0.0000    0.0000   -0.0000   -0.0000    0.0000    0.0000   -0.0000
        7 O1     3py       -0.0000   -0.0000    0.0000    0.0000    0.0000    0.0000   -0.0000    0.0000    0.0000   -0.0000
        8 O1     2pz        0.0000   -0.0000    0.0000    0.0000   -0.0000   -0.0000   -0.0001   -0.0001    0.0000   -0.0000
        9 O1     3pz        0.0000   -0.0000    0.0000    0.0000   -0.0000   -0.0000   -0.0003   -0.0001    0.0000   -0.0000
       10 O1     3d2-       0.0000   -0.0000   -0.0000    0.0000    0.0000   -0.0000   -0.0000   -0.0000    0.0000    0.0000
       11 O1     3d1-       0.0000    0.0000   -0.0000   -0.0000   -0.0000   -0.0000    0.0000   -0.0000   -0.0000    0.0000
       12 O1     3d0       -0.0000    0.0000   -0.0000   -0.0000    0.0000    0.0015    0.0000    0.0000   -0.0000    0.0000
       13 O1     3d1+      -0.0000   -0.0000    0.0000   -0.0000    0.0000    0.0000   -0.0000    0.0000   -0.0000   -0.0000
       14 O1     3d2+       0.0000   -0.0000    0.0000    0.0000   -0.0000   -0.0000   -0.0000   -0.0000   -0.0000    0.0000
       15 FE2    1s         1.0000    0.0000    0.0000    0.0000   -0.0000   -0.0000   -0.0000    0.0000   -0.0000    0.0000
       16 FE2    2s        -0.0000    1.0000    0.0000    0.0000   -0.0003   -0.0000    0.0002   -0.0000    0.0000   -0.0000
       17 FE2    3s         0.0000   -0.0002   -0.0000   -0.0000    0.0000   -0.0000    1.0000   -0.0014    0.0000   -0.0000
       18 FE2    4s        -0.0000    0.0001   -0.0000   -0.0000    0.0000   -0.0000    0.0076    0.0007   -0.0000    0.0000
       19 FE2    5s         0.0000   -0.0002    0.0000    0.0000   -0.0000   -0.0000   -0.0057   -0.0004    0.0000   -0.0000
       20 FE2    2px       -0.0000   -0.0000   -0.4109    0.9117   -0.0000    0.0000   -0.0000   -0.0000    0.0009    0.0016
       21 FE2    3px        0.0000    0.0000    0.0008   -0.0017    0.0000   -0.0000    0.0000   -0.0000    0.4948    0.8688
       22 FE2    4px       -0.0000   -0.0000   -0.0001    0.0003   -0.0000    0.0000   -0.0000   -0.0000    0.0040    0.0070
       23 FE2    5px        0.0000   -0.0000    0.0003   -0.0007    0.0000    0.0000   -0.0000    0.0000   -0.0044   -0.0077
       24 FE2    2py        0.0000    0.0000    0.9117    0.4109    0.0002   -0.0000    0.0000    0.0000    0.0016   -0.0009
       25 FE2    3py       -0.0000   -0.0000   -0.0017   -0.0008   -0.0000    0.0000   -0.0000    0.0001    0.8688   -0.4948
       26 FE2    4py        0.0000    0.0000    0.0003    0.0001    0.0000   -0.0000    0.0000    0.0000    0.0070   -0.0040
       27 FE2    5py       -0.0000    0.0000   -0.0007   -0.0003   -0.0000   -0.0000    0.0000   -0.0000   -0.0077    0.0044
       28 FE2    2pz        0.0000    0.0003   -0.0002   -0.0000    1.0000   -0.0000   -0.0000    0.0010   -0.0000    0.0000
       29 FE2    3pz       -0.0000    0.0000    0.0000    0.0000   -0.0010   -0.0000    0.0014    0.9997   -0.0001    0.0001
       30 FE2    4pz        0.0000   -0.0000   -0.0000   -0.0000    0.0003   -0.0000    0.0001    0.0107   -0.0000    0.0000
       31 FE2    5pz       -0.0000    0.0000    0.0000    0.0000   -0.0007   -0.0000   -0.0001   -0.0099    0.0000   -0.0000
       32 FE2    3d2-      -0.0000   -0.0000   -0.0000    0.0000   -0.0000    0.0000   -0.0000   -0.0000   -0.0000   -0.0000
       33 FE2    4d2-      -0.0000   -0.0000    0.0000   -0.0000    0.0000    0.0000    0.0000    0.0000    0.0000    0.0000
       34 FE2    3d1-       0.0000    0.0000    0.0000    0.0000    0.0000   -0.0000    0.0000    0.0000    0.0004   -0.0002
       35 FE2    4d1-       0.0000    0.0000   -0.0000   -0.0000   -0.0000   -0.0000   -0.0000   -0.0000    0.0003   -0.0002
       36 FE2    3d0        0.0000    0.0000   -0.0000   -0.0000    0.0000   -0.0000    0.0011    0.0012   -0.0000    0.0000
       37 FE2    4d0        0.0000    0.0000    0.0000    0.0000   -0.0000   -0.0000    0.0004   -0.0002   -0.0000    0.0000
       38 FE2    3d1+      -0.0000   -0.0000   -0.0000    0.0000   -0.0000    0.0000   -0.0000   -0.0000    0.0002    0.0004
       39 FE2    4d1+      -0.0000   -0.0000    0.0000   -0.0000    0.0000    0.0000    0.0000    0.0000    0.0002    0.0003
       40 FE2    3d2+      -0.0000   -0.0000   -0.0000   -0.0000   -0.0000    0.0000   -0.0000   -0.0000    0.0000   -0.0000
       41 FE2    4d2+      -0.0000   -0.0000    0.0000    0.0000    0.0000    0.0000    0.0000    0.0000   -0.0000    0.0000
       42 FE2    4f3-      -0.0000    0.0000   -0.0000   -0.0000   -0.0000   -0.0000    0.0000   -0.0000   -0.0000   -0.0000
       43 FE2    4f2-       0.0000   -0.0000   -0.0000    0.0000    0.0000    0.0000   -0.0000    0.0000    0.0000    0.0000
       44 FE2    4f1-      -0.0000    0.0000    0.0007    0.0003   -0.0000   -0.0000    0.0000   -0.0000    0.0112   -0.0064
       45 FE2    4f0       -0.0000    0.0000   -0.0000   -0.0000   -0.0011   -0.0000    0.0000   -0.0211   -0.0000    0.0000
       46 FE2    4f1+       0.0000   -0.0000   -0.0003    0.0007    0.0000    0.0000   -0.0000    0.0000    0.0064    0.0112
       47 FE2    4f2+       0.0000   -0.0000   -0.0000   -0.0000    0.0000    0.0000   -0.0000    0.0000   -0.0000    0.0000
       48 FE2    4f3+      -0.0000    0.0000    0.0000   -0.0000   -0.0000   -0.0000    0.0000   -0.0000    0.0000   -0.0000
 
          Orbital           11        12        13        14        15        16        17        18        19        20    
          Energy           -1.8196   -1.3401   -0.6909   -0.6909   -0.5102   -0.5102   -0.3021   -0.1532   -0.1507   -0.1507
          Occ. No.          1.0000    1.0000    1.0000    1.0000    0.0000    0.0000    0.0000    0.0000    0.0000    0.0000
 
        1 O1     1s         0.0018    0.0000    0.0000    0.0000    0.0000   -0.0000   -0.0006   -0.0006    0.0000   -0.0000
        2 O1     2s         0.9974    0.0038    0.0000    0.0000    0.0000   -0.0000   -0.0069   -0.0071    0.0000   -0.0000
        3 O1     3s        -0.0468   -0.0029    0.0000    0.0000   -0.0000    0.0000    0.0035    0.0109   -0.0000    0.0000
        4 O1     2px        0.0000    0.0000    0.0001   -0.0000   -0.2250    0.9653   -0.0000   -0.0000   -0.0044    0.0011
        5 O1     3px       -0.0000   -0.0000   -0.0001    0.0000   -0.0300    0.1287   -0.0000   -0.0000    0.0067   -0.0017
        6 O1     2py       -0.0000   -0.0001    0.0000    0.0001    0.9653    0.2250    0.0000    0.0000   -0.0011   -0.0044
        7 O1     3py        0.0000    0.0000   -0.0000   -0.0001    0.1287    0.0300    0.0000    0.0000    0.0017    0.0067
        8 O1     2pz       -0.0040    0.9917   -0.0000   -0.0000    0.0001   -0.0000    0.0039   -0.0030    0.0000   -0.0000
        9 O1     3pz       -0.0015   -0.1281   -0.0000   -0.0000    0.0000   -0.0000   -0.0136   -0.0661    0.0000   -0.0000
       10 O1     3d2-      -0.0000   -0.0000    0.0000   -0.0000    0.0000   -0.0000    0.0000    0.0000    0.0000   -0.0000
       11 O1     3d1-      -0.0000    0.0000   -0.0000   -0.0000   -0.0014   -0.0003    0.0000    0.0000   -0.0001   -0.0003
       12 O1     3d0        0.0554   -0.0011   -0.0000   -0.0000   -0.0000    0.0000    0.0004    0.0008   -0.0000    0.0000
       13 O1     3d1+       0.0000   -0.0000   -0.0000    0.0000    0.0003   -0.0014   -0.0000   -0.0000   -0.0003    0.0001
       14 O1     3d2+      -0.0000   -0.0000   -0.0000   -0.0000    0.0000    0.0000    0.0000    0.0000   -0.0000   -0.0000
       15 FE2    1s        -0.0000   -0.0000   -0.0000   -0.0000    0.0000   -0.0000   -0.0000   -0.0000    0.0000   -0.0000
       16 FE2    2s        -0.0000   -0.0000    0.0000    0.0000    0.0000   -0.0000   -0.0001    0.0000   -0.0000    0.0000
       17 FE2    3s        -0.0000   -0.0001   -0.0000   -0.0000    0.0000   -0.0000   -0.0067    0.0009   -0.0000    0.0000
       18 FE2    4s        -0.0003   -0.0011   -0.0000   -0.0000    0.0000   -0.0000    0.9833   -0.1132    0.0000   -0.0000
       19 FE2    5s        -0.0007   -0.0012    0.0000    0.0000    0.0000   -0.0000    0.1462    0.0529   -0.0000    0.0000
       20 FE2    2px       -0.0000    0.0000   -0.0000    0.0000    0.0000   -0.0000   -0.0000   -0.0000   -0.0002    0.0001
       21 FE2    3px       -0.0000    0.0000   -0.0006    0.0002    0.0000   -0.0000    0.0000   -0.0000   -0.0066    0.0017
       22 FE2    4px        0.0000    0.0000    0.0134   -0.0049    0.0001   -0.0003    0.0000    0.0000    0.9604   -0.2454
       23 FE2    5px        0.0000    0.0000    0.0008   -0.0003    0.0000   -0.0001    0.0000    0.0000    0.1256   -0.0321
       24 FE2    2py        0.0000   -0.0000   -0.0000   -0.0000   -0.0000   -0.0000    0.0000    0.0000   -0.0001   -0.0002
       25 FE2    3py        0.0000   -0.0000   -0.0002   -0.0006   -0.0000   -0.0000   -0.0000    0.0000   -0.0017   -0.0066
       26 FE2    4py       -0.0000   -0.0000    0.0049    0.0134   -0.0003   -0.0001   -0.0000   -0.0001    0.2454    0.9604
       27 FE2    5py       -0.0000   -0.0000    0.0003    0.0008   -0.0001   -0.0000   -0.0000   -0.0000    0.0321    0.1256
       28 FE2    2pz       -0.0000   -0.0000    0.0000    0.0000    0.0000   -0.0000   -0.0000   -0.0002    0.0000   -0.0000
       29 FE2    3pz       -0.0000   -0.0000    0.0000    0.0000    0.0000   -0.0000   -0.0016   -0.0092    0.0000   -0.0000
       30 FE2    4pz       -0.0004   -0.0012   -0.0000   -0.0000    0.0000   -0.0000    0.0974    0.9761   -0.0000    0.0001
       31 FE2    5pz       -0.0002   -0.0004   -0.0000   -0.0000    0.0000   -0.0000    0.0151    0.1287   -0.0000    0.0000
       32 FE2    3d2-       0.0000   -0.0000    0.0001   -0.0000    0.0000   -0.0000   -0.0000   -0.0000   -0.0000    0.0000
       33 FE2    4d2-      -0.0000   -0.0000    0.0000   -0.0000    0.0000   -0.0000   -0.0000   -0.0000   -0.0000    0.0000
       34 FE2    3d1-      -0.0000    0.0000    0.3430    0.9364   -0.0007   -0.0002    0.0000    0.0000   -0.0037   -0.0144
       35 FE2    4d1-      -0.0000   -0.0000    0.0250    0.0683   -0.0001   -0.0000    0.0000    0.0000    0.0018    0.0069
       36 FE2    3d0       -0.0000   -0.0002   -0.0000   -0.0002    0.0000   -0.0000    0.0037    0.0287   -0.0000    0.0000
       37 FE2    4d0       -0.0001   -0.0004   -0.0000   -0.0000    0.0000   -0.0000    0.0003    0.0194   -0.0000    0.0000
       38 FE2    3d1+       0.0000   -0.0000    0.9364   -0.3430    0.0002   -0.0007   -0.0000   -0.0000   -0.0144    0.0037
       39 FE2    4d1+       0.0000    0.0000    0.0683   -0.0250    0.0000   -0.0001   -0.0000   -0.0000    0.0069   -0.0018
       40 FE2    3d2+       0.0000   -0.0000   -0.0001   -0.0001    0.0000    0.0000   -0.0000   -0.0000    0.0000    0.0000
       41 FE2    4d2+      -0.0000   -0.0000   -0.0000   -0.0000    0.0000    0.0000   -0.0000   -0.0000    0.0000    0.0000
       42 FE2    4f3-       0.0000    0.0000   -0.0000    0.0000    0.0000    0.0000   -0.0000   -0.0000   -0.0000   -0.0000
       43 FE2    4f2-      -0.0000   -0.0000    0.0000   -0.0000    0.0000   -0.0000    0.0000    0.0000    0.0000    0.0000
       44 FE2    4f1-       0.0000   -0.0000    0.0003    0.0008    0.0000    0.0000   -0.0000   -0.0000    0.0003    0.0013
       45 FE2    4f0       -0.0000   -0.0000   -0.0000   -0.0000   -0.0000    0.0000   -0.0002   -0.0015    0.0000   -0.0000
       46 FE2    4f1+      -0.0000    0.0000    0.0008   -0.0003   -0.0000    0.0000    0.0000    0.0000    0.0013   -0.0003
       47 FE2    4f2+      -0.0000   -0.0000   -0.0000   -0.0000    0.0000    0.0000    0.0000    0.0000   -0.0000   -0.0000
       48 FE2    4f3+       0.0000    0.0000    0.0000    0.0000    0.0000    0.0000   -0.0000   -0.0000    0.0000   -0.0000
 
          Orbital           21        22        23    
          Energy           -0.0654   -0.0107   -0.0107
          Occ. No.          0.0000    0.0000    0.0000
 
        1 O1     1s        -0.0013   -0.0000   -0.0000
        2 O1     2s        -0.0146   -0.0000   -0.0000
        3 O1     3s         0.0275   -0.0000   -0.0000
        4 O1     2px       -0.0000   -0.0000    0.0000
        5 O1     3px       -0.0000    0.0000   -0.0000
        6 O1     2py        0.0000   -0.0000   -0.0000
        7 O1     3py        0.0000    0.0000    0.0000
        8 O1     2pz       -0.0079    0.0000   -0.0000
        9 O1     3pz       -0.1487    0.0000    0.0000
       10 O1     3d2-       0.0000   -0.0000    0.0000
       11 O1     3d1-       0.0000   -0.0000   -0.0000
       12 O1     3d0        0.0011   -0.0000   -0.0000
       13 O1     3d1+      -0.0000   -0.0000    0.0000
       14 O1     3d2+       0.0000    0.0000    0.0000
       15 FE2    1s        -0.0000    0.0000    0.0000
       16 FE2    2s         0.0001    0.0000    0.0000
       17 FE2    3s         0.0063    0.0000    0.0000
       18 FE2    4s        -0.1469    0.0000   -0.0000
       19 FE2    5s         0.9586    0.0000    0.0000
       20 FE2    2px        0.0000   -0.0000    0.0000
       21 FE2    3px       -0.0000   -0.0000    0.0000
       22 FE2    4px        0.0000   -0.0000    0.0000
       23 FE2    5px        0.0000   -0.0000    0.0000
       24 FE2    2py       -0.0000   -0.0000   -0.0000
       25 FE2    3py        0.0000   -0.0000   -0.0000
       26 FE2    4py       -0.0000   -0.0000   -0.0000
       27 FE2    5py       -0.0000   -0.0000   -0.0000
       28 FE2    2pz        0.0000    0.0000    0.0000
       29 FE2    3pz        0.0012    0.0000    0.0000
       30 FE2    4pz       -0.0960    0.0000    0.0000
       31 FE2    5pz       -0.0070    0.0000    0.0000
       32 FE2    3d2-      -0.0000   -0.2541    0.9192
       33 FE2    4d2-      -0.0000   -0.0802    0.2900
       34 FE2    3d1-       0.0000    0.0001    0.0000
       35 FE2    4d1-       0.0000    0.0000    0.0000
       36 FE2    3d0        0.0165   -0.0000   -0.0000
       37 FE2    4d0        0.0126   -0.0000   -0.0000
       38 FE2    3d1+      -0.0000    0.0001   -0.0001
       39 FE2    4d1+      -0.0000    0.0000   -0.0000
       40 FE2    3d2+       0.0000    0.9192    0.2541
       41 FE2    4d2+      -0.0000    0.2900    0.0802
       42 FE2    4f3-       0.0000    0.0000   -0.0000
       43 FE2    4f2-      -0.0000   -0.0002    0.0007
       44 FE2    4f1-       0.0000    0.0000    0.0000
       45 FE2    4f0        0.0003   -0.0000   -0.0000
       46 FE2    4f1+      -0.0000    0.0000   -0.0000
       47 FE2    4f2+      -0.0000    0.0007    0.0002
       48 FE2    4f3+       0.0000   -0.0000   -0.0000
--
 
 
++    Molecular charges:
      ------------------
 
      Mulliken charges per centre and basis function type
      ---------------------------------------------------
 
                            O1                      FE2   
                     alpha        beta       alpha        beta
      1s           1.0000      1.0000      1.0000      1.0000
      2s           0.9923      0.9948      1.0000      1.0000
      2px          0.9796      0.0000      1.0000      1.0000
      2pz          0.0000      0.9836      1.0000      1.0000
      2py          0.9796      0.0000      1.0000      1.0000
      3s           0.0051      0.0022      0.9999      0.9999
      3px          0.0204     -0.0000      0.9999      0.9997
      3pz         -0.0000      0.0164      0.9999      0.9993
      3py          0.0204     -0.0000      0.9999      0.9997
      4s           0.0000      0.0000      0.0002      0.0001
      3d2+         0.0000      0.0000      1.0000      0.0000
      3d1+         0.0000      0.0000      0.9992      0.9945
      3d0          0.0026      0.0031      0.9994      0.0000
      3d1-         0.0000      0.0000      0.9992      0.9945
      3d2-         0.0000      0.0000      1.0000      0.0000
      4px          0.0000      0.0000      0.0001      0.0003
      4pz          0.0000      0.0000      0.0001      0.0001
      4py          0.0000      0.0000      0.0001      0.0003
      5s           0.0000      0.0000      0.0001      0.0000
      4d2+         0.0000      0.0000      0.0000      0.0000
      4d1+         0.0000      0.0000      0.0007      0.0053
      4d0          0.0000      0.0000      0.0003      0.0000
      4d1-         0.0000      0.0000      0.0007      0.0053
      4d2-         0.0000      0.0000      0.0000      0.0000
      5px          0.0000      0.0000      0.0000      0.0001
      5pz          0.0000      0.0000      0.0000      0.0001
      5py          0.0000      0.0000      0.0000      0.0001
      4f3+         0.0000      0.0000      0.0000      0.0000
      4f2+         0.0000      0.0000      0.0000      0.0000
      4f1+         0.0000      0.0000      0.0001      0.0002
      4f0          0.0000      0.0000      0.0000      0.0004
      4f1-         0.0000      0.0000      0.0001      0.0002
      4f2-         0.0000      0.0000      0.0000      0.0000
      4f3-         0.0000      0.0000      0.0000      0.0000
      Total        4.0000      3.0000     14.0000     11.0000
      Total              7.0000                 25.0000
 
      Charge            1.0000                  1.0000
 
      Total electronic charge=   32.000000
 
      Total            charge=    2.000000
--
 
 
  Input file to MOLDEN was generated!
 
 
++    Static properties:
      ------------------
 
 
      LoProp Charges per center
 

                   O1       FE2   
      Nuclear      8.0000  26.0000
      Electronic  -6.9999 -25.0001
 
      Total        1.0001   0.9999
--
 
 
++    Natural Bond Order analysis
      ---------------------------
      Based on LoProp computed density
      -------------------------------------------------------------------------------------
      Atom A       Atom B       Bond Order
      -------------------------------------------------------------------------------------
      NBO located     19.999 core electrons.
      NBO located      5.992 lone pair electrons.
      NBO located      1.000 non-bonded electrons on atom O1        
      NBO located      1.000 non-bonded electrons on atom O1        
      NBO located      1.000 non-bonded electrons on atom O1        
      NBO located      1.000 non-bonded electrons on atom FE2       
      NBO located      1.000 non-bonded electrons on atom FE2       
      NBO located      1.000 non-bonded electrons on atom FE2       
      The remaining    0.009 electrons are to be considered as diffuse
--
 
 
++    Molecular orbitals:
      -------------------
 
      Title: Natural orbitals

      Molecular orbitals for symmetry species 1: a  
 
          Orbital            1         2         3         4         5         6         7         8         9        10    
          Energy         -263.8643  -32.2692  -21.4574  -27.5500  -27.5751  -27.5750   -4.7597   -3.0502   -3.0610   -3.0611
          Occ. No.          2.0000    2.0000    2.0000    2.0000    2.0000    2.0000    2.0000    1.9998    1.9998    1.9998
 
        1 O1     1s         0.0000   -0.0041   -0.9987    0.0408   -0.0000   -0.0000    0.0039    0.0001   -0.0000   -0.0000
        2 O1     2s        -0.0000    0.0001    0.0301   -0.0012    0.0000    0.0000    0.0000    0.0002   -0.0000   -0.0000
        3 O1     3s        -0.0000   -0.0000   -0.0013    0.0001   -0.0000   -0.0000    0.0001    0.0001   -0.0000   -0.0000
        4 O1     2px        0.0000   -0.0000    0.0000   -0.0000    0.0000   -0.0000    0.0000   -0.0000   -0.0000    0.0000
        5 O1     3px        0.0000    0.0000   -0.0000    0.0000    0.0000   -0.0000    0.0000   -0.0000   -0.0000    0.0000
        6 O1     2py       -0.0000    0.0000   -0.0000    0.0000   -0.0000   -0.0000   -0.0000    0.0000    0.0000    0.0000
        7 O1     3py       -0.0000   -0.0000    0.0000   -0.0000   -0.0000   -0.0000   -0.0000    0.0000    0.0000    0.0000
        8 O1     2pz        0.0000    0.0000   -0.0002    0.0000   -0.0000   -0.0000   -0.0001   -0.0001    0.0000    0.0000
        9 O1     3pz        0.0000    0.0000   -0.0000   -0.0000   -0.0000   -0.0000   -0.0002   -0.0001    0.0000    0.0000
       10 O1     3d2-       0.0000    0.0000   -0.0000    0.0000   -0.0000    0.0000   -0.0000   -0.0000    0.0000   -0.0000
       11 O1     3d1-       0.0000    0.0000   -0.0000    0.0000    0.0000    0.0000    0.0000   -0.0000   -0.0000   -0.0000
       12 O1     3d0       -0.0000   -0.0000    0.0000   -0.0000    0.0000    0.0000    0.0000    0.0000   -0.0000   -0.0000
       13 O1     3d1+      -0.0000   -0.0000    0.0000   -0.0000   -0.0000    0.0000   -0.0000    0.0000    0.0000   -0.0000
       14 O1     3d2+       0.0000   -0.0000   -0.0000    0.0000   -0.0000    0.0000    0.0000   -0.0000    0.0000    0.0000
       15 FE2    1s         1.0000   -0.0001    0.0000   -0.0000    0.0000    0.0000    0.0002    0.0000   -0.0000   -0.0000
       16 FE2    2s         0.0001    0.9942   -0.0036    0.0019    0.0000    0.0000    0.1071    0.0000    0.0000    0.0000
       17 FE2    3s        -0.0002   -0.1071    0.0045    0.0037    0.0000    0.0000    0.9942   -0.0020    0.0000    0.0000
       18 FE2    4s        -0.0000   -0.0007    0.0000   -0.0000    0.0000    0.0000    0.0068    0.0007   -0.0000   -0.0000
       19 FE2    5s         0.0000    0.0005   -0.0000    0.0000   -0.0000   -0.0000   -0.0050   -0.0004    0.0000    0.0000
       20 FE2    2px       -0.0000    0.0000   -0.0000   -0.0000   -0.7046    0.7067    0.0000   -0.0000   -0.0475    0.0434
       21 FE2    3px       -0.0000    0.0000    0.0000    0.0000    0.0454   -0.0456    0.0000   -0.0000   -0.7364    0.6730
       22 FE2    4px        0.0000   -0.0000   -0.0000    0.0000    0.0002   -0.0002   -0.0000   -0.0000   -0.0040    0.0037
       23 FE2    5px        0.0000   -0.0000   -0.0000   -0.0000   -0.0002    0.0002   -0.0000    0.0000    0.0049   -0.0045
       24 FE2    2py        0.0000   -0.0000    0.0000    0.0001    0.7067    0.7046   -0.0000    0.0000    0.0434    0.0475
       25 FE2    3py        0.0000   -0.0000   -0.0000   -0.0000   -0.0456   -0.0455   -0.0000    0.0001    0.6730    0.7364
       26 FE2    4py       -0.0000    0.0000   -0.0000   -0.0000   -0.0002   -0.0002    0.0000    0.0000    0.0037    0.0040
       27 FE2    5py       -0.0000    0.0000    0.0000    0.0000    0.0002    0.0002    0.0000   -0.0000   -0.0045   -0.0049
       28 FE2    2pz        0.0000   -0.0013    0.0408    0.9971   -0.0001   -0.0000   -0.0039    0.0638   -0.0000   -0.0000
       29 FE2    3pz       -0.0000   -0.0002   -0.0025   -0.0637    0.0000    0.0000    0.0023    0.9978   -0.0001   -0.0001
       30 FE2    4pz        0.0000   -0.0000   -0.0000   -0.0004    0.0000    0.0000    0.0002    0.0082   -0.0000   -0.0000
       31 FE2    5pz       -0.0000    0.0000    0.0000    0.0003   -0.0000   -0.0000   -0.0001   -0.0078    0.0000    0.0000
       32 FE2    3d2-       0.0000   -0.0000   -0.0000    0.0000    0.0000   -0.0000   -0.0000   -0.0000    0.0000   -0.0000
       33 FE2    4d2-       0.0000   -0.0000   -0.0000   -0.0000    0.0000   -0.0000   -0.0000   -0.0000    0.0000   -0.0000
       34 FE2    3d1-      -0.0000    0.0000    0.0000   -0.0000   -0.0001   -0.0001    0.0000    0.0000   -0.0149   -0.0163
       35 FE2    4d1-      -0.0000    0.0000    0.0000    0.0000   -0.0000   -0.0000    0.0000    0.0000   -0.0006   -0.0007
       36 FE2    3d0       -0.0000   -0.0001    0.0000   -0.0000    0.0000    0.0000    0.0010    0.0012    0.0000    0.0000
       37 FE2    4d0        0.0000   -0.0000    0.0000   -0.0000    0.0000    0.0000    0.0024    0.0000    0.0000    0.0000
       38 FE2    3d1+       0.0000   -0.0000   -0.0000    0.0000    0.0001   -0.0001   -0.0000   -0.0000    0.0163   -0.0149
       39 FE2    4d1+       0.0000   -0.0000   -0.0000   -0.0000    0.0000   -0.0000   -0.0000   -0.0000    0.0007   -0.0006
       40 FE2    3d2+       0.0000   -0.0000   -0.0000    0.0000    0.0000    0.0000   -0.0000   -0.0000    0.0000    0.0000
       41 FE2    4d2+       0.0000   -0.0000   -0.0000   -0.0000    0.0000    0.0000   -0.0000   -0.0000    0.0000    0.0000
       42 FE2    4f3-      -0.0000    0.0000   -0.0000    0.0000   -0.0000   -0.0000    0.0000   -0.0000   -0.0000   -0.0000
       43 FE2    4f2-       0.0000   -0.0000   -0.0000   -0.0000   -0.0000    0.0000   -0.0000    0.0000   -0.0000    0.0000
       44 FE2    4f1-      -0.0000    0.0000    0.0000    0.0000    0.0001    0.0001    0.0000   -0.0000    0.0016    0.0018
       45 FE2    4f0        0.0000    0.0000    0.0000    0.0002   -0.0000   -0.0000    0.0000   -0.0115   -0.0000   -0.0000
       46 FE2    4f1+       0.0000   -0.0000   -0.0000   -0.0000   -0.0001    0.0001   -0.0000    0.0000   -0.0018    0.0016
       47 FE2    4f2+       0.0000   -0.0000   -0.0000   -0.0000   -0.0000   -0.0000   -0.0000    0.0000   -0.0000   -0.0000
       48 FE2    4f3+      -0.0000    0.0000   -0.0000    0.0000    0.0000   -0.0000    0.0000   -0.0000   -0.0000    0.0000
 
          Orbital           11        12        13        14        15        16        17        18        19        20    
          Energy           -0.7423   -0.7423   -1.9164   -0.6383   -0.9215   -0.9215   -0.3985   -0.3985   -0.6382    1.4371
          Occ. No.          1.9989    1.9989    1.9940    1.0001    1.0000    1.0000    1.0000    1.0000    0.9999    0.0060
 
        1 O1     1s        -0.0000   -0.0000    0.0301   -0.0000    0.0000   -0.0000    0.0000    0.0000   -0.0000    0.0001
        2 O1     2s        -0.0000   -0.0000    0.9978   -0.0039    0.0000   -0.0000    0.0000    0.0000    0.0034    0.0112
        3 O1     3s         0.0000    0.0000   -0.0591    0.0020    0.0000   -0.0000    0.0000    0.0000   -0.0022    0.2236
        4 O1     2px        0.0001    0.0000    0.0000    0.0012    0.2026   -0.9688   -0.0000    0.0000    0.0012   -0.0000
        5 O1     3px       -0.0002   -0.0000   -0.0000   -0.0002   -0.0293    0.1399    0.0000    0.0000   -0.0002   -0.0000
        6 O1     2py        0.0000   -0.0001   -0.0000   -0.0043   -0.9688   -0.2026   -0.0000    0.0000   -0.0044    0.0000
        7 O1     3py       -0.0000    0.0002    0.0000    0.0006    0.1399    0.0293   -0.0000    0.0000    0.0006    0.0000
        8 O1     2pz        0.0000    0.0000   -0.0055   -0.7009   -0.0001    0.0000   -0.0000   -0.0000    0.7016    0.0003
        9 O1     3pz        0.0000    0.0000   -0.0008    0.0914    0.0000   -0.0000   -0.0000   -0.0000   -0.0898   -0.0103
       10 O1     3d2-       0.0000    0.0000   -0.0000    0.0000    0.0000   -0.0000    0.0000    0.0000    0.0000   -0.0000
       11 O1     3d1-      -0.0000    0.0000   -0.0000    0.0000    0.0016    0.0003    0.0000   -0.0000    0.0000   -0.0002
       12 O1     3d0        0.0000    0.0000    0.0022    0.0007    0.0000   -0.0000    0.0000    0.0000   -0.0007    0.9747
       13 O1     3d1+      -0.0000   -0.0000    0.0000   -0.0000   -0.0003    0.0016   -0.0000   -0.0000   -0.0000    0.0000
       14 O1     3d2+      -0.0000    0.0000   -0.0000    0.0000    0.0000    0.0000    0.0000   -0.0000    0.0000   -0.0000
       15 FE2    1s        -0.0000   -0.0000   -0.0000    0.0000    0.0000   -0.0000   -0.0000    0.0000   -0.0000   -0.0000
       16 FE2    2s         0.0000    0.0000    0.0000   -0.0000    0.0000   -0.0000   -0.0000    0.0000   -0.0000   -0.0000
       17 FE2    3s         0.0000    0.0000   -0.0001   -0.0006    0.0000   -0.0000   -0.0000    0.0000   -0.0007   -0.0000
       18 FE2    4s         0.0000    0.0000   -0.0002   -0.0087    0.0001   -0.0000   -0.0000    0.0000   -0.0103   -0.0018
       19 FE2    5s        -0.0000   -0.0000   -0.0005    0.0062   -0.0000    0.0000    0.0000   -0.0000    0.0044   -0.0039
       20 FE2    2px        0.0016    0.0002    0.0000    0.0000    0.0000   -0.0000    0.0000    0.0000    0.0000    0.0000
       21 FE2    3px        0.0219    0.0021    0.0000    0.0000    0.0000   -0.0000    0.0000    0.0000    0.0000   -0.0000
       22 FE2    4px        0.0116    0.0011    0.0000    0.0000    0.0001   -0.0003   -0.0000   -0.0000    0.0000    0.0000
       23 FE2    5px        0.0005    0.0000   -0.0000    0.0000    0.0000   -0.0002   -0.0000   -0.0000    0.0000    0.0000
       24 FE2    2py        0.0002   -0.0016   -0.0000   -0.0000   -0.0000   -0.0000   -0.0000    0.0000   -0.0000   -0.0000
       25 FE2    3py        0.0021   -0.0219   -0.0000   -0.0000   -0.0000   -0.0000   -0.0000    0.0000   -0.0000    0.0000
       26 FE2    4py        0.0011   -0.0116   -0.0000   -0.0000   -0.0003   -0.0001    0.0000   -0.0000   -0.0000   -0.0000
       27 FE2    5py        0.0000   -0.0005    0.0000   -0.0000   -0.0002   -0.0000    0.0000   -0.0000   -0.0000   -0.0000
       28 FE2    2pz        0.0000    0.0000    0.0000   -0.0000    0.0000   -0.0000    0.0000    0.0000   -0.0000   -0.0000
       29 FE2    3pz        0.0000    0.0000   -0.0001   -0.0009    0.0000   -0.0000    0.0000    0.0000   -0.0009   -0.0000
       30 FE2    4pz        0.0000    0.0000   -0.0002    0.0079   -0.0001    0.0000   -0.0000   -0.0000    0.0062   -0.0023
       31 FE2    5pz        0.0000    0.0000   -0.0002    0.0006   -0.0000    0.0000   -0.0000   -0.0000   -0.0000   -0.0013
       32 FE2    3d2-       0.0001    0.0000    0.0000   -0.0000   -0.0000   -0.0000    0.9647    0.2633   -0.0000   -0.0000
       33 FE2    4d2-       0.0000    0.0000    0.0000   -0.0000   -0.0000    0.0000    0.0030    0.0008   -0.0000    0.0000
       34 FE2    3d1-       0.0971   -0.9937   -0.0000    0.0001    0.0001    0.0000    0.0000   -0.0001    0.0001    0.0000
       35 FE2    4d1-       0.0049   -0.0497   -0.0000    0.0000   -0.0002   -0.0000   -0.0000   -0.0000    0.0000   -0.0000
       36 FE2    3d0        0.0000    0.0002   -0.0000    0.7070   -0.0064    0.0004   -0.0000   -0.0000    0.7068   -0.0007
       37 FE2    4d0        0.0000    0.0000   -0.0001    0.0111   -0.0001    0.0000    0.0000   -0.0000    0.0106   -0.0010
       38 FE2    3d1+       0.9937    0.0971    0.0000   -0.0000   -0.0000    0.0001   -0.0001   -0.0001   -0.0000   -0.0000
       39 FE2    4d1+       0.0497    0.0049    0.0000   -0.0000    0.0000   -0.0002    0.0000   -0.0000   -0.0000    0.0000
       40 FE2    3d2+      -0.0000    0.0001    0.0000   -0.0000   -0.0000   -0.0000    0.2633   -0.9647   -0.0000   -0.0000
       41 FE2    4d2+      -0.0000    0.0000    0.0000   -0.0000   -0.0000   -0.0000    0.0008   -0.0030   -0.0000    0.0000
       42 FE2    4f3-      -0.0000    0.0000    0.0000    0.0000   -0.0000    0.0000   -0.0000   -0.0000    0.0000    0.0000
       43 FE2    4f2-       0.0000    0.0000   -0.0000   -0.0000    0.0000   -0.0000    0.0006    0.0002   -0.0000   -0.0000
       44 FE2    4f1-       0.0001   -0.0008   -0.0000    0.0000   -0.0000   -0.0000    0.0000   -0.0000    0.0000    0.0000
       45 FE2    4f0        0.0000    0.0000    0.0000    0.0006   -0.0000    0.0000   -0.0000   -0.0000    0.0005    0.0000
       46 FE2    4f1+       0.0008    0.0001    0.0000   -0.0000    0.0000   -0.0000   -0.0000   -0.0000   -0.0000   -0.0000
       47 FE2    4f2+      -0.0000    0.0000    0.0000   -0.0000    0.0000   -0.0000    0.0002   -0.0006   -0.0000   -0.0000
       48 FE2    4f3+       0.0000   -0.0000    0.0000    0.0000   -0.0000    0.0000   -0.0000    0.0000    0.0000    0.0000
 
          Orbital           21        22        23        24        25        26        27        28        29        30    
          Energy            0.6989    0.6989    3.5238    3.5238    3.4805    0.5493    2.0010    2.0010    2.0396    0.4370
          Occ. No.          0.0011    0.0011    0.0002    0.0002    0.0002    0.0000    0.0000    0.0000    0.0000    0.0000
 
        1 O1     1s         0.0000    0.0000    0.0000   -0.0000   -0.0001    0.0005    0.0000    0.0000   -0.0009   -0.0006
        2 O1     2s         0.0000    0.0000    0.0000   -0.0000   -0.0011    0.0071    0.0000    0.0000   -0.0124   -0.0600
        3 O1     3s        -0.0000   -0.0000    0.0000   -0.0000   -0.0015    0.0136    0.0000    0.0000   -0.0408   -0.9685
        4 O1     2px       -0.0000    0.0002    0.0001    0.0001    0.0000   -0.0000    0.0016   -0.0018    0.0000   -0.0000
        5 O1     3px       -0.0010    0.0032    0.0002    0.0002    0.0000   -0.0000    0.0078   -0.0086    0.0000   -0.0000
        6 O1     2py        0.0002    0.0000   -0.0001    0.0001   -0.0000    0.0000   -0.0018   -0.0016   -0.0000    0.0000
        7 O1     3py        0.0032    0.0010   -0.0002    0.0002   -0.0000    0.0000   -0.0086   -0.0078   -0.0000    0.0000
        8 O1     2pz       -0.0000   -0.0000   -0.0000    0.0000    0.0006   -0.0100   -0.0000   -0.0000    0.0137   -0.0074
        9 O1     3pz        0.0000    0.0000    0.0000   -0.0000    0.0016   -0.0346   -0.0000   -0.0000    0.0577   -0.0502
       10 O1     3d2-      -0.0000    0.0000    0.0000   -0.0000    0.0000   -0.0000   -0.0000    0.0000   -0.0000   -0.0000
       11 O1     3d1-      -0.0002   -0.0001    0.0000   -0.0000    0.0000   -0.0000    0.0008    0.0007   -0.0000   -0.0000
       12 O1     3d0        0.0000    0.0000    0.0000   -0.0000   -0.0006    0.0041    0.0000    0.0000    0.0009    0.2204
       13 O1     3d1+       0.0001   -0.0002   -0.0000   -0.0000   -0.0000    0.0000   -0.0007    0.0008    0.0000    0.0000
       14 O1     3d2+      -0.0000   -0.0000   -0.0000    0.0000    0.0000   -0.0000   -0.0000   -0.0000   -0.0000   -0.0000
       15 FE2    1s        -0.0000   -0.0000   -0.0000    0.0000    0.0000   -0.0000   -0.0000   -0.0000    0.0000   -0.0000
       16 FE2    2s        -0.0000   -0.0000    0.0000   -0.0000   -0.0000    0.0002   -0.0000   -0.0000    0.0000   -0.0000
       17 FE2    3s         0.0000    0.0000    0.0000   -0.0000    0.0000   -0.0019   -0.0000   -0.0000    0.0003    0.0004
       18 FE2    4s        -0.0001   -0.0000   -0.0000    0.0000   -0.0031    0.3333   -0.0000   -0.0000   -0.0003    0.0258
       19 FE2    5s         0.0000    0.0000    0.0000   -0.0000    0.0011   -0.3344   -0.0000   -0.0000    0.0169    0.1108
       20 FE2    2px       -0.0000    0.0000   -0.0002   -0.0002   -0.0000    0.0000   -0.0000    0.0000   -0.0000   -0.0000
       21 FE2    3px        0.0003   -0.0008   -0.0035   -0.0034   -0.0000    0.0000   -0.0046    0.0050   -0.0000    0.0000
       22 FE2    4px       -0.0369    0.1172    0.1527    0.1451    0.0000   -0.0000    0.1417   -0.1561    0.0000   -0.0000
       23 FE2    5px       -0.0025    0.0080   -0.1545   -0.1468   -0.0000   -0.0000   -0.6336    0.6982   -0.0000    0.0000
       24 FE2    2py        0.0000    0.0000    0.0002   -0.0002    0.0000   -0.0000    0.0000    0.0000    0.0000    0.0000
       25 FE2    3py       -0.0008   -0.0003    0.0034   -0.0035    0.0000   -0.0000    0.0050    0.0046    0.0000   -0.0000
       26 FE2    4py        0.1172    0.0369   -0.1451    0.1527   -0.0000    0.0000   -0.1561   -0.1417   -0.0000    0.0000
       27 FE2    5py        0.0080    0.0025    0.1468   -0.1545    0.0000    0.0000    0.6982    0.6336    0.0001   -0.0000
       28 FE2    2pz        0.0000    0.0000   -0.0000    0.0000    0.0006   -0.0000    0.0000    0.0000    0.0000    0.0000
       29 FE2    3pz        0.0000    0.0000   -0.0000    0.0000    0.0145   -0.0001   -0.0000   -0.0000    0.0057   -0.0003
       30 FE2    4pz       -0.0000   -0.0000    0.0000   -0.0000   -0.2449   -0.0299    0.0000    0.0000   -0.0987    0.0471
       31 FE2    5pz       -0.0000   -0.0000   -0.0000    0.0000    0.2102   -0.0018   -0.0001   -0.0000    0.9676   -0.0092
       32 FE2    3d2-       0.0000   -0.0000    0.0000    0.0000   -0.0000   -0.0000    0.0000   -0.0000   -0.0000   -0.0000
       33 FE2    4d2-      -0.0000    0.0001   -0.0000   -0.0000    0.0000    0.0000   -0.0000    0.0000    0.0000    0.0000
       34 FE2    3d1-      -0.0486   -0.0153    0.0009   -0.0009    0.0000    0.0000    0.0007    0.0006    0.0000    0.0000
       35 FE2    4d1-       0.9452    0.2977    0.0245   -0.0258   -0.0000   -0.0001    0.0114    0.0103   -0.0000   -0.0000
       36 FE2    3d0        0.0000    0.0000   -0.0000    0.0000    0.0013    0.0206   -0.0000   -0.0000    0.0012    0.0003
       37 FE2    4d0       -0.0002   -0.0000   -0.0000    0.0000    0.0185   -0.8823   -0.0000   -0.0000   -0.0039   -0.0279
       38 FE2    3d1+       0.0153   -0.0486   -0.0009   -0.0009   -0.0000   -0.0000   -0.0006    0.0007   -0.0000   -0.0000
       39 FE2    4d1+      -0.2977    0.9452   -0.0258   -0.0245    0.0000    0.0000   -0.0103    0.0114    0.0000    0.0000
       40 FE2    3d2+       0.0000    0.0000    0.0000    0.0000   -0.0000    0.0000    0.0000    0.0000   -0.0000   -0.0000
       41 FE2    4d2+      -0.0001   -0.0001   -0.0000    0.0000    0.0000    0.0000   -0.0000   -0.0000    0.0000    0.0000
       42 FE2    4f3-      -0.0000   -0.0000    0.0000   -0.0000    0.0000    0.0000   -0.0000   -0.0000   -0.0000    0.0000
       43 FE2    4f2-      -0.0000    0.0000    0.0001    0.0001   -0.0000    0.0000   -0.0000    0.0000    0.0000   -0.0000
       44 FE2    4f1-       0.0111    0.0035   -0.6568    0.6910    0.0002   -0.0000    0.1910    0.1733   -0.0001    0.0000
       45 FE2    4f0       -0.0000   -0.0000    0.0002   -0.0001    0.9462    0.0113   -0.0001   -0.0000   -0.2403    0.0154
       46 FE2    4f1+      -0.0035    0.0111    0.6910    0.6568   -0.0000    0.0000   -0.1733    0.1910    0.0000   -0.0000
       47 FE2    4f2+      -0.0000   -0.0000    0.0001   -0.0002   -0.0000    0.0000   -0.0000   -0.0000    0.0000   -0.0000
       48 FE2    4f3+       0.0000   -0.0000   -0.0000   -0.0000    0.0000    0.0000    0.0000   -0.0000   -0.0000    0.0000
 
          Orbital           31        32        33        34        35        36        37        38        39        40    
          Energy            0.0652   -0.2315   -0.0108   -0.0108    0.0408    0.0970    0.0986    0.0986    0.7358    0.7382
          Occ. No.          0.0000    0.0000    0.0000    0.0000    0.0000    0.0000    0.0000    0.0000    0.0000    0.0000
 
        1 O1     1s        -0.0007    0.0012    0.0000   -0.0000    0.0003    0.0004    0.0000   -0.0000    0.0000    0.0000
        2 O1     2s        -0.0051    0.0107    0.0000   -0.0000    0.0009    0.0052    0.0000   -0.0000    0.0000    0.0000
        3 O1     3s         0.0521   -0.0562   -0.0000   -0.0000   -0.0573    0.0266   -0.0000   -0.0000    0.0000    0.0000
        4 O1     2px       -0.0000   -0.0000    0.0001   -0.0005   -0.0000   -0.0000    0.1374    0.0393   -0.0000   -0.0001
        5 O1     3px        0.0000   -0.0000    0.0021   -0.0086   -0.0000   -0.0000    0.9516    0.2723   -0.0002   -0.0005
        6 O1     2py        0.0000    0.0000   -0.0005   -0.0001   -0.0000   -0.0000    0.0393   -0.1374    0.0000   -0.0000
        7 O1     3py       -0.0000    0.0000   -0.0091   -0.0020   -0.0001   -0.0002    0.2723   -0.9516    0.0001   -0.0000
        8 O1     2pz        0.0137   -0.0155   -0.0000    0.0000    0.0804   -0.1015   -0.0000    0.0000   -0.0000   -0.0000
        9 O1     3pz        0.0619   -0.0324    0.0000    0.0001    0.6447   -0.7600   -0.0000    0.0001   -0.0000   -0.0000
       10 O1     3d2-       0.0000    0.0000   -0.0000    0.0000    0.0000   -0.0000   -0.0003   -0.0001    0.0029    0.0549
       11 O1     3d1-       0.0000   -0.0000    0.0001    0.0000   -0.0000   -0.0002   -0.0001    0.0027   -0.0001   -0.0001
       12 O1     3d0       -0.0169    0.0252    0.0000    0.0000    0.0227   -0.0091    0.0000    0.0000   -0.0000   -0.0000
       13 O1     3d1+      -0.0000    0.0000   -0.0000    0.0001    0.0000    0.0000   -0.0017   -0.0008   -0.0002   -0.0001
       14 O1     3d2+       0.0000   -0.0000    0.0000   -0.0000   -0.0000    0.0000    0.0001    0.0001   -0.0143    0.0202
       15 FE2    1s         0.0000   -0.0000    0.0000    0.0000    0.0000   -0.0000   -0.0000    0.0000   -0.0000   -0.0000
       16 FE2    2s         0.0001   -0.0000    0.0000    0.0000    0.0002   -0.0002   -0.0000    0.0000   -0.0000   -0.0000
       17 FE2    3s         0.0084    0.0022    0.0000    0.0000    0.0005   -0.0011   -0.0000    0.0000   -0.0000    0.0000
       18 FE2    4s        -0.5394   -0.7657   -0.0001    0.0000    0.1145    0.0066    0.0000   -0.0000   -0.0000   -0.0000
       19 FE2    5s         0.6971   -0.6322   -0.0001    0.0000    0.0554    0.0054    0.0000   -0.0000   -0.0000   -0.0000
       20 FE2    2px        0.0000    0.0000    0.0000   -0.0000    0.0000    0.0000   -0.0000   -0.0000    0.0000    0.0000
       21 FE2    3px       -0.0000    0.0000   -0.0007    0.0032   -0.0000    0.0000   -0.0001   -0.0000    0.0000    0.0000
       22 FE2    4px        0.0000   -0.0000    0.2140   -0.9218    0.0001   -0.0000   -0.0214   -0.0063    0.0000   -0.0000
       23 FE2    5px        0.0000   -0.0000    0.0580   -0.2498    0.0000   -0.0000   -0.0058   -0.0017    0.0000   -0.0000
       24 FE2    2py       -0.0000   -0.0000   -0.0000   -0.0000   -0.0000   -0.0000   -0.0000    0.0000    0.0000    0.0000
       25 FE2    3py        0.0000   -0.0000    0.0032    0.0007    0.0000    0.0000   -0.0000    0.0001   -0.0000   -0.0000
       26 FE2    4py       -0.0000    0.0001   -0.9218   -0.2140   -0.0001   -0.0001   -0.0061    0.0219    0.0000    0.0000
       27 FE2    5py       -0.0000    0.0000   -0.2498   -0.0580   -0.0000   -0.0000   -0.0017    0.0059    0.0000    0.0000
       28 FE2    2pz       -0.0000   -0.0000    0.0000    0.0000   -0.0000   -0.0001   -0.0000    0.0000   -0.0000   -0.0000
       29 FE2    3pz        0.0009    0.0007   -0.0000    0.0000    0.0038    0.0019    0.0000   -0.0000   -0.0000   -0.0000
       30 FE2    4pz       -0.0371   -0.0970    0.0001   -0.0000   -0.6865   -0.6700   -0.0001    0.0002   -0.0000    0.0000
       31 FE2    5pz       -0.0145   -0.0146    0.0000   -0.0000   -0.1125   -0.1088   -0.0000    0.0000   -0.0000    0.0000
       32 FE2    3d2-      -0.0000   -0.0000    0.0000   -0.0000    0.0000    0.0000   -0.0000   -0.0000    0.0008   -0.0030
       33 FE2    4d2-       0.0000   -0.0000    0.0000   -0.0000   -0.0000   -0.0000    0.0005    0.0001   -0.2566    0.9648
       34 FE2    3d1-       0.0000    0.0000    0.0050    0.0012    0.0000    0.0000   -0.0003    0.0010   -0.0000    0.0000
       35 FE2    4d1-      -0.0002   -0.0001    0.1150    0.0267   -0.0000    0.0000   -0.0034    0.0119    0.0001    0.0000
       36 FE2    3d0       -0.0046   -0.0040   -0.0000    0.0000    0.0110    0.0023    0.0000   -0.0000   -0.0000   -0.0000
       37 FE2    4d0       -0.4645   -0.0523   -0.0000    0.0000    0.0554    0.0043    0.0000   -0.0000   -0.0000   -0.0000
       38 FE2    3d1+      -0.0000   -0.0000   -0.0012    0.0050   -0.0000    0.0000   -0.0010   -0.0003   -0.0000    0.0000
       39 FE2    4d1+       0.0000    0.0000   -0.0267    0.1150   -0.0000    0.0000   -0.0120   -0.0034    0.0001   -0.0000
       40 FE2    3d2+      -0.0000   -0.0000    0.0000    0.0000   -0.0000    0.0000   -0.0000   -0.0000   -0.0030   -0.0008
       41 FE2    4d2+       0.0000    0.0000   -0.0000   -0.0000    0.0000   -0.0000    0.0003    0.0002    0.9664    0.2563
       42 FE2    4f3-      -0.0000   -0.0000   -0.0000    0.0000   -0.0000    0.0002    0.0004    0.0005   -0.0000    0.0000
       43 FE2    4f2-      -0.0000    0.0000   -0.0000    0.0000    0.0000    0.0000    0.0000    0.0000   -0.0001    0.0004
       44 FE2    4f1-       0.0000   -0.0000    0.1522    0.0353   -0.0000   -0.0000    0.0010   -0.0035    0.0000    0.0000
[...]
ATVX     1  Mu1.0011  Se1.027                       0.21147010      0.00000072     -0.00000863     -0.00000000
ATVX     1  Mu1.0012  Se1.027                       0.21147559     -0.00000130      0.00001564     -0.00000000
ATVX     1  Mu1.0013  Se1.027                       0.25483783     -0.00000000      0.00000000     -0.00000000
ATVX     1  Mu1.0014  Se1.027                       0.25483784      0.00000000     -0.00000000     -0.00000000
ATVX     1  Mu1.0015  Se1.027                       0.26046800      0.00000000     -0.00000000     -0.00000000
ATVX     1  Mu1.0016  Se1.027                       0.26046801      0.00000000     -0.00000000     -0.00000000
ATVX     1  Mu1.0017  Se1.027                       0.26487030      0.00000034     -0.00000133     -0.00000000
ATVX     1  Mu1.0018  Se1.027                       0.26489440     -0.00000004      0.00000016     -0.00000000
ATVX     1  Mu1.0019  Se1.027                       0.28391304      0.00000012     -0.00000050     -0.00000000
ATVX     1  Mu1.0020  Se1.027                       0.28391792      0.00000009     -0.00000036     -0.00000000
ATVX     1  Mu1.0021  Se1.027                       0.28502043      0.00000000      0.00000000      0.00000000
ATVX     1  Mu1.0022  Se1.027                       0.28502057     -0.00000000      0.00000000     -0.00000000
ATVX     1  Mu1.0023  Se1.027                       0.28742783      0.00000000     -0.00000000     -0.00000000
ATVX     1  Mu1.0024  Se1.027                       0.28743779     -0.00000000      0.00000000     -0.00000000
ATVX     1  Mu1.0025  Se1.027                       0.29302424     -0.00000000      0.00000000     -0.00000000
ATVX     1  Mu1.0026  Se1.027                       0.29303047     -0.00000000      0.00000000     -0.00000000
ATVX     1  Mu1.0027  Se1.027                       0.29534713     -0.00000000      0.00000000     -0.00000000
ATVX     1  Mu1.0028  Se1.027                       0.29536587     -0.00000000      0.00000000     -0.00000000
ATVX     1  Mu1.0001  Se1.028                      -0.18332557     -0.00000000     -0.00000000      0.00000000
ATVX     1  Mu1.0002  Se1.028                      -0.16505866     -0.00000000      0.00000000     -0.00000000
ATVX     1  Mu1.0003  Se1.028                      -0.16505410     -0.00000011     -0.00000058      0.00000000
ATVX     1  Mu1.0004  Se1.028                      -0.12216645      0.00000000     -0.00000000     -0.00000000
ATVX     1  Mu1.0005  Se1.028                       0.00346934      0.00000167     -0.00037011     -0.00000000
ATVX     1  Mu1.0006  Se1.028                       0.00346935      0.00000428     -0.00094701     -0.00000000
ATVX     1  Mu1.0007  Se1.028                       0.20038639      0.00000036     -0.00001001     -0.00000000
ATVX     1  Mu1.0008  Se1.028                       0.20038639      0.00000000     -0.00000004     -0.00000000
ATVX     1  Mu1.0009  Se1.028                       0.21556059     -0.00000000      0.00000000     -0.00000000
ATVX     1  Mu1.0010  Se1.028                       0.21556532     -0.00000000     -0.00000000      0.00000000
ATVX     1  Mu1.0011  Se1.028                       0.21833084      0.00000000     -0.00000000     -0.00000000
ATVX     1  Mu1.0012  Se1.028                       0.21833634      0.00000000     -0.00000000     -0.00000000
ATVX     1  Mu1.0013  Se1.028                       0.26169858     -0.00000002      0.00000013     -0.00000000
ATVX     1  Mu1.0014  Se1.028                       0.26169859     -0.00000000      0.00000000     -0.00000000
ATVX     1  Mu1.0015  Se1.028                       0.26732875      0.00000005     -0.00000023     -0.00000000
ATVX     1  Mu1.0016  Se1.028                       0.26732876     -0.00000000      0.00000000     -0.00000000
ATVX     1  Mu1.0017  Se1.028                       0.27173104     -0.00000000      0.00000000     -0.00000000
ATVX     1  Mu1.0018  Se1.028                       0.27175514      0.00000000     -0.00000000     -0.00000000
ATVX     1  Mu1.0019  Se1.028                       0.29077379      0.00000000     -0.00000000     -0.00000000
ATVX     1  Mu1.0020  Se1.028                       0.29077866      0.00000000     -0.00000000     -0.00000000
ATVX     1  Mu1.0021  Se1.028                       0.29188117      0.00000000     -0.00000001     -0.00000000
ATVX     1  Mu1.0022  Se1.028                       0.29188132      0.00000093     -0.00000356     -0.00000000
ATVX     1  Mu1.0023  Se1.028                       0.29428857     -0.00000014      0.00000039     -0.00000000
ATVX     1  Mu1.0024  Se1.028                       0.29429854      0.00000001     -0.00000003     -0.00000000
ATVX     1  Mu1.0025  Se1.028                       0.29988499     -0.00000000      0.00000000     -0.00000000
ATVX     1  Mu1.0026  Se1.028                       0.29989122      0.00000000     -0.00000000     -0.00000000
ATVX     1  Mu1.0001  Se1.029                      -0.18332459      0.00000000      0.00000000      0.00000000
ATVX     1  Mu1.0002  Se1.029                      -0.16505767      0.00000011      0.00000058      0.00000000
ATVX     1  Mu1.0003  Se1.029                      -0.16505312     -0.00000000      0.00000000     -0.00000000
ATVX     1  Mu1.0004  Se1.029                      -0.12216546     -0.00000000     -0.00000000      0.00000000
ATVX     1  Mu1.0005  Se1.029                       0.00347032      0.00000428     -0.00094948     -0.00000000
ATVX     1  Mu1.0006  Se1.029                       0.00347034     -0.00000167      0.00037110     -0.00000000
ATVX     1  Mu1.0007  Se1.029                       0.20038737     -0.00000000      0.00000004     -0.00000000
ATVX     1  Mu1.0008  Se1.029                       0.20038737      0.00000036     -0.00001002     -0.00000000
ATVX     1  Mu1.0009  Se1.029                       0.21556158      0.00000000     -0.00000000     -0.00000000
ATVX     1  Mu1.0010  Se1.029                       0.21556631     -0.00000000      0.00000000     -0.00000000
ATVX     1  Mu1.0011  Se1.029                       0.21833183      0.00000000     -0.00000000     -0.00000000
ATVX     1  Mu1.0012  Se1.029                       0.21833732      0.00000000     -0.00000000     -0.00000000
ATVX     1  Mu1.0013  Se1.029                       0.26169956     -0.00000000      0.00000000     -0.00000000
ATVX     1  Mu1.0014  Se1.029                       0.26169957      0.00000002     -0.00000013     -0.00000000
ATVX     1  Mu1.0015  Se1.029                       0.26732974     -0.00000000      0.00000000     -0.00000000
ATVX     1  Mu1.0016  Se1.029                       0.26732974     -0.00000005      0.00000023     -0.00000000
ATVX     1  Mu1.0017  Se1.029                       0.27173203      0.00000000     -0.00000000     -0.00000000
ATVX     1  Mu1.0018  Se1.029                       0.27175613      0.00000000     -0.00000000     -0.00000000
ATVX     1  Mu1.0019  Se1.029                       0.29077477      0.00000000     -0.00000000     -0.00000000
ATVX     1  Mu1.0020  Se1.029                       0.29077965      0.00000000     -0.00000000     -0.00000000
ATVX     1  Mu1.0021  Se1.029                       0.29188216      0.00000093     -0.00000355     -0.00000000
ATVX     1  Mu1.0022  Se1.029                       0.29188230     -0.00000000      0.00000001     -0.00000000
ATVX     1  Mu1.0023  Se1.029                       0.29428956     -0.00000001      0.00000003     -0.00000000
ATVX     1  Mu1.0024  Se1.029                       0.29429952     -0.00000014      0.00000039     -0.00000000
ATVX     1  Mu1.0025  Se1.029                       0.29988597     -0.00000000      0.00000000     -0.00000000
ATVX     1  Mu1.0026  Se1.029                       0.29989220     -0.00000000      0.00000000     -0.00000000
ATVX     1  Mu1.0001  Se1.030                      -0.02036235      0.00000000      0.00000000      0.00000000
ATVX     1  Mu1.0002  Se1.030                      -0.00209544     -0.00000000     -0.00000000      0.00000000
ATVX     1  Mu1.0003  Se1.030                      -0.00209088     -0.00000000     -0.00000000      0.00000000
ATVX     1  Mu1.0004  Se1.030                       0.04079677     -0.00000000      0.00000000     -0.00000000
ATVX     1  Mu1.0005  Se1.030                       0.16643256     -0.00000000      0.00000000     -0.00000000
ATVX     1  Mu1.0006  Se1.030                       0.16643257     -0.00000000      0.00000000     -0.00000000
ATVX     1  Mu1.0267  Se1.031                       2.28968817      0.09509255     -0.04305718     -0.00409442
ATVX     1  Mu1.0268  Se1.032                       2.28968817     -0.09509254      0.04305718     -0.00409442
AIVX     1  Mu1.0137  In1.011 Se1.033               3.33088301     -0.10638852      0.03231087     -0.00343751
AIVX     1  Mu1.0139  In1.011 Se1.033               3.33597996     -0.07731445      0.02612958     -0.00202019
AIVX     1  Mu1.0130  In1.008 Se1.034               6.29203810     -0.17120460      0.02721318     -0.00465902
AIVX     1  Mu1.0130  In1.009 Se1.035               6.29736071      0.17074178     -0.02711108     -0.00462899
AIVX     1  Mu1.0169  In1.009 Se1.035               6.56061732      0.17716022     -0.02700359     -0.00478396
AIVX     1  Mu1.0130  In1.010 Se1.036               6.29736238      0.17074196     -0.02711111     -0.00462900
AIVX     1  Mu1.0169  In1.010 Se1.036               6.56061899      0.17715626     -0.02700298     -0.00478375
AIVX     1  Mu1.0036  In1.011 Se1.037               3.46883064      0.13891046     -0.03834151     -0.00532604
AIVX     1  Mu1.0051  In1.011 Se1.038               3.71881335     -0.14674138      0.03786938     -0.00555701
AIVX     1  Mu1.0041  In1.011 Se1.041               3.51650246      0.10175630     -0.02766002     -0.00281458
BVATM    1  Mu1.0001  Se1.027 Se1.026               0.21792310     -0.00000000      0.00000000     -0.00000000
BVATM    1  Mu1.0001  Se1.028 Se1.026               0.22478384     -0.00000000     -0.00000000      0.00000000
BVATM    1  Mu1.0001  Se1.029 Se1.026               0.22478483      0.00000000      0.00000000      0.00000000
BVATM    1  Mu1.0001  Se1.032 Se1.031               1.95659693      0.07200465     -0.03711731     -0.00267262
BVATM    1  Mu1.0001  Se1.038 Se1.037               5.00970728      0.12960391     -0.02587056     -0.00335293
BJATP    1  Mu1.0002  In1.011 Se1.033 Se1.031       2.94068771      0.08254191     -0.02794451     -0.00230659
BJATP    1  Mu1.0001  In1.011 Se1.033 Se1.032       2.94068771      0.08254191     -0.02794451     -0.00230659
BJATM    1  Mu1.0002  In1.011 Se1.033 Se1.031       2.94068771     -0.07863896      0.02866406     -0.00225411
BJATM    1  Mu1.0001  In1.011 Se1.033 Se1.032       2.94068771     -0.07863896      0.02866406     -0.00225411
BJAIP    1  Se1.033 In1.011 Se1.033 In1.011         3.92477176      0.12241322     -0.03334640     -0.00408204
--
 
   (Skipping property calculation,
    use PROP keyword to activate)
--
 
  Total CASPT2 energies:
::    CASPT2 Root  1     Total energy:  -1345.82534795
 
  A NEW JOBIPH FILE NAMED 'JOBMIX' IS PREPARED.
********************************************************************************
--- Stop Module: caspt2 at Wed Dec 25 12:15:16 2024 /rc=_RC_ALL_IS_WELL_ ---
*** files: xmldump
    saved to directory /home/grierjones/DDCASPT2/iron_oxo_DDCASPT2/cluster/5.94
--- Module caspt2 spent 5 minutes 34 seconds ---

>>> EXPORT i = B

>>> EXPORT j = P

>>> IF (-FILE GMJ_e2_${i}_${j}.csv)

>>> COPY /tmp/5.94/GMJ_RHS_B_P.csv /home/grierjones/DDCASPT2/iron_oxo_DDCASPT2/cluster/5.94/GMJ_RHS_B_P.csv

>>> COPY /tmp/5.94/GMJ_IVECW_B_P.csv /home/grierjones/DDCASPT2/iron_oxo_DDCASPT2/cluster/5.94/GMJ_IVECW_B_P.csv

>>> COPY /tmp/5.94/GMJ_IVECX_B_P.csv /home/grierjones/DDCASPT2/iron_oxo_DDCASPT2/cluster/5.94/GMJ_IVECX_B_P.csv

>>> COPY /tmp/5.94/GMJ_IVECC2_B_P.csv /home/grierjones/DDCASPT2/iron_oxo_DDCASPT2/cluster/5.94/GMJ_IVECC2_B_P.csv

>>> COPY /tmp/5.94/GMJ_e2_B_P.csv /home/grierjones/DDCASPT2/iron_oxo_DDCASPT2/cluster/5.94/GMJ_e2_B_P.csv

>>> END FOREACH

>>> EXPORT j = M

>>> IF (-FILE GMJ_e2_${i}_${j}.csv)

>>> COPY /tmp/5.94/GMJ_RHS_B_M.csv /home/grierjones/DDCASPT2/iron_oxo_DDCASPT2/cluster/5.94/GMJ_RHS_B_M.csv

>>> COPY /tmp/5.94/GMJ_IVECW_B_M.csv /home/grierjones/DDCASPT2/iron_oxo_DDCASPT2/cluster/5.94/GMJ_IVECW_B_M.csv

>>> COPY /tmp/5.94/GMJ_IVECX_B_M.csv /home/grierjones/DDCASPT2/iron_oxo_DDCASPT2/cluster/5.94/GMJ_IVECX_B_M.csv

>>> COPY /tmp/5.94/GMJ_IVECC2_B_M.csv /home/grierjones/DDCASPT2/iron_oxo_DDCASPT2/cluster/5.94/GMJ_IVECC2_B_M.csv

>>> COPY /tmp/5.94/GMJ_e2_B_M.csv /home/grierjones/DDCASPT2/iron_oxo_DDCASPT2/cluster/5.94/GMJ_e2_B_M.csv

>>> END FOREACH

>>> END FOREACH

>>> EXPORT i = E

>>> EXPORT j = P

>>> IF (-FILE GMJ_e2_${i}_${j}.csv)

>>> COPY /tmp/5.94/GMJ_RHS_E_P.csv /home/grierjones/DDCASPT2/iron_oxo_DDCASPT2/cluster/5.94/GMJ_RHS_E_P.csv

>>> COPY /tmp/5.94/GMJ_IVECW_E_P.csv /home/grierjones/DDCASPT2/iron_oxo_DDCASPT2/cluster/5.94/GMJ_IVECW_E_P.csv

>>> COPY /tmp/5.94/GMJ_IVECX_E_P.csv /home/grierjones/DDCASPT2/iron_oxo_DDCASPT2/cluster/5.94/GMJ_IVECX_E_P.csv

>>> COPY /tmp/5.94/GMJ_IVECC2_E_P.csv /home/grierjones/DDCASPT2/iron_oxo_DDCASPT2/cluster/5.94/GMJ_IVECC2_E_P.csv

>>> COPY /tmp/5.94/GMJ_e2_E_P.csv /home/grierjones/DDCASPT2/iron_oxo_DDCASPT2/cluster/5.94/GMJ_e2_E_P.csv

>>> END FOREACH

>>> EXPORT j = M

>>> IF (-FILE GMJ_e2_${i}_${j}.csv)

>>> COPY /tmp/5.94/GMJ_RHS_E_M.csv /home/grierjones/DDCASPT2/iron_oxo_DDCASPT2/cluster/5.94/GMJ_RHS_E_M.csv

>>> COPY /tmp/5.94/GMJ_IVECW_E_M.csv /home/grierjones/DDCASPT2/iron_oxo_DDCASPT2/cluster/5.94/GMJ_IVECW_E_M.csv

>>> COPY /tmp/5.94/GMJ_IVECX_E_M.csv /home/grierjones/DDCASPT2/iron_oxo_DDCASPT2/cluster/5.94/GMJ_IVECX_E_M.csv

>>> COPY /tmp/5.94/GMJ_IVECC2_E_M.csv /home/grierjones/DDCASPT2/iron_oxo_DDCASPT2/cluster/5.94/GMJ_IVECC2_E_M.csv

>>> COPY /tmp/5.94/GMJ_e2_E_M.csv /home/grierjones/DDCASPT2/iron_oxo_DDCASPT2/cluster/5.94/GMJ_e2_E_M.csv

>>> END FOREACH

>>> END FOREACH

>>> EXPORT i = F

>>> EXPORT j = P

>>> IF (-FILE GMJ_e2_${i}_${j}.csv)

>>> COPY /tmp/5.94/GMJ_RHS_F_P.csv /home/grierjones/DDCASPT2/iron_oxo_DDCASPT2/cluster/5.94/GMJ_RHS_F_P.csv

>>> COPY /tmp/5.94/GMJ_IVECW_F_P.csv /home/grierjones/DDCASPT2/iron_oxo_DDCASPT2/cluster/5.94/GMJ_IVECW_F_P.csv

>>> COPY /tmp/5.94/GMJ_IVECX_F_P.csv /home/grierjones/DDCASPT2/iron_oxo_DDCASPT2/cluster/5.94/GMJ_IVECX_F_P.csv

>>> COPY /tmp/5.94/GMJ_IVECC2_F_P.csv /home/grierjones/DDCASPT2/iron_oxo_DDCASPT2/cluster/5.94/GMJ_IVECC2_F_P.csv

>>> COPY /tmp/5.94/GMJ_e2_F_P.csv /home/grierjones/DDCASPT2/iron_oxo_DDCASPT2/cluster/5.94/GMJ_e2_F_P.csv

>>> END FOREACH

>>> EXPORT j = M

>>> IF (-FILE GMJ_e2_${i}_${j}.csv)

>>> COPY /tmp/5.94/GMJ_RHS_F_M.csv /home/grierjones/DDCASPT2/iron_oxo_DDCASPT2/cluster/5.94/GMJ_RHS_F_M.csv

>>> COPY /tmp/5.94/GMJ_IVECW_F_M.csv /home/grierjones/DDCASPT2/iron_oxo_DDCASPT2/cluster/5.94/GMJ_IVECW_F_M.csv

>>> COPY /tmp/5.94/GMJ_IVECX_F_M.csv /home/grierjones/DDCASPT2/iron_oxo_DDCASPT2/cluster/5.94/GMJ_IVECX_F_M.csv

>>> COPY /tmp/5.94/GMJ_IVECC2_F_M.csv /home/grierjones/DDCASPT2/iron_oxo_DDCASPT2/cluster/5.94/GMJ_IVECC2_F_M.csv

>>> COPY /tmp/5.94/GMJ_e2_F_M.csv /home/grierjones/DDCASPT2/iron_oxo_DDCASPT2/cluster/5.94/GMJ_e2_F_M.csv

>>> END FOREACH

>>> END FOREACH

>>> EXPORT i = G

>>> EXPORT j = P

>>> IF (-FILE GMJ_e2_${i}_${j}.csv)

>>> COPY /tmp/5.94/GMJ_RHS_G_P.csv /home/grierjones/DDCASPT2/iron_oxo_DDCASPT2/cluster/5.94/GMJ_RHS_G_P.csv

>>> COPY /tmp/5.94/GMJ_IVECW_G_P.csv /home/grierjones/DDCASPT2/iron_oxo_DDCASPT2/cluster/5.94/GMJ_IVECW_G_P.csv

>>> COPY /tmp/5.94/GMJ_IVECX_G_P.csv /home/grierjones/DDCASPT2/iron_oxo_DDCASPT2/cluster/5.94/GMJ_IVECX_G_P.csv

>>> COPY /tmp/5.94/GMJ_IVECC2_G_P.csv /home/grierjones/DDCASPT2/iron_oxo_DDCASPT2/cluster/5.94/GMJ_IVECC2_G_P.csv

>>> COPY /tmp/5.94/GMJ_e2_G_P.csv /home/grierjones/DDCASPT2/iron_oxo_DDCASPT2/cluster/5.94/GMJ_e2_G_P.csv

>>> END FOREACH

>>> EXPORT j = M

>>> IF (-FILE GMJ_e2_${i}_${j}.csv)

>>> COPY /tmp/5.94/GMJ_RHS_G_M.csv /home/grierjones/DDCASPT2/iron_oxo_DDCASPT2/cluster/5.94/GMJ_RHS_G_M.csv

>>> COPY /tmp/5.94/GMJ_IVECW_G_M.csv /home/grierjones/DDCASPT2/iron_oxo_DDCASPT2/cluster/5.94/GMJ_IVECW_G_M.csv

>>> COPY /tmp/5.94/GMJ_IVECX_G_M.csv /home/grierjones/DDCASPT2/iron_oxo_DDCASPT2/cluster/5.94/GMJ_IVECX_G_M.csv

>>> COPY /tmp/5.94/GMJ_IVECC2_G_M.csv /home/grierjones/DDCASPT2/iron_oxo_DDCASPT2/cluster/5.94/GMJ_IVECC2_G_M.csv

>>> COPY /tmp/5.94/GMJ_e2_G_M.csv /home/grierjones/DDCASPT2/iron_oxo_DDCASPT2/cluster/5.94/GMJ_e2_G_M.csv

>>> END FOREACH

>>> END FOREACH

>>> EXPORT i = H

>>> EXPORT j = P

>>> IF (-FILE GMJ_e2_${i}_${j}.csv)

>>> COPY /tmp/5.94/GMJ_RHS_H_P.csv /home/grierjones/DDCASPT2/iron_oxo_DDCASPT2/cluster/5.94/GMJ_RHS_H_P.csv

>>> COPY /tmp/5.94/GMJ_IVECW_H_P.csv /home/grierjones/DDCASPT2/iron_oxo_DDCASPT2/cluster/5.94/GMJ_IVECW_H_P.csv

>>> COPY /tmp/5.94/GMJ_IVECX_H_P.csv /home/grierjones/DDCASPT2/iron_oxo_DDCASPT2/cluster/5.94/GMJ_IVECX_H_P.csv

>>> COPY /tmp/5.94/GMJ_IVECC2_H_P.csv /home/grierjones/DDCASPT2/iron_oxo_DDCASPT2/cluster/5.94/GMJ_IVECC2_H_P.csv

>>> COPY /tmp/5.94/GMJ_e2_H_P.csv /home/grierjones/DDCASPT2/iron_oxo_DDCASPT2/cluster/5.94/GMJ_e2_H_P.csv

>>> END FOREACH

>>> EXPORT j = M

>>> IF (-FILE GMJ_e2_${i}_${j}.csv)

>>> COPY /tmp/5.94/GMJ_RHS_H_M.csv /home/grierjones/DDCASPT2/iron_oxo_DDCASPT2/cluster/5.94/GMJ_RHS_H_M.csv

>>> COPY /tmp/5.94/GMJ_IVECW_H_M.csv /home/grierjones/DDCASPT2/iron_oxo_DDCASPT2/cluster/5.94/GMJ_IVECW_H_M.csv

>>> COPY /tmp/5.94/GMJ_IVECX_H_M.csv /home/grierjones/DDCASPT2/iron_oxo_DDCASPT2/cluster/5.94/GMJ_IVECX_H_M.csv

>>> COPY /tmp/5.94/GMJ_IVECC2_H_M.csv /home/grierjones/DDCASPT2/iron_oxo_DDCASPT2/cluster/5.94/GMJ_IVECC2_H_M.csv

>>> COPY /tmp/5.94/GMJ_e2_H_M.csv /home/grierjones/DDCASPT2/iron_oxo_DDCASPT2/cluster/5.94/GMJ_e2_H_M.csv

>>> END FOREACH

>>> END FOREACH

>>> EXPORT i = A

>>> IF (-FILE GMJ_e2_$i.csv)

>>> COPY /tmp/5.94/GMJ_RHS_A.csv /home/grierjones/DDCASPT2/iron_oxo_DDCASPT2/cluster/5.94/GMJ_RHS_A.csv

>>> COPY /tmp/5.94/GMJ_IVECW_A.csv /home/grierjones/DDCASPT2/iron_oxo_DDCASPT2/cluster/5.94/GMJ_IVECW_A.csv

>>> COPY /tmp/5.94/GMJ_IVECX_A.csv /home/grierjones/DDCASPT2/iron_oxo_DDCASPT2/cluster/5.94/GMJ_IVECX_A.csv

>>> COPY /tmp/5.94/GMJ_IVECC2_A.csv /home/grierjones/DDCASPT2/iron_oxo_DDCASPT2/cluster/5.94/GMJ_IVECC2_A.csv

>>> COPY /tmp/5.94/GMJ_e2_A.csv /home/grierjones/DDCASPT2/iron_oxo_DDCASPT2/cluster/5.94/GMJ_e2_A.csv

>>> END FOREACH

>>> EXPORT i = C

>>> IF (-FILE GMJ_e2_$i.csv)

>>> COPY /tmp/5.94/GMJ_RHS_C.csv /home/grierjones/DDCASPT2/iron_oxo_DDCASPT2/cluster/5.94/GMJ_RHS_C.csv

>>> COPY /tmp/5.94/GMJ_IVECW_C.csv /home/grierjones/DDCASPT2/iron_oxo_DDCASPT2/cluster/5.94/GMJ_IVECW_C.csv

>>> COPY /tmp/5.94/GMJ_IVECX_C.csv /home/grierjones/DDCASPT2/iron_oxo_DDCASPT2/cluster/5.94/GMJ_IVECX_C.csv

>>> COPY /tmp/5.94/GMJ_IVECC2_C.csv /home/grierjones/DDCASPT2/iron_oxo_DDCASPT2/cluster/5.94/GMJ_IVECC2_C.csv

>>> COPY /tmp/5.94/GMJ_e2_C.csv /home/grierjones/DDCASPT2/iron_oxo_DDCASPT2/cluster/5.94/GMJ_e2_C.csv

>>> END FOREACH

>>> EXPORT i = D

>>> IF (-FILE GMJ_e2_$i.csv)

>>> COPY /tmp/5.94/GMJ_RHS_D.csv /home/grierjones/DDCASPT2/iron_oxo_DDCASPT2/cluster/5.94/GMJ_RHS_D.csv

>>> COPY /tmp/5.94/GMJ_IVECW_D.csv /home/grierjones/DDCASPT2/iron_oxo_DDCASPT2/cluster/5.94/GMJ_IVECW_D.csv

>>> COPY /tmp/5.94/GMJ_IVECX_D.csv /home/grierjones/DDCASPT2/iron_oxo_DDCASPT2/cluster/5.94/GMJ_IVECX_D.csv

>>> COPY /tmp/5.94/GMJ_IVECC2_D.csv /home/grierjones/DDCASPT2/iron_oxo_DDCASPT2/cluster/5.94/GMJ_IVECC2_D.csv

>>> COPY /tmp/5.94/GMJ_e2_D.csv /home/grierjones/DDCASPT2/iron_oxo_DDCASPT2/cluster/5.94/GMJ_e2_D.csv

>>> END FOREACH

.########################.
.# Non-zero return code #.
.########################.

    Timing: Wall=409.02 User=405.04 System=3.86
************************************
*** WorkDir at /tmp/5.94 cleaned ***
************************************
