[Molden Format]
[N_Atoms]
                     2
[Atoms] (AU)
N1          1      7           0.00000000      0.00000000      0.00000000
N2          2      7           0.00000000      0.00000000      3.21253441
[Charge] (Mulliken)
   1.00000000804124     
  0.999999991958736     
[GTO] (AU)
   1
   s  14
  7.476171500E+04  1.182599996E-04
  1.112365400E+04  5.172899983E-04
  2.512685700E+03  2.266659992E-03
  7.037772900E+02  9.145289970E-03
  2.254787900E+02  3.239342989E-02
  7.961581000E+01  9.770792967E-02
  3.023728300E+01  2.317036792E-01
  1.226362200E+01  3.768898887E-01
  5.265086000E+00  3.177420689E-01
  2.333471000E+00  8.211308973E-02
  9.018560000E-01  3.312089989E-03
  3.583360000E-01  3.720819988E-03
  1.410930000E-01  3.165419989E-03
  4.938300000E-02  4.595799985E-04
   s  14
  7.476171500E+04 -2.707000010E-05
  1.112365400E+04 -1.183700004E-04
  2.512685700E+03 -5.203800020E-04
  7.037772900E+02 -2.102930008E-03
  2.254787900E+02 -7.568200028E-03
  7.961581000E+01 -2.346767009E-02
  3.023728300E+01 -6.042901023E-02
  1.226362200E+01 -1.170549104E-01
  5.265086000E+00 -1.555321506E-01
  2.333471000E+00 -2.468935009E-02
  9.018560000E-01  3.625054514E-01
  3.583360000E-01  5.550845021E-01
  1.410930000E-01  2.148376908E-01
  4.938300000E-02  8.983850034E-03
   p   9
  1.266665700E+02  1.233630000E-03
  2.983738900E+01  9.493409996E-03
  9.394038000E+00  4.293961998E-02
  3.405104000E+00  1.362925399E-01
  1.350000000E+00  2.921362499E-01
  5.576960000E-01  3.887887598E-01
  2.324490000E-01  2.946801399E-01
  9.426400000E-02  8.012875997E-02
  3.299200000E-02  5.405199998E-04
 
   2
   s  14
  7.476171500E+04  1.182599996E-04
  1.112365400E+04  5.172899983E-04
  2.512685700E+03  2.266659992E-03
  7.037772900E+02  9.145289970E-03
  2.254787900E+02  3.239342989E-02
  7.961581000E+01  9.770792967E-02
  3.023728300E+01  2.317036792E-01
  1.226362200E+01  3.768898887E-01
  5.265086000E+00  3.177420689E-01
  2.333471000E+00  8.211308973E-02
  9.018560000E-01  3.312089989E-03
  3.583360000E-01  3.720819988E-03
  1.410930000E-01  3.165419989E-03
  4.938300000E-02  4.595799985E-04
   s  14
  7.476171500E+04 -2.707000010E-05
  1.112365400E+04 -1.183700004E-04
  2.512685700E+03 -5.203800020E-04
  7.037772900E+02 -2.102930008E-03
  2.254787900E+02 -7.568200028E-03
  7.961581000E+01 -2.346767009E-02
  3.023728300E+01 -6.042901023E-02
  1.226362200E+01 -1.170549104E-01
  5.265086000E+00 -1.555321506E-01
  2.333471000E+00 -2.468935009E-02
  9.018560000E-01  3.625054514E-01
  3.583360000E-01  5.550845021E-01
  1.410930000E-01  2.148376908E-01
  4.938300000E-02  8.983850034E-03
   p   9
  1.266665700E+02  1.233630000E-03
  2.983738900E+01  9.493409996E-03
  9.394038000E+00  4.293961998E-02
  3.405104000E+00  1.362925399E-01
  1.350000000E+00  2.921362499E-01
  5.576960000E-01  3.887887598E-01
  2.324490000E-01  2.946801399E-01
  9.426400000E-02  8.012875997E-02
  3.299200000E-02  5.405199998E-04
 
[MO]
Sym=     1a  
Ene=   -16.8980
Spin= Alpha
Occup=    2.00000
   1         0.70705065
   2        -0.00569064
   3         0.00000000
   4         0.00000000
   5        -0.00001820
   6         0.70703850
   7        -0.00569046
   8         0.00000000
   9        -0.00000000
  10         0.00001820
Sym=     2a  
Ene=   -16.8980
Spin= Alpha
Occup=    2.00000
   1        -0.70702099
   2         0.01015217
   3         0.00000000
   4         0.00000000
   5        -0.00023853
   6         0.70703314
   7        -0.01015227
   8         0.00000000
   9         0.00000000
  10        -0.00023853
Sym=     3a  
Ene=    -1.9979
Spin= Alpha
Occup=    2.00000
   1         0.00575006
   2        -0.61217600
   3        -0.00000000
   4         0.00000000
   5        -0.11831829
   6         0.00575006
   7        -0.61217601
   8         0.00000000
   9        -0.00000000
  10         0.11831829
Sym=     4a  
Ene=    -1.2899
Spin= Alpha
Occup=    2.00000
   1        -0.00000000
   2         0.00000000
   3        -0.42858700
   4         0.51253092
   5         0.00000000
   6        -0.00000000
   7        -0.00000000
   8        -0.42858701
   9         0.51253092
  10        -0.00000000
Sym=     5a  
Ene=    -1.2899
Spin= Alpha
Occup=    2.00000
   1         0.00000000
   2         0.00000000
   3         0.51253092
   4         0.42858700
   5        -0.00000000
   6        -0.00000000
   7        -0.00000000
   8         0.51253092
   9         0.42858701
  10         0.00000000
Sym=     6a  
Ene=    -0.9731
Spin= Alpha
Occup=    0.03004
   1         0.01573304
   2         0.25293455
   3        -0.00000000
   4        -0.00000000
   5        -0.63989590
   6         0.01573304
   7         0.25293455
   8        -0.00000000
   9        -0.00000000
  10         0.63989590
Sym=     7a  
Ene=    -0.0945
Spin= Alpha
Occup=    1.96996
   1        -0.01969416
   2        -0.78188986
   3         0.00000000
   4         0.00000000
   5         0.01345637
   6         0.01969416
   7         0.78188985
   8        -0.00000000
   9         0.00000000
  10         0.01345636
Sym=     8a  
Ene=    -0.9050
Spin= Alpha
Occup=    0.00000
   1         0.00000000
   2         0.00000000
   3         0.14373063
   4        -0.74000710
   5         0.00000000
   6        -0.00000000
   7        -0.00000000
   8        -0.14373063
   9         0.74000710
  10         0.00000000
Sym=     9a  
Ene=    -0.9050
Spin= Alpha
Occup=    0.00000
   1         0.00000000
   2         0.00000000
   3         0.74000710
   4         0.14373063
   5         0.00000000
   6        -0.00000000
   7        -0.00000000
   8        -0.74000710
   9        -0.14373063
  10         0.00000000
Sym=    10a  
Ene=    -0.6293
Spin= Alpha
Occup=    0.00000
   1         0.02803747
   2         0.27863082
   3        -0.00000000
   4         0.00000000
   5         0.85369265
   6        -0.02803747
   7        -0.27863082
   8         0.00000000
   9        -0.00000000
  10         0.85369265
