[Molden Format]
[N_Atoms]
                     2
[Atoms] (AU)
N1          1      7           0.00000000      0.00000000      0.00000000
N2          2      7           0.00000000      0.00000000      3.21253441
[Charge] (Mulliken)
 -1.385336290127270E-010
  1.385185299795921E-010
[GTO] (AU)
   1
   s  14
  7.476171500E+04  1.182599996E-04
  1.112365400E+04  5.172899983E-04
  2.512685700E+03  2.266659992E-03
  7.037772900E+02  9.145289970E-03
  2.254787900E+02  3.239342989E-02
  7.961581000E+01  9.770792967E-02
  3.023728300E+01  2.317036792E-01
  1.226362200E+01  3.768898887E-01
  5.265086000E+00  3.177420689E-01
  2.333471000E+00  8.211308973E-02
  9.018560000E-01  3.312089989E-03
  3.583360000E-01  3.720819988E-03
  1.410930000E-01  3.165419989E-03
  4.938300000E-02  4.595799985E-04
   s  14
  7.476171500E+04 -2.707000010E-05
  1.112365400E+04 -1.183700004E-04
  2.512685700E+03 -5.203800020E-04
  7.037772900E+02 -2.102930008E-03
  2.254787900E+02 -7.568200028E-03
  7.961581000E+01 -2.346767009E-02
  3.023728300E+01 -6.042901023E-02
  1.226362200E+01 -1.170549104E-01
  5.265086000E+00 -1.555321506E-01
  2.333471000E+00 -2.468935009E-02
  9.018560000E-01  3.625054514E-01
  3.583360000E-01  5.550845021E-01
  1.410930000E-01  2.148376908E-01
  4.938300000E-02  8.983850034E-03
   p   9
  1.266665700E+02  1.233630000E-03
  2.983738900E+01  9.493409996E-03
  9.394038000E+00  4.293961998E-02
  3.405104000E+00  1.362925399E-01
  1.350000000E+00  2.921362499E-01
  5.576960000E-01  3.887887598E-01
  2.324490000E-01  2.946801399E-01
  9.426400000E-02  8.012875997E-02
  3.299200000E-02  5.405199998E-04
 
   2
   s  14
  7.476171500E+04  1.182599996E-04
  1.112365400E+04  5.172899983E-04
  2.512685700E+03  2.266659992E-03
  7.037772900E+02  9.145289970E-03
  2.254787900E+02  3.239342989E-02
  7.961581000E+01  9.770792967E-02
  3.023728300E+01  2.317036792E-01
  1.226362200E+01  3.768898887E-01
  5.265086000E+00  3.177420689E-01
  2.333471000E+00  8.211308973E-02
  9.018560000E-01  3.312089989E-03
  3.583360000E-01  3.720819988E-03
  1.410930000E-01  3.165419989E-03
  4.938300000E-02  4.595799985E-04
   s  14
  7.476171500E+04 -2.707000010E-05
  1.112365400E+04 -1.183700004E-04
  2.512685700E+03 -5.203800020E-04
  7.037772900E+02 -2.102930008E-03
  2.254787900E+02 -7.568200028E-03
  7.961581000E+01 -2.346767009E-02
  3.023728300E+01 -6.042901023E-02
  1.226362200E+01 -1.170549104E-01
  5.265086000E+00 -1.555321506E-01
  2.333471000E+00 -2.468935009E-02
  9.018560000E-01  3.625054514E-01
  3.583360000E-01  5.550845021E-01
  1.410930000E-01  2.148376908E-01
  4.938300000E-02  8.983850034E-03
   p   9
  1.266665700E+02  1.233630000E-03
  2.983738900E+01  9.493409996E-03
  9.394038000E+00  4.293961998E-02
  3.405104000E+00  1.362925399E-01
  1.350000000E+00  2.921362499E-01
  5.576960000E-01  3.887887598E-01
  2.324490000E-01  2.946801399E-01
  9.426400000E-02  8.012875997E-02
  3.299200000E-02  5.405199998E-04
 
[MO]
Sym=     1a  
Ene=   -15.6830
Spin= Alpha
Occup=    1.00000
   1         0.70702167
   2        -0.00464623
   3         0.00000000
   4         0.00000000
   5         0.00062529
   6         0.70702160
   7        -0.00464623
   8        -0.00000000
   9         0.00000000
  10        -0.00062529
Sym=     1a  
Ene=   -15.6830
Spin= Beta
Occup=    1.00000
   1         0.70702167
   2        -0.00464623
   3         0.00000000
   4         0.00000000
   5         0.00062529
   6         0.70702160
   7        -0.00464623
   8        -0.00000000
   9         0.00000000
  10        -0.00062529
Sym=     2a  
Ene=   -15.6820
Spin= Alpha
Occup=    1.00000
   1        -0.70719498
   2         0.00359420
   3         0.00000000
   4         0.00000000
   5        -0.00117389
   6         0.70719506
   7        -0.00359420
   8         0.00000000
   9        -0.00000000
  10        -0.00117389
Sym=     2a  
Ene=   -15.6820
Spin= Beta
Occup=    1.00000
   1        -0.70719498
   2         0.00359420
   3         0.00000000
   4         0.00000000
   5        -0.00117389
   6         0.70719506
   7        -0.00359420
   8         0.00000000
   9        -0.00000000
  10        -0.00117389
Sym=     3a  
Ene=    -1.1224
Spin= Alpha
Occup=    1.00000
   1        -0.00699854
   2         0.61442241
   3         0.00000000
   4         0.00000000
   5         0.11259365
   6        -0.00699854
   7         0.61442241
   8         0.00000000
   9         0.00000000
  10        -0.11259365
Sym=     3a  
Ene=    -1.1224
Spin= Beta
Occup=    1.00000
   1        -0.00699854
   2         0.61442241
   3         0.00000000
   4         0.00000000
   5         0.11259365
   6        -0.00699854
   7         0.61442241
   8         0.00000000
   9         0.00000000
  10        -0.11259365
Sym=     4a  
Ene=    -0.8749
Spin= Alpha
Occup=    1.00000
   1        -0.01051574
   2        -0.74035059
   3         0.00000000
   4        -0.00000000
   5         0.12149081
   6         0.01051574
   7         0.74035059
   8         0.00000000
   9        -0.00000000
  10         0.12149081
Sym=     4a  
Ene=    -0.8749
Spin= Beta
Occup=    1.00000
   1        -0.01051574
   2        -0.74035059
   3         0.00000000
   4        -0.00000000
   5         0.12149081
   6         0.01051574
   7         0.74035059
   8         0.00000000
   9        -0.00000000
  10         0.12149081
Sym=     5a  
Ene=    -0.4789
Spin= Alpha
Occup=    1.00000
   1         0.01624960
   2         0.24744949
   3        -0.00000000
   4         0.00000000
   5        -0.64092766
   6         0.01624960
   7         0.24744949
   8        -0.00000000
   9        -0.00000000
  10         0.64092766
Sym=     5a  
Ene=    -0.4789
Spin= Beta
Occup=    1.00000
   1         0.01624960
   2         0.24744949
   3        -0.00000000
   4         0.00000000
   5        -0.64092766
   6         0.01624960
   7         0.24744949
   8        -0.00000000
   9        -0.00000000
  10         0.64092766
Sym=     6a  
Ene=    -0.4055
Spin= Alpha
Occup=    1.00000
   1        -0.00000000
   2        -0.00000000
   3        -0.45401721
   4         0.49014604
   5        -0.00000000
   6         0.00000000
   7         0.00000000
   8        -0.45401721
   9         0.49014604
  10        -0.00000000
Sym=     6a  
Ene=    -0.4055
Spin= Beta
Occup=    1.00000
   1        -0.00000000
   2        -0.00000000
   3        -0.45401721
   4         0.49014604
   5        -0.00000000
   6         0.00000000
   7         0.00000000
   8        -0.45401721
   9         0.49014604
  10        -0.00000000
Sym=     7a  
Ene=    -0.4055
Spin= Alpha
Occup=    1.00000
   1         0.00000000
   2         0.00000000
   3         0.49014604
   4         0.45401721
   5        -0.00000000
   6         0.00000000
   7         0.00000000
   8         0.49014604
   9         0.45401721
  10         0.00000000
Sym=     7a  
Ene=    -0.4055
Spin= Beta
Occup=    1.00000
   1         0.00000000
   2         0.00000000
   3         0.49014604
   4         0.45401721
   5        -0.00000000
   6         0.00000000
   7         0.00000000
   8         0.49014604
   9         0.45401721
  10         0.00000000
Sym=     8a  
Ene=     0.0125
Spin= Alpha
Occup=    0.00000
   1         0.00000000
   2         0.00000000
   3         0.14121670
   4        -0.74049095
   5        -0.00000000
   6         0.00000000
   7         0.00000000
   8        -0.14121670
   9         0.74049095
  10         0.00000000
Sym=     8a  
Ene=     0.0125
Spin= Beta
Occup=    0.00000
   1         0.00000000
   2         0.00000000
   3         0.14121670
   4        -0.74049095
   5        -0.00000000
   6         0.00000000
   7         0.00000000
   8        -0.14121670
   9         0.74049095
  10         0.00000000
Sym=     9a  
Ene=     0.0125
Spin= Alpha
Occup=    0.00000
   1        -0.00000000
   2        -0.00000000
   3        -0.74049095
   4        -0.14121670
   5         0.00000000
   6        -0.00000000
   7         0.00000000
   8         0.74049095
   9         0.14121670
  10        -0.00000000
Sym=     9a  
Ene=     0.0125
Spin= Beta
Occup=    0.00000
   1        -0.00000000
   2        -0.00000000
   3        -0.74049095
   4        -0.14121670
   5         0.00000000
   6        -0.00000000
   7         0.00000000
   8         0.74049095
   9         0.14121670
  10        -0.00000000
Sym=    10a  
Ene=     0.2345
Spin= Alpha
Occup=    0.00000
   1         0.02873758
   2         0.37544377
   3        -0.00000000
   4         0.00000000
   5         0.84510998
   6        -0.02873758
   7        -0.37544377
   8        -0.00000000
   9         0.00000000
  10         0.84510998
Sym=    10a  
Ene=     0.2345
Spin= Beta
Occup=    0.00000
   1         0.02873758
   2         0.37544377
   3        -0.00000000
   4         0.00000000
   5         0.84510998
   6        -0.02873758
   7        -0.37544377
   8        -0.00000000
   9         0.00000000
  10         0.84510998
