[Molden Format]
[N_Atoms]
                     2
[Atoms] (AU)
N1          1      7           0.00000000      0.00000000      0.00000000
N2          2      7           0.00000000      0.00000000      3.21253441
[Charge] (Mulliken)
  9.968197698384529E-007
 -9.968197955956271E-007
[GTO] (AU)
   1
   s  14
  7.476171500E+04  1.182599996E-04
  1.112365400E+04  5.172899983E-04
  2.512685700E+03  2.266659992E-03
  7.037772900E+02  9.145289970E-03
  2.254787900E+02  3.239342989E-02
  7.961581000E+01  9.770792967E-02
  3.023728300E+01  2.317036792E-01
  1.226362200E+01  3.768898887E-01
  5.265086000E+00  3.177420689E-01
  2.333471000E+00  8.211308973E-02
  9.018560000E-01  3.312089989E-03
  3.583360000E-01  3.720819988E-03
  1.410930000E-01  3.165419989E-03
  4.938300000E-02  4.595799985E-04
   s  14
  7.476171500E+04 -2.707000010E-05
  1.112365400E+04 -1.183700004E-04
  2.512685700E+03 -5.203800020E-04
  7.037772900E+02 -2.102930008E-03
  2.254787900E+02 -7.568200028E-03
  7.961581000E+01 -2.346767009E-02
  3.023728300E+01 -6.042901023E-02
  1.226362200E+01 -1.170549104E-01
  5.265086000E+00 -1.555321506E-01
  2.333471000E+00 -2.468935009E-02
  9.018560000E-01  3.625054514E-01
  3.583360000E-01  5.550845021E-01
  1.410930000E-01  2.148376908E-01
  4.938300000E-02  8.983850034E-03
   p   9
  1.266665700E+02  1.233630000E-03
  2.983738900E+01  9.493409996E-03
  9.394038000E+00  4.293961998E-02
  3.405104000E+00  1.362925399E-01
  1.350000000E+00  2.921362499E-01
  5.576960000E-01  3.887887598E-01
  2.324490000E-01  2.946801399E-01
  9.426400000E-02  8.012875997E-02
  3.299200000E-02  5.405199998E-04
 
   2
   s  14
  7.476171500E+04  1.182599996E-04
  1.112365400E+04  5.172899983E-04
  2.512685700E+03  2.266659992E-03
  7.037772900E+02  9.145289970E-03
  2.254787900E+02  3.239342989E-02
  7.961581000E+01  9.770792967E-02
  3.023728300E+01  2.317036792E-01
  1.226362200E+01  3.768898887E-01
  5.265086000E+00  3.177420689E-01
  2.333471000E+00  8.211308973E-02
  9.018560000E-01  3.312089989E-03
  3.583360000E-01  3.720819988E-03
  1.410930000E-01  3.165419989E-03
  4.938300000E-02  4.595799985E-04
   s  14
  7.476171500E+04 -2.707000010E-05
  1.112365400E+04 -1.183700004E-04
  2.512685700E+03 -5.203800020E-04
  7.037772900E+02 -2.102930008E-03
  2.254787900E+02 -7.568200028E-03
  7.961581000E+01 -2.346767009E-02
  3.023728300E+01 -6.042901023E-02
  1.226362200E+01 -1.170549104E-01
  5.265086000E+00 -1.555321506E-01
  2.333471000E+00 -2.468935009E-02
  9.018560000E-01  3.625054514E-01
  3.583360000E-01  5.550845021E-01
  1.410930000E-01  2.148376908E-01
  4.938300000E-02  8.983850034E-03
   p   9
  1.266665700E+02  1.233630000E-03
  2.983738900E+01  9.493409996E-03
  9.394038000E+00  4.293961998E-02
  3.405104000E+00  1.362925399E-01
  1.350000000E+00  2.921362499E-01
  5.576960000E-01  3.887887598E-01
  2.324490000E-01  2.946801399E-01
  9.426400000E-02  8.012875997E-02
  3.299200000E-02  5.405199998E-04
 
[MO]
Sym=     1a  
Ene=   -15.6820
Spin= Alpha
Occup=    2.00000
   1         0.70716236
   2        -0.00464381
   3         0.00000000
   4         0.00000000
   5         0.00061873
   6         0.70688122
   7        -0.00463833
   8         0.00000000
   9        -0.00000000
  10        -0.00061761
Sym=     2a  
Ene=   -15.6790
Spin= Alpha
Occup=    2.00000
   1        -0.70684189
   2         0.01379036
   3         0.00000000
   4         0.00000000
   5        -0.00281694
   6         0.70712304
   7        -0.01379220
   8         0.00000000
   9         0.00000000
  10        -0.00281718
Sym=     3a  
Ene=    -1.1212
Spin= Alpha
Occup=    2.00000
   1         0.00700334
   2        -0.61438861
   3        -0.00000000
   4        -0.00000000
   5        -0.11268121
   6         0.00700335
   7        -0.61438860
   8         0.00000000
   9        -0.00000000
  10         0.11268125
Sym=     4a  
Ene=    -0.4780
Spin= Alpha
Occup=    2.00000
   1         0.01624034
   2         0.24753354
   3        -0.00000000
   4        -0.00000000
   5        -0.64091217
   6         0.01624033
   7         0.24753345
   8        -0.00000000
   9        -0.00000000
  10         0.64091237
Sym=     5a  
Ene=    -0.4058
Spin= Alpha
Occup=    2.00000
   1         0.00000000
   2         0.00000000
   3         0.66669691
   4         0.04347181
   5        -0.00000000
   6         0.00000000
   7         0.00000000
   8         0.66669720
   9         0.04347183
  10         0.00000000
Sym=     6a  
Ene=    -0.4050
Spin= Alpha
Occup=    2.00000
   1         0.00000000
   2         0.00000000
   3        -0.04347181
   4         0.66669692
   5        -0.00000000
   6        -0.00000000
   7        -0.00000000
   8        -0.04347183
   9         0.66669720
  10         0.00000000
Sym=     7a  
Ene=    -0.8751
Spin= Alpha
Occup=    1.98778
   1        -0.02029524
   2        -0.74090467
   3         0.00000000
   4         0.00000000
   5         0.11994404
   6         0.02029524
   7         0.74090470
   8        -0.00000000
   9         0.00000000
  10         0.11994404
Sym=     8a  
Ene=     0.0000
Spin= Alpha
Occup=    0.01222
   1         0.00000000
   2         0.00000000
   3        -0.75223888
   4        -0.04904956
   5        -0.00000000
   6         0.00000000
   7         0.00000000
   8         0.75223863
   9         0.04904954
  10        -0.00000000
Sym=     9a  
Ene=     0.0130
Spin= Alpha
Occup=    0.00000
   1         0.00000000
   2         0.00000000
   3         0.04904956
   4        -0.75223888
   5         0.00000000
   6        -0.00000000
   7        -0.00000000
   8        -0.04904954
   9         0.75223863
  10         0.00000000
Sym=    10a  
Ene=     0.2352
Spin= Alpha
Occup=    0.00000
   1         0.02872462
   2         0.37411227
   3        -0.00000000
   4         0.00000000
   5         0.84532709
   6        -0.02872463
   7        -0.37411230
   8         0.00000000
   9        -0.00000000
  10         0.84532694
