[Molden Format]
[N_Atoms]
                     2
[Atoms] (AU)
N1          1      7           0.00000000      0.00000000      0.00000000
N2          2      7           0.00000000      0.00000000      4.15739747
[Charge] (Mulliken)
 -1.476254002413135E-003
  1.476254002355404E-003
[GTO] (AU)
   1
   s  14
  7.476171500E+04  1.182599996E-04
  1.112365400E+04  5.172899983E-04
  2.512685700E+03  2.266659992E-03
  7.037772900E+02  9.145289970E-03
  2.254787900E+02  3.239342989E-02
  7.961581000E+01  9.770792967E-02
  3.023728300E+01  2.317036792E-01
  1.226362200E+01  3.768898887E-01
  5.265086000E+00  3.177420689E-01
  2.333471000E+00  8.211308973E-02
  9.018560000E-01  3.312089989E-03
  3.583360000E-01  3.720819988E-03
  1.410930000E-01  3.165419989E-03
  4.938300000E-02  4.595799985E-04
   s  14
  7.476171500E+04 -2.707000010E-05
  1.112365400E+04 -1.183700004E-04
  2.512685700E+03 -5.203800020E-04
  7.037772900E+02 -2.102930008E-03
  2.254787900E+02 -7.568200028E-03
  7.961581000E+01 -2.346767009E-02
  3.023728300E+01 -6.042901023E-02
  1.226362200E+01 -1.170549104E-01
  5.265086000E+00 -1.555321506E-01
  2.333471000E+00 -2.468935009E-02
  9.018560000E-01  3.625054514E-01
  3.583360000E-01  5.550845021E-01
  1.410930000E-01  2.148376908E-01
  4.938300000E-02  8.983850034E-03
   p   9
  1.266665700E+02  1.233630000E-03
  2.983738900E+01  9.493409996E-03
  9.394038000E+00  4.293961998E-02
  3.405104000E+00  1.362925399E-01
  1.350000000E+00  2.921362499E-01
  5.576960000E-01  3.887887598E-01
  2.324490000E-01  2.946801399E-01
  9.426400000E-02  8.012875997E-02
  3.299200000E-02  5.405199998E-04
 
   2
   s  14
  7.476171500E+04  1.182599996E-04
  1.112365400E+04  5.172899983E-04
  2.512685700E+03  2.266659992E-03
  7.037772900E+02  9.145289970E-03
  2.254787900E+02  3.239342989E-02
  7.961581000E+01  9.770792967E-02
  3.023728300E+01  2.317036792E-01
  1.226362200E+01  3.768898887E-01
  5.265086000E+00  3.177420689E-01
  2.333471000E+00  8.211308973E-02
  9.018560000E-01  3.312089989E-03
  3.583360000E-01  3.720819988E-03
  1.410930000E-01  3.165419989E-03
  4.938300000E-02  4.595799985E-04
   s  14
  7.476171500E+04 -2.707000010E-05
  1.112365400E+04 -1.183700004E-04
  2.512685700E+03 -5.203800020E-04
  7.037772900E+02 -2.102930008E-03
  2.254787900E+02 -7.568200028E-03
  7.961581000E+01 -2.346767009E-02
  3.023728300E+01 -6.042901023E-02
  1.226362200E+01 -1.170549104E-01
  5.265086000E+00 -1.555321506E-01
  2.333471000E+00 -2.468935009E-02
  9.018560000E-01  3.625054514E-01
  3.583360000E-01  5.550845021E-01
  1.410930000E-01  2.148376908E-01
  4.938300000E-02  8.983850034E-03
   p   9
  1.266665700E+02  1.233630000E-03
  2.983738900E+01  9.493409996E-03
  9.394038000E+00  4.293961998E-02
  3.405104000E+00  1.362925399E-01
  1.350000000E+00  2.921362499E-01
  5.576960000E-01  3.887887598E-01
  2.324490000E-01  2.946801399E-01
  9.426400000E-02  8.012875997E-02
  3.299200000E-02  5.405199998E-04
 
[MO]
Sym=     1a  
Ene=   -15.5970
Spin= Alpha
Occup=    2.00000
   1         0.99779640
   2        -0.00575300
   3        -0.00000000
   4        -0.00000000
   5         0.00062571
   6         0.06609070
   7        -0.00162431
   8         0.00000000
   9         0.00000000
  10         0.00013208
Sym=     2a  
Ene=   -15.5960
Spin= Alpha
Occup=    2.00000
   1        -0.06615546
   2         0.00079159
   3        -0.00000000
   4        -0.00000000
   5         0.00045378
   6         0.99762032
   7        -0.01914721
   8        -0.00000000
   9        -0.00000000
  10        -0.00239672
Sym=     3a  
Ene=    -0.9450
Spin= Alpha
Occup=    2.00000
   1        -0.00496460
   2        -0.98509978
   3         0.00000000
   4        -0.00000000
   5        -0.00925304
   6         0.00349092
   7        -0.01241855
   8         0.00000000
   9         0.00000000
  10         0.08218059
Sym=     4a  
Ene=    -0.4370
Spin= Alpha
Occup=    2.00000
   1        -0.00000000
   2        -0.00000000
   3        -0.00362961
   4         0.05566483
   5         0.00000000
   6        -0.00000000
   7         0.00000000
   8        -0.06478595
   9         0.99357704
  10        -0.00000000
Sym=     5a  
Ene=    -0.4365
Spin= Alpha
Occup=    2.00000
   1         0.00000000
   2         0.00000000
   3         0.99391623
   4         0.06480807
   5         0.00000000
   6        -0.00000000
   7        -0.00000000
   8         0.05238963
   9         0.00341605
  10         0.00000000
Sym=     6a  
Ene=    -0.3822
Spin= Alpha
Occup=    2.00000
   1         0.00747604
   2         0.15666241
   3         0.00000000
   4         0.00000000
   5        -0.66395732
   6         0.00534806
   7        -0.07410913
   8         0.00000000
   9         0.00000000
  10         0.64654593
Sym=     7a  
Ene=    -0.9085
Spin= Alpha
Occup=    1.96609
   1        -0.00262639
   2        -0.06239871
   3         0.00000000
   4         0.00000000
   5        -0.06251098
   6         0.02016102
   7         0.99669163
   8         0.00000000
   9         0.00000000
  10         0.13914910
Sym=     8a  
Ene=    -0.0000
Spin= Alpha
Occup=    0.03391
   1        -0.00000000
   2        -0.00000000
   3        -0.10168607
   4        -0.00663042
   5        -0.00000000
   6         0.00000000
   7         0.00000000
   8         0.99772985
   9         0.06505673
  10        -0.00000000
Sym=     9a  
Ene=     0.0767
Spin= Alpha
Occup=    0.00000
   1         0.00820101
   2         0.15743142
   3        -0.00000000
   4         0.00000000
   5         0.77137907
   6        -0.00820716
   7        -0.15577810
   8         0.00000000
   9         0.00000000
  10         0.77182595
Sym=    10a  
Ene=     0.1100
Spin= Alpha
Occup=    0.00000
   1         0.00000000
   2         0.00000000
   3         0.06504517
   4        -0.99755248
   5         0.00000000
   6        -0.00000000
   7        -0.00000000
   8        -0.00684314
   9         0.10494849
  10         0.00000000
