[Molden Format]
[N_Atoms]
                     2
[Atoms] (AU)
N1          1      7           0.00000000      0.00000000      0.00000000
N2          2      7           0.00000000      0.00000000      4.15739747
[Charge] (Mulliken)
  9.265779254974404E-010
 -9.265903599953162E-010
[GTO] (AU)
   1
   s  14
  7.476171500E+04  1.182599996E-04
  1.112365400E+04  5.172899983E-04
  2.512685700E+03  2.266659992E-03
  7.037772900E+02  9.145289970E-03
  2.254787900E+02  3.239342989E-02
  7.961581000E+01  9.770792967E-02
  3.023728300E+01  2.317036792E-01
  1.226362200E+01  3.768898887E-01
  5.265086000E+00  3.177420689E-01
  2.333471000E+00  8.211308973E-02
  9.018560000E-01  3.312089989E-03
  3.583360000E-01  3.720819988E-03
  1.410930000E-01  3.165419989E-03
  4.938300000E-02  4.595799985E-04
   s  14
  7.476171500E+04 -2.707000010E-05
  1.112365400E+04 -1.183700004E-04
  2.512685700E+03 -5.203800020E-04
  7.037772900E+02 -2.102930008E-03
  2.254787900E+02 -7.568200028E-03
  7.961581000E+01 -2.346767009E-02
  3.023728300E+01 -6.042901023E-02
  1.226362200E+01 -1.170549104E-01
  5.265086000E+00 -1.555321506E-01
  2.333471000E+00 -2.468935009E-02
  9.018560000E-01  3.625054514E-01
  3.583360000E-01  5.550845021E-01
  1.410930000E-01  2.148376908E-01
  4.938300000E-02  8.983850034E-03
   p   9
  1.266665700E+02  1.233630000E-03
  2.983738900E+01  9.493409996E-03
  9.394038000E+00  4.293961998E-02
  3.405104000E+00  1.362925399E-01
  1.350000000E+00  2.921362499E-01
  5.576960000E-01  3.887887598E-01
  2.324490000E-01  2.946801399E-01
  9.426400000E-02  8.012875997E-02
  3.299200000E-02  5.405199998E-04
 
   2
   s  14
  7.476171500E+04  1.182599996E-04
  1.112365400E+04  5.172899983E-04
  2.512685700E+03  2.266659992E-03
  7.037772900E+02  9.145289970E-03
  2.254787900E+02  3.239342989E-02
  7.961581000E+01  9.770792967E-02
  3.023728300E+01  2.317036792E-01
  1.226362200E+01  3.768898887E-01
  5.265086000E+00  3.177420689E-01
  2.333471000E+00  8.211308973E-02
  9.018560000E-01  3.312089989E-03
  3.583360000E-01  3.720819988E-03
  1.410930000E-01  3.165419989E-03
  4.938300000E-02  4.595799985E-04
   s  14
  7.476171500E+04 -2.707000010E-05
  1.112365400E+04 -1.183700004E-04
  2.512685700E+03 -5.203800020E-04
  7.037772900E+02 -2.102930008E-03
  2.254787900E+02 -7.568200028E-03
  7.961581000E+01 -2.346767009E-02
  3.023728300E+01 -6.042901023E-02
  1.226362200E+01 -1.170549104E-01
  5.265086000E+00 -1.555321506E-01
  2.333471000E+00 -2.468935009E-02
  9.018560000E-01  3.625054514E-01
  3.583360000E-01  5.550845021E-01
  1.410930000E-01  2.148376908E-01
  4.938300000E-02  8.983850034E-03
   p   9
  1.266665700E+02  1.233630000E-03
  2.983738900E+01  9.493409996E-03
  9.394038000E+00  4.293961998E-02
  3.405104000E+00  1.362925399E-01
  1.350000000E+00  2.921362499E-01
  5.576960000E-01  3.887887598E-01
  2.324490000E-01  2.946801399E-01
  9.426400000E-02  8.012875997E-02
  3.299200000E-02  5.405199998E-04
 
[MO]
Sym=     1a  
Ene=   -15.6320
Spin= Alpha
Occup=    1.00000
   1         0.70706553
   2        -0.00444535
   3        -0.00000000
   4        -0.00000000
   5         0.00023432
   6         0.70706623
   7        -0.00444536
   8         0.00000000
   9        -0.00000000
  10        -0.00023432
Sym=     1a  
Ene=   -15.6320
Spin= Beta
Occup=    1.00000
   1         0.70706553
   2        -0.00444535
   3        -0.00000000
   4        -0.00000000
   5         0.00023432
   6         0.70706623
   7        -0.00444536
   8         0.00000000
   9        -0.00000000
  10        -0.00023432
Sym=     2a  
Ene=   -15.6320
Spin= Alpha
Occup=    1.00000
   1        -0.70712816
   2         0.00394293
   3        -0.00000000
   4         0.00000000
   5        -0.00059259
   6         0.70712745
   7        -0.00394293
   8         0.00000000
   9        -0.00000000
  10        -0.00059259
Sym=     2a  
Ene=   -15.6320
Spin= Beta
Occup=    1.00000
   1        -0.70712816
   2         0.00394293
   3        -0.00000000
   4         0.00000000
   5        -0.00059259
   6         0.70712745
   7        -0.00394293
   8         0.00000000
   9        -0.00000000
  10        -0.00059259
Sym=     3a  
Ene=    -1.0021
Spin= Alpha
Occup=    1.00000
   1         0.00118657
   2         0.67339627
   3         0.00000000
   4         0.00000000
   5         0.04553466
   6         0.00118657
   7         0.67339627
   8        -0.00000000
   9        -0.00000000
  10        -0.04553466
Sym=     3a  
Ene=    -1.0021
Spin= Beta
Occup=    1.00000
   1         0.00118657
   2         0.67339627
   3         0.00000000
   4         0.00000000
   5         0.04553466
   6         0.00118657
   7         0.67339627
   8        -0.00000000
   9        -0.00000000
  10        -0.04553466
Sym=     4a  
Ene=    -0.9064
Spin= Alpha
Occup=    1.00000
   1        -0.00641818
   2        -0.72671567
   3         0.00000000
   4         0.00000000
   5         0.06099545
   6         0.00641818
   7         0.72671567
   8         0.00000000
   9         0.00000000
  10         0.06099545
Sym=     4a  
Ene=    -0.9064
Spin= Beta
Occup=    1.00000
   1        -0.00641818
   2        -0.72671567
   3         0.00000000
   4         0.00000000
   5         0.06099545
   6         0.00641818
   7         0.72671567
   8         0.00000000
   9         0.00000000
  10         0.06099545
Sym=     5a  
Ene=    -0.3740
Spin= Alpha
Occup=    1.00000
   1         0.00675205
   2         0.12371946
   3        -0.00000000
   4        -0.00000000
   5        -0.66297820
   6         0.00675205
   7         0.12371946
   8         0.00000000
   9         0.00000000
  10         0.66297820
Sym=     5a  
Ene=    -0.3740
Spin= Beta
Occup=    1.00000
   1         0.00675205
   2         0.12371946
   3        -0.00000000
   4        -0.00000000
   5        -0.66297820
   6         0.00675205
   7         0.12371946
   8         0.00000000
   9         0.00000000
  10         0.66297820
Sym=     6a  
Ene=    -0.3147
Spin= Alpha
Occup=    1.00000
   1         0.00000000
   2         0.00000000
   3         0.16062708
   4         0.67128875
   5         0.00000000
   6        -0.00000000
   7        -0.00000000
   8         0.16062709
   9         0.67128875
  10         0.00000000
Sym=     6a  
Ene=    -0.3147
Spin= Beta
Occup=    1.00000
   1         0.00000000
   2         0.00000000
   3         0.16062708
   4         0.67128875
   5         0.00000000
   6        -0.00000000
   7        -0.00000000
   8         0.16062709
   9         0.67128875
  10         0.00000000
Sym=     7a  
Ene=    -0.3147
Spin= Alpha
Occup=    1.00000
   1         0.00000000
   2         0.00000000
   3         0.67128875
   4        -0.16062708
   5         0.00000000
   6        -0.00000000
   7        -0.00000000
   8         0.67128875
   9        -0.16062709
  10         0.00000000
Sym=     7a  
Ene=    -0.3147
Spin= Beta
Occup=    1.00000
   1         0.00000000
   2         0.00000000
   3         0.67128875
   4        -0.16062708
   5         0.00000000
   6        -0.00000000
   7        -0.00000000
   8         0.67128875
   9        -0.16062709
  10         0.00000000
Sym=     8a  
Ene=    -0.0359
Spin= Alpha
Occup=    0.00000
   1        -0.00000000
   2        -0.00000000
   3        -0.43246294
   4        -0.58223684
   5         0.00000000
   6        -0.00000000
   7        -0.00000000
   8         0.43246294
   9         0.58223684
  10        -0.00000000
Sym=     8a  
Ene=    -0.0359
Spin= Beta
Occup=    0.00000
   1        -0.00000000
   2        -0.00000000
   3        -0.43246294
   4        -0.58223684
   5         0.00000000
   6        -0.00000000
   7        -0.00000000
   8         0.43246294
   9         0.58223684
  10        -0.00000000
Sym=     9a  
Ene=    -0.0359
Spin= Alpha
Occup=    0.00000
   1         0.00000000
   2         0.00000000
   3        -0.58223684
   4         0.43246294
   5        -0.00000000
   6         0.00000000
   7         0.00000000
   8         0.58223684
   9        -0.43246294
  10         0.00000000
Sym=     9a  
Ene=    -0.0359
Spin= Beta
Occup=    0.00000
   1         0.00000000
   2         0.00000000
   3        -0.58223684
   4         0.43246294
   5        -0.00000000
   6         0.00000000
   7         0.00000000
   8         0.58223684
   9        -0.43246294
  10         0.00000000
Sym=    10a  
Ene=     0.0637
Spin= Alpha
Occup=    0.00000
   1         0.00829506
   2         0.16357456
   3        -0.00000000
   4        -0.00000000
   5         0.77105413
   6        -0.00829506
   7        -0.16357456
   8        -0.00000000
   9        -0.00000000
  10         0.77105413
Sym=    10a  
Ene=     0.0637
Spin= Beta
Occup=    0.00000
   1         0.00829506
   2         0.16357456
   3        -0.00000000
   4        -0.00000000
   5         0.77105413
   6        -0.00829506
   7        -0.16357456
   8        -0.00000000
   9        -0.00000000
  10         0.77105413
