[Molden Format]
[N_Atoms]
                     2
[Atoms] (AU)
N1          1      7           0.00000000      0.00000000      0.00000000
N2          2      7           0.00000000      0.00000000      4.15739747
[Charge] (Mulliken)
   1.00012211077279     
  0.999877889227189     
[GTO] (AU)
   1
   s  14
  7.476171500E+04  1.182599996E-04
  1.112365400E+04  5.172899983E-04
  2.512685700E+03  2.266659992E-03
  7.037772900E+02  9.145289970E-03
  2.254787900E+02  3.239342989E-02
  7.961581000E+01  9.770792967E-02
  3.023728300E+01  2.317036792E-01
  1.226362200E+01  3.768898887E-01
  5.265086000E+00  3.177420689E-01
  2.333471000E+00  8.211308973E-02
  9.018560000E-01  3.312089989E-03
  3.583360000E-01  3.720819988E-03
  1.410930000E-01  3.165419989E-03
  4.938300000E-02  4.595799985E-04
   s  14
  7.476171500E+04 -2.707000010E-05
  1.112365400E+04 -1.183700004E-04
  2.512685700E+03 -5.203800020E-04
  7.037772900E+02 -2.102930008E-03
  2.254787900E+02 -7.568200028E-03
  7.961581000E+01 -2.346767009E-02
  3.023728300E+01 -6.042901023E-02
  1.226362200E+01 -1.170549104E-01
  5.265086000E+00 -1.555321506E-01
  2.333471000E+00 -2.468935009E-02
  9.018560000E-01  3.625054514E-01
  3.583360000E-01  5.550845021E-01
  1.410930000E-01  2.148376908E-01
  4.938300000E-02  8.983850034E-03
   p   9
  1.266665700E+02  1.233630000E-03
  2.983738900E+01  9.493409996E-03
  9.394038000E+00  4.293961998E-02
  3.405104000E+00  1.362925399E-01
  1.350000000E+00  2.921362499E-01
  5.576960000E-01  3.887887598E-01
  2.324490000E-01  2.946801399E-01
  9.426400000E-02  8.012875997E-02
  3.299200000E-02  5.405199998E-04
 
   2
   s  14
  7.476171500E+04  1.182599996E-04
  1.112365400E+04  5.172899983E-04
  2.512685700E+03  2.266659992E-03
  7.037772900E+02  9.145289970E-03
  2.254787900E+02  3.239342989E-02
  7.961581000E+01  9.770792967E-02
  3.023728300E+01  2.317036792E-01
  1.226362200E+01  3.768898887E-01
  5.265086000E+00  3.177420689E-01
  2.333471000E+00  8.211308973E-02
  9.018560000E-01  3.312089989E-03
  3.583360000E-01  3.720819988E-03
  1.410930000E-01  3.165419989E-03
  4.938300000E-02  4.595799985E-04
   s  14
  7.476171500E+04 -2.707000010E-05
  1.112365400E+04 -1.183700004E-04
  2.512685700E+03 -5.203800020E-04
  7.037772900E+02 -2.102930008E-03
  2.254787900E+02 -7.568200028E-03
  7.961581000E+01 -2.346767009E-02
  3.023728300E+01 -6.042901023E-02
  1.226362200E+01 -1.170549104E-01
  5.265086000E+00 -1.555321506E-01
  2.333471000E+00 -2.468935009E-02
  9.018560000E-01  3.625054514E-01
  3.583360000E-01  5.550845021E-01
  1.410930000E-01  2.148376908E-01
  4.938300000E-02  8.983850034E-03
   p   9
  1.266665700E+02  1.233630000E-03
  2.983738900E+01  9.493409996E-03
  9.394038000E+00  4.293961998E-02
  3.405104000E+00  1.362925399E-01
  1.350000000E+00  2.921362499E-01
  5.576960000E-01  3.887887598E-01
  2.324490000E-01  2.946801399E-01
  9.426400000E-02  8.012875997E-02
  3.299200000E-02  5.405199998E-04
 
[MO]
Sym=     1a  
Ene=   -16.7540
Spin= Alpha
Occup=    2.00000
   1        -0.00103475
   2        -0.00026670
   3         0.00000000
   4        -0.00000000
   5        -0.00021609
   6         0.99997371
   7        -0.00758377
   8         0.00000000
   9        -0.00000000
  10         0.00007613
Sym=     2a  
Ene=   -16.7500
Spin= Alpha
Occup=    2.00000
   1        -0.99978897
   2         0.02052640
   3        -0.00000000
   4         0.00000000
   5         0.00077827
   6        -0.00103024
   7        -0.00072582
   8        -0.00000000
   9         0.00000000
  10        -0.00036534
Sym=     3a  
Ene=    -1.7748
Spin= Alpha
Occup=    2.00000
   1         0.00408138
   2         0.01638536
   3        -0.00000000
   4         0.00000000
   5        -0.01453685
   6        -0.00754772
   7        -0.99721908
   8        -0.00000000
   9         0.00000000
  10         0.06334366
Sym=     4a  
Ene=    -1.2886
Spin= Alpha
Occup=    2.00000
   1         0.00000000
   2        -0.00000000
   3        -0.00924964
   4         0.02852561
   5        -0.00000000
   6         0.00000000
   7         0.00000000
   8        -0.30919648
   9         0.94896620
  10         0.00000001
Sym=     5a  
Ene=    -1.2867
Spin= Alpha
Occup=    2.00000
   1         0.00000000
   2         0.00000000
   3         0.94891446
   4         0.30918559
   5         0.00000000
   6        -0.00000000
   7        -0.00000000
   8         0.02915256
   9         0.00945344
  10        -0.00000000
Sym=     6a  
Ene=    -0.7618
Spin= Alpha
Occup=    0.03596
   1        -0.00052437
   2         0.04349135
   3         0.00000000
   4        -0.00000000
   5        -1.00980048
   6         0.01002152
   7         0.14621207
   8         0.00000000
   9        -0.00000000
  10        -0.02606917
Sym=     7a  
Ene=    -0.1945
Spin= Alpha
Occup=    1.96404
   1        -0.02076484
   2        -1.00056165
   3         0.00000000
   4        -0.00000000
   5        -0.05623219
   6         0.00454791
   7         0.08101790
   8         0.00000000
   9        -0.00000000
  10         0.01050996
Sym=     8a  
Ene=    -0.7423
Spin= Alpha
Occup=    0.00000
   1        -0.00000000
   2        -0.00000000
   3         0.07615959
   4         0.02487777
   5        -0.00000000
   6         0.00000000
   7        -0.00000000
   8        -0.95152112
   9        -0.31003532
  10        -0.00000000
Sym=     9a  
Ene=    -0.7404
Spin= Alpha
Occup=    0.00000
   1         0.00000000
   2         0.00000002
   3         0.31004689
   4        -0.95153835
   5         0.00000002
   6        -0.00000000
   7         0.00000000
   8        -0.02467393
   9         0.07553454
  10         0.00000012
Sym=    10a  
Ene=    -0.7390
Spin= Alpha
Occup=    0.00000
   1         0.01008584
   2         0.14132113
   3        -0.00000004
   4         0.00000011
   5         0.12956765
   6        -0.00152519
   7         0.03508362
   8         0.00000001
   9        -0.00000002
  10         1.01737712
