   This run of MOLCAS is using the pymolcas driver

                             OPE
                             OPE          NMOL  CASOP  ENMOLC A   SO
                 OPE        NMOLC        AS  OP EN  MO LC     AS  OP
                OPENM       OL CA        SO  PE NM  OL CA     SOP EN
                OP EN      MO   LC       AS  OP ENMOL  CASO   PENMOL
                OP  EN     MO   LC       AS  OP EN     MO     LC ASO
               OP   E  NMOL  C  AS       OP  EN MO     LC     AS  OP
               OP  E   NMO   LC AS        OPEN  MO     LCASOP EN   M
               O  PEN   MO  LCA  SO
            OPE   NMO   L   CAS    OP
        OPENMOL  CASOP     ENMOL   CASOPE
     OPENMOLCA   SOPENMOLCASOPEN   MOLCASOPE
    OPENMOLCAS   OP           EN   MOL    CAS
    OPENMOLCAS       OP  ENM        O     LCA
    OPENMOLCAS    OPEN  MOLCASO     P  E  NMO
    OPENMOLCAS     OP               E  N  MOL
    OPENMOLCA   SO           PENM   O  L  CAS    OPEN    MO    LCAS
    OPENMOLCA   SOP           ENM   O  L  CAS   OP  EN  MOLC  AS   O
    OPENMOLCA   SOPE           NM      O  LCA   S      OP  EN MO
    OPENMOLC                AS         O  PEN   M      OL  CA  SOPE
    OPENMO        LCASOPE  NMOL        C  ASO   P      ENMOLC     AS
    OPE     NMO      LCA  SO     P     E   NM   OL  CA SO  PE N   MO
          OPENMOLCA            SOPE   NMO        LCAS  O    P  ENMO
     OPENMOLCASOPENMOLCASOPENMOLCASOPENMOLCA
        OPENMOLCASOPENMOLCASOPENMOLCASOPE
            OPENMOLCASOPENMOLCASOPENM
               OPENMOLCASOPENMOLCA        version: ea724fe96-dirty
                   OPENMOLCASO
                       OPE                tag:

 OpenMolcas is free software; you can redistribute it and/or modify it
 under the terms of the GNU Lesser General Public License version 2.1.
 OpenMolcas is distributed in the hope that it will be useful, but it
 is provided "as is" and without any express or implied warranties.
 For more details see the full text of the license in the file
 LICENSE or in <http://www.gnu.org/licenses/>.

                 Copyright (C) The OpenMolcas Authors
           For the author list and the recommended citation,
                   consult the file CONTRIBUTORS.md

           *************************************************
           * pymolcas version py2.28                       *
           *   build c4a6d18ded8cb6cad61d2372a9abd97c      *
           *   (after the EMIL interpreter by V. Veryazov) *
           *************************************************

configuration info
------------------
C Compiler ID: Intel
C flags: -std=gnu99
Fortran Compiler ID: Intel
Fortran flags: -fpp -i8 -r8 -heap-arrays
Definitions: _MOLCAS_;_I8_;_LINUX_
Parallel: OFF (GA=OFF)


   -------------------------------------------------------------------------------
  |
  |              Project: 2.23
  |       Submitted from: /home/grierjones/DDCASPT2/iron_oxo_DDCASPT2/cluster/2.23
  |         Scratch area: /tmp/2.23
  |      Save outputs to: /home/grierjones/DDCASPT2/iron_oxo_DDCASPT2/cluster/2.23
  |               Molcas: /home/grierjones/Test/build
  |
  | Scratch area is empty
  |
  |       MOLCAS_DRIVER = /usr/local/pymolcas
  | MOLCAS_KEEP_WORKDIR = NO
  |  MOLCAS_NEW_WORKDIR = YES
  |       MOLCAS_NPROCS = 1
  |        MOLCAS_PRINT = NORMAL
  |       MOLCAS_SOURCE = /home/grierjones/Test/build
  |    MOLCAS_STRUCTURE = 0
  |
   -------------------------------------------------------------------------------

++ ---------   Input file   ---------

&GATEWAY
coord=2.23.xyz
Basis = ANO-RCC-VDZP
Group = nosymm
Expert
End of Input

&SEWARD
End of Input

&SCF
UHF
charge
2
spin
5

>>> COPY $WorkDir/2.23.scf.h5 $CurrDir/

&RASSCF
Title= RASSCF
FileOrb
/home/grierjones/DDCASPT2/iron_oxo_DDCASPT2/cluster/2.22/2.22.RasOrb
NACTEL
10 0 0
RAS2
14
Symmetry
1
Spin
5
charge
2
orblisting
all
ITERation
300 200

>>> COPY $WorkDir/2.23.rasscf.h5 $CurrDir/

>>> COPY $WorkDir/GMJ_Fock_MO.csv $CurrDir/2.23.GMJ_Fock_MO.csv

>>> COPY $WorkDir/GMJ_PT2_Fock_MO.csv $CurrDir/2.23.GMJ_PT2_Fock_MO.csv

&MOTRA
Frozen=0
LUMORB

>>> COPY $WorkDir/GMJ_one_int_indx.csv $CurrDir/2.23.GMJ_one_int_indx.csv

>>> COPY $WorkDir/GMJ_one_int.csv $CurrDir/2.23.GMJ_one_int.csv

>>> COPY $WorkDir/GMJ_two_int_indx.csv $CurrDir/2.23.GMJ_two_int_indx.csv

>>> COPY $WorkDir/GMJ_two_int.csv $CurrDir/2.23.GMJ_two_int.csv

&CASPT2
Frozen
0
MAXITER
50

>>> FOREACH i IN (B,E,F,G,H)

  >>> FOREACH j IN (P,M)

    >>> IF (-FILE GMJ_e2_${i}_${j}.csv)

      >>> COPY $WorkDir/GMJ_RHS_${i}_${j}.csv $CurrDir/GMJ_RHS_${i}_${j}.csv

      >>> COPY $WorkDir/GMJ_IVECW_${i}_${j}.csv $CurrDir/GMJ_IVECW_${i}_${j}.csv

      >>> COPY $WorkDir/GMJ_IVECX_${i}_${j}.csv $CurrDir/GMJ_IVECX_${i}_${j}.csv

      >>> COPY $WorkDir/GMJ_IVECC2_${i}_${j}.csv $CurrDir/GMJ_IVECC2_${i}_${j}.csv

      >>> COPY $WorkDir/GMJ_e2_${i}_${j}.csv $CurrDir/GMJ_e2_${i}_${j}.csv

    >>> END IF

  >>> END FOREACH

>>> END FOREACH

>>> FOREACH i IN (A,C,D)

  >>> IF (-FILE GMJ_e2_$i.csv)

    >>> COPY $WorkDir/GMJ_RHS_$i.csv $CurrDir/GMJ_RHS_$i.csv

    >>> COPY $WorkDir/GMJ_IVECW_$i.csv $CurrDir/GMJ_IVECW_$i.csv

    >>> COPY $WorkDir/GMJ_IVECX_$i.csv $CurrDir/GMJ_IVECX_$i.csv

    >>> COPY $WorkDir/GMJ_IVECC2_$i.csv $CurrDir/GMJ_IVECC2_$i.csv

    >>> COPY $WorkDir/GMJ_e2_$i.csv $CurrDir/GMJ_e2_$i.csv

  >>> END IF

>>> END FOREACH

-- ----------------------------------

--- Start Module: gateway at Sun Dec 22 22:04:50 2024 ---
 
()()()()()()()()()()()()()()()()()()()()()()()()()()()()()()()()()()()()()()()()()()()()()()()()()()

                                              &GATEWAY

                                   only a single process is used
                       available to each process: 2.0 GB of memory, 1 thread?
()()()()()()()()()()()()()()()()()()()()()()()()()()()()()()()()()()()()()()()()()()()()()()()()()()
 
 ###############################################################################
 ###############################################################################
 ###                                                                         ###
 ###                                                                         ###
 ###                                                                         ###
 ###    WARNING: EXPERT option is ON!                                        ###
 ###                                                                         ###
 ###                                                                         ###
 ###############################################################################
 ###############################################################################
 
++    Symmetry information:
      ---------------------
 
                    Character Table for C1 
 
                             E  
                    a        1  x, y, xy, Rz, z, xz, Ry, yz, Rx, I
--
 
 
++    Basis set information:
      ----------------------
 
 
      Basis set label: O.ANO-RCC...3S2P1D.
 
      Electronic valence basis set:
      ------------------
      Associated Effective Charge   8.000000 au
      Associated Actual Charge      8.000000 au
      Nuclear Model: Point charge
 
      Shell  nPrim  nBasis  Cartesian Spherical Contaminant
         s      14       3        X                  
         p       9       2        X                  
         d       4       1                 X         
 
 
      Basis set label: FE.ANO-RCC...5S4P2D1F.
 
      Electronic valence basis set:
      ------------------
      Associated Effective Charge  26.000000 au
      Associated Actual Charge     26.000000 au
      Nuclear Model: Point charge
 
      Shell  nPrim  nBasis  Cartesian Spherical Contaminant
         s      21       5        X                  
         p      15       4        X                  
         d      10       2                 X         
         f       6       1                 X         
--
 
 
++    Molecular structure info:
      -------------------------
 
                    ************************************************ 
                    **** Cartesian Coordinates / Bohr, Angstrom **** 
                    ************************************************ 
 
     Center  Label                x              y              z                     x              y              z
        1      O1               0.000000       0.000000       3.621906              0.000000       0.000000       1.916630
        2      FE2              0.000000       0.000000      -0.598344              0.000000       0.000000      -0.316630
--
 
 
            Nuclear Potential Energy             49.28618245 au
 
 ###############################################################################
 ###############################################################################
 ###                                                                         ###
 ###                                                                         ###
 ###    There were warnings during the execution                             ###
 ###    Please, check the output with care!                                  ###
 ###                                                                         ###
 ###                                                                         ###
 ###############################################################################
 ###############################################################################
--- Stop Module: gateway at Sun Dec 22 22:04:50 2024 /rc=_RC_ALL_IS_WELL_ ---
*** files: xmldump
    saved to directory /home/grierjones/DDCASPT2/iron_oxo_DDCASPT2/cluster/2.23

--- Start Module: seward at Sun Dec 22 22:04:50 2024 ---
 
()()()()()()()()()()()()()()()()()()()()()()()()()()()()()()()()()()()()()()()()()()()()()()()()()()

                                              &SEWARD

                                   only a single process is used
                       available to each process: 2.0 GB of memory, 1 thread?
()()()()()()()()()()()()()()()()()()()()()()()()()()()()()()()()()()()()()()()()()()()()()()()()()()
 
 ###############################################################################
 ###############################################################################
 ###                                                                         ###
 ###                                                                         ###
 ###                                                                         ###
 ###    WARNING: EXPERT option is ON!                                        ###
 ###                                                                         ###
 ###                                                                         ###
 ###############################################################################
 ###############################################################################
               SEWARD will generate:
                  Multipole Moment integrals up to order  2
                  Kinetic Energy integrals
                  Nuclear Attraction integrals (point charge)
                  One-Electron Hamiltonian integrals
                  Velocity integrals
                  Relativistic Douglas-Kroll-Hess integrals:
                    - Parametrization         : EXP
                    - DKH order of Hamiltonian: 2
                    - DKH order of Properties : 0
                         - multipole moment operators
                         - electric potential operators
                         - contact operators
                  Atomic mean-field integrals
                  Two-Electron Repulsion integrals
 
                   Integrals are discarded if absolute value <: 0.10E-13
                   Integral cutoff threshold is set to       <: 0.10E-15
 
            Nuclear Potential Energy             49.28618245 au
 
 
      Basis set specifications :
      Symmetry species         a  
      Basis functions           48
 
 
  Input file to MOLDEN was generated!
 
 ###############################################################################
 ###############################################################################
 ###                                                                         ###
 ###                                                                         ###
 ###    There were warnings during the execution                             ###
 ###    Please, check the output with care!                                  ###
 ###                                                                         ###
 ###                                                                         ###
 ###############################################################################
 ###############################################################################
--- Stop Module: seward at Sun Dec 22 22:04:51 2024 /rc=_RC_ALL_IS_WELL_ ---
*** files: 2.23.GssOrb 2.23.guessorb.h5 2.23.guessorb.molden xmldump
    saved to directory /home/grierjones/DDCASPT2/iron_oxo_DDCASPT2/cluster/2.23
--- Module seward spent 1 second ---

*** symbolic link created: INPORB -> 2.23.GssOrb
--- Start Module: scf at Sun Dec 22 22:04:51 2024 ---
 
()()()()()()()()()()()()()()()()()()()()()()()()()()()()()()()()()()()()()()()()()()()()()()()()()()

                                                &SCF

                                   only a single process is used
                       available to each process: 2.0 GB of memory, 1 thread?
()()()()()()()()()()()()()()()()()()()()()()()()()()()()()()()()()()()()()()()()()()()()()()()()()()
 
 *** Possible bug in opening file
 *** isFreeUnit resets the unit number
++    Input section:
      --------------
 
      Header of the integral files:
      
       Integrals generated by seward 4.2.0  , Sun Dec 22 22:04:50 2024
 
 
      Cartesian coordinates in Angstrom:
      -----------------------------------------------------
      No.  Label        X            Y            Z        
      -----------------------------------------------------
       1   O1         0.00000000   0.00000000   1.91663000
       2   FE2        0.00000000   0.00000000  -0.31663000
      -----------------------------------------------------
      Nuclear repulsion energy =   49.28618245
--
 
++    Orbital specifications:
      -----------------------
 
      Symmetry species               1
                                     a
      Frozen orbitals                0
      Start temperature = 0.500
      End temperature   = 0.010
      Temperature Factor= 0.460
      Deleted orbitals               0
      Total number of orbitals      48
      Number of basis functions     48
--
 
      Molecular charge                           2.000
 
++    Optimization specifications:
      ----------------------------
 
      SCF Algorithm: Conventional USCF
      D(i)-D(i-1) density differences are used
      Number of density matrices in core                5
      Maximum number of NDDO SCF iterations           400
      Maximum number of HF SCF iterations             400
      Threshold for SCF energy change            0.10E-08
      Threshold for density matrix               0.10E-03
      Threshold for Fock matrix                  0.15E-03
      Threshold for linear dependence            0.10E-08
      Threshold at which DIIS is turned on       0.15E+00
      Threshold at which QNR/C2DIIS is turned on 0.75E-01
      Threshold for Norm(delta) (QNR/C2DIIS)     0.20E-04
      DIIS extrapolation of the SCF procedure
      All orbitals punched on: UHFORB
--
 
      Input vectors read from INPORB
      Orbital file label: *Guess orbitals
 
 
++ Convergence information
                               UHF SCF        iterations: Energy and convergence statistics
 
Iter     Tot. SCF        One-elec.       Two-elec.     Energy      Max Dij or  Max Fij      DNorm      TNorm      AccCon     Time
         Energy          Energy          Energy        Change      Delta Norm                                                in Sec.
 
 The total and one-electron energies are shifted by a value of      1000. a.u.
 
   1  -343.137653791  -928.147215448   535.723379207   0.00E+00    0.15E+00*   0.84E+00*    0.75E+01   0.19E+03   None         0.
   2  -343.450456302  -924.476695961   531.740057209  -0.31E+00*   0.22E+00*   0.28E+00*    0.12E+01   0.18E+03   EDIIS        0.
   3  -341.846588281  -970.187174637   579.054403906   0.16E+01*   0.87E-01*   0.21E+00*    0.20E+01   0.19E+03   EDIIS        0.
   4  -343.648879381  -917.196312217   524.261250386  -0.18E+01*   0.23E+00*   0.13E+00*    0.16E+01   0.18E+03   EDIIS        0.
   5  -344.511355760  -942.461618085   548.664079875  -0.86E+00*   0.44E+00*   0.13E+00*    0.15E+01   0.19E+03   EDIIS        0.
   6  -344.839092926  -926.276080452   532.150805076  -0.33E+00*   0.54E+00*   0.35E+00*    0.13E+01   0.18E+03   EDIIS        0.
   7  -344.378604983  -942.289017857   548.624230423   0.46E+00*   0.13E+00*   0.10E+00*    0.22E+01   0.19E+03   EDIIS        0.
   8  -345.127400871  -932.584724532   538.171141210  -0.75E+00*   0.53E+00*   0.22E+00*    0.16E+01   0.19E+03   EDIIS        0.
   9  -345.286010768  -929.367029234   534.794836015  -0.16E+00*   0.10E+00*   0.22E+00*    0.13E+01   0.19E+03   EDIIS        0.
  10  -345.320120669  -931.749828845   537.143525726  -0.34E-01*   0.67E-01*   0.55E-01*    0.53E+00   0.19E+03   EDIIS        0.
  11  -345.325534355  -930.558136137   535.946419332  -0.54E-02*   0.25E-01*   0.24E-01*    0.20E+00   0.19E+03   EDIIS        0.
 
       Fermi aufbau procedure completed!
      nOcc(alpha)=   18
      nOcc(beta) =   14
 
  12  -345.326637580  -931.130256936   536.517436906  -0.11E-02*   0.12E-01*   0.59E-02*    0.87E-01   0.19E+03   EDIIS        0.
  13  -345.326907366  -930.866284897   536.253195080  -0.27E-03*   0.77E-02*   0.34E-02*    0.40E-01   0.19E+03   EDIIS        0.
  14  -345.326993232  -930.976232550   536.363056868  -0.86E-04*   0.47E-02*   0.15E-02*    0.23E-01   0.19E+03   EDIIS        0.
  15  -345.327025922  -930.922952316   536.309743943  -0.33E-04*   0.30E-02*   0.13E-02*    0.14E-01   0.19E+03   EDIIS        0.
  16  -345.327039821  -930.941504491   536.328282219  -0.14E-04*   0.14E-02*   0.21E-02*    0.90E-02   0.19E+03   c2DIIS       0.
  17  -345.327050453  -930.909158257   536.295925354  -0.11E-04*   0.15E-02*   0.58E-03*    0.54E-02   0.19E+03   QNRc2DIIS    0.
  18  -345.327051219  -930.937550191   536.324316522  -0.77E-06*   0.48E-03*   0.24E-03*    0.22E-02   0.19E+03   QNRc2DIIS    0.
  19  -345.327051388  -930.929182067   536.315948229  -0.17E-06*   0.49E-03*   0.45E-04     0.70E-03   0.19E+03   QNRc2DIIS    0.
  20  -345.327051410  -930.928544486   536.315310625  -0.22E-07*   0.67E-04*   0.10E-04     0.68E-03   0.19E+03   QNRc2DIIS    0.
  21  -345.327051411  -930.928489916   536.315256055  -0.85E-09    0.73E-04*   0.60E-05     0.95E-04   0.19E+03   QNRc2DIIS    0.
  22  -345.327051411  -930.928509091   536.315275229  -0.55E-09    0.36E-05    0.54E-06     0.10E-03   0.19E+03   QNRc2DIIS    0.
 
       Convergence after 22 Macro Iterations
--
 
 *****************************************************************************************************************************
 *                                                                                                                           *
 *                                             SCF/KS-DFT Program, Final results                                             *
 *                                                                                                                           *
 *                                                                                                                           *
 *                                                                                                                           *
 *                                                       Final Results                                                       *
 *                                                                                                                           *
 *****************************************************************************************************************************
 
::    Total SCF energy                              -1345.3270514112
      One-electron energy                           -1930.9285090906
      Two-electron energy                             536.3152752288
      Nuclear repulsion energy                         49.2861824505
      Kinetic energy (interpolated)                  1399.9572882026
      Virial theorem                                    0.9609772118
      Total spin, S(S+1)                                8.0025109029
      Total spin, S                                     2.3727183821
      Max non-diagonal density matrix element           0.0000025746
      Max non-diagonal Fock matrix element              0.0000002779
 
 
      All orbitals with orbital energies smaller than  E(LUMO)+0.5 are printed
 
++    Molecular orbitals:
      -------------------
 
      Title: UHF orbitals (alpha)

      Molecular orbitals for symmetry species 1: a  
 
          Orbital            1         2         3         4         5         6         7         8         9        10    
          Energy         -264.5678  -33.4462  -28.5103  -28.5099  -28.5099  -21.1674   -5.3946   -3.9351   -3.9351   -3.9341
          Occ. No.          1.0000    1.0000    1.0000    1.0000    1.0000    1.0000    1.0000    1.0000    1.0000    1.0000
 
        1 O1     1s        -0.0000    0.0000   -0.0000    0.0000    0.0000    1.0000    0.0003    0.0000    0.0000    0.0002
        2 O1     2s        -0.0000    0.0001   -0.0001    0.0000    0.0000   -0.0017    0.0027    0.0000    0.0000    0.0032
        3 O1     3s        -0.0000    0.0001   -0.0001    0.0000    0.0000    0.0009    0.0022    0.0000    0.0000    0.0014
        4 O1     2px       -0.0000    0.0000   -0.0000   -0.0001   -0.0000   -0.0000   -0.0000    0.0004   -0.0000    0.0000
        5 O1     3px       -0.0000   -0.0000   -0.0000   -0.0002   -0.0000    0.0000    0.0000    0.0003   -0.0000   -0.0000
        6 O1     2py       -0.0000    0.0000   -0.0000    0.0000   -0.0001   -0.0000   -0.0000    0.0000    0.0004    0.0000
        7 O1     3py       -0.0000    0.0000   -0.0000    0.0000   -0.0002    0.0000   -0.0000    0.0000    0.0003    0.0000
        8 O1     2pz        0.0000   -0.0001   -0.0001    0.0000    0.0000   -0.0007   -0.0024   -0.0000    0.0000   -0.0024
        9 O1     3pz        0.0000   -0.0002   -0.0002    0.0000    0.0000   -0.0002   -0.0025   -0.0000    0.0000   -0.0010
       10 O1     3d2-      -0.0000   -0.0000    0.0000    0.0000   -0.0000   -0.0000   -0.0000   -0.0000   -0.0000    0.0000
       11 O1     3d1-       0.0000   -0.0000    0.0000    0.0000   -0.0000    0.0000   -0.0000   -0.0000   -0.0003   -0.0000
       12 O1     3d0       -0.0000    0.0000    0.0001   -0.0000   -0.0000    0.0011    0.0005    0.0000    0.0000    0.0001
       13 O1     3d1+      -0.0000   -0.0000    0.0000   -0.0000   -0.0000   -0.0000    0.0000   -0.0003    0.0000    0.0000
       14 O1     3d2+      -0.0000    0.0000    0.0000    0.0000    0.0000   -0.0000   -0.0000    0.0000    0.0000    0.0000
       15 FE2    1s         1.0000   -0.0000   -0.0000    0.0000    0.0000   -0.0000   -0.0000   -0.0000    0.0000   -0.0000
       16 FE2    2s         0.0000    1.0000   -0.0001    0.0000    0.0000   -0.0000   -0.0036   -0.0000   -0.0000   -0.0001
       17 FE2    3s        -0.0000    0.0034    0.0000   -0.0000   -0.0000   -0.0002    0.9992   -0.0000   -0.0000   -0.0024
       18 FE2    4s         0.0000   -0.0005   -0.0001    0.0000    0.0000   -0.0007   -0.0101    0.0000   -0.0000   -0.0014
       19 FE2    5s        -0.0000    0.0004    0.0001   -0.0000   -0.0000    0.0000    0.0084   -0.0000   -0.0000   -0.0004
       20 FE2    2px       -0.0000    0.0000    0.0000    0.9981    0.0613   -0.0000    0.0000   -0.0035    0.0001    0.0000
       21 FE2    3px       -0.0000    0.0000    0.0000    0.0034    0.0002    0.0000    0.0000    0.9987   -0.0425   -0.0000
       22 FE2    4px        0.0000    0.0000   -0.0000   -0.0005   -0.0000   -0.0000   -0.0000   -0.0187    0.0008    0.0000
       23 FE2    5px       -0.0000   -0.0000    0.0000    0.0015    0.0001   -0.0000    0.0000    0.0176   -0.0007   -0.0000
       24 FE2    2py        0.0000   -0.0000    0.0000   -0.0613    0.9981   -0.0000   -0.0000   -0.0001   -0.0035    0.0000
       25 FE2    3py       -0.0000    0.0000    0.0000   -0.0002    0.0034    0.0000    0.0000    0.0425    0.9987   -0.0000
       26 FE2    4py        0.0000   -0.0000   -0.0000    0.0000   -0.0005   -0.0000    0.0000   -0.0008   -0.0187    0.0000
       27 FE2    5py        0.0000    0.0000    0.0000   -0.0001    0.0015   -0.0000    0.0000    0.0007    0.0176   -0.0000
       28 FE2    2pz        0.0000    0.0001    1.0000   -0.0000   -0.0000   -0.0000   -0.0001   -0.0000   -0.0000   -0.0035
       29 FE2    3pz       -0.0000    0.0000    0.0034   -0.0000   -0.0000   -0.0001    0.0016    0.0000    0.0000    0.9993
       30 FE2    4pz        0.0000   -0.0001   -0.0006    0.0000    0.0000   -0.0007   -0.0024   -0.0000   -0.0000   -0.0209
       31 FE2    5pz       -0.0000    0.0000    0.0015   -0.0000   -0.0000   -0.0001   -0.0009    0.0000    0.0000    0.0182
       32 FE2    3d2-       0.0000    0.0000   -0.0000   -0.0000   -0.0000    0.0000   -0.0000   -0.0000    0.0000   -0.0000
       33 FE2    4d2-       0.0000    0.0000   -0.0000    0.0000   -0.0000    0.0000   -0.0000    0.0000    0.0000   -0.0000
       34 FE2    3d1-       0.0000   -0.0000    0.0000   -0.0000    0.0000    0.0000    0.0000    0.0001    0.0013   -0.0000
       35 FE2    4d1-       0.0000   -0.0000    0.0000   -0.0000    0.0001   -0.0000    0.0000   -0.0000   -0.0002   -0.0000
       36 FE2    3d0        0.0000   -0.0000    0.0000   -0.0000   -0.0000   -0.0002   -0.0013    0.0000    0.0000    0.0026
       37 FE2    4d0        0.0000   -0.0001   -0.0000    0.0000    0.0000   -0.0004   -0.0012   -0.0000   -0.0000   -0.0024
       38 FE2    3d1+      -0.0000    0.0000    0.0000    0.0000    0.0000   -0.0000   -0.0000    0.0013   -0.0001   -0.0000
       39 FE2    4d1+       0.0000    0.0000    0.0000    0.0001    0.0000   -0.0000   -0.0000   -0.0002    0.0000    0.0000
       40 FE2    3d2+       0.0000    0.0000   -0.0000   -0.0000   -0.0000    0.0000   -0.0000    0.0000    0.0000   -0.0000
       41 FE2    4d2+       0.0000    0.0000    0.0000   -0.0000   -0.0000    0.0000    0.0000   -0.0000   -0.0000    0.0000
       42 FE2    4f3-       0.0000    0.0000   -0.0000    0.0000    0.0000    0.0000    0.0000   -0.0000    0.0000    0.0000
       43 FE2    4f2-       0.0000    0.0000   -0.0000    0.0000   -0.0000   -0.0000   -0.0000    0.0000   -0.0000    0.0000
       44 FE2    4f1-       0.0000   -0.0000    0.0000   -0.0000    0.0000    0.0000    0.0000   -0.0000   -0.0004    0.0000
       45 FE2    4f0       -0.0000   -0.0000   -0.0000    0.0000    0.0000   -0.0001   -0.0001   -0.0000   -0.0000   -0.0005
       46 FE2    4f1+       0.0000    0.0000    0.0000    0.0000    0.0000   -0.0000    0.0000   -0.0004    0.0000    0.0000
       47 FE2    4f2+       0.0000   -0.0000   -0.0000   -0.0000    0.0000   -0.0000    0.0000   -0.0000   -0.0000    0.0000
       48 FE2    4f3+       0.0000   -0.0000    0.0000   -0.0000    0.0000    0.0000    0.0000   -0.0000    0.0000    0.0000
 
          Orbital           11        12        13        14        15        16        17        18        19        20    
          Energy           -1.6484   -1.6170   -1.6170   -1.6144   -1.6144   -1.5914   -1.0875   -0.8870   -0.4816   -0.4816
          Occ. No.          1.0000    1.0000    1.0000    1.0000    1.0000    1.0000    1.0000    1.0000    0.0000    0.0000
 
        1 O1     1s        -0.0020   -0.0000    0.0000   -0.0000    0.0000   -0.0031    0.0093   -0.0087   -0.0000   -0.0000
        2 O1     2s         0.6880   -0.0000    0.0000   -0.0000    0.0000   -0.6971    0.2063   -0.1152   -0.0000    0.0000
        3 O1     3s        -0.0008   -0.0000    0.0000   -0.0000   -0.0000   -0.0173    0.0037   -0.0346   -0.0000   -0.0000
        4 O1     2px       -0.0000   -0.0000   -0.0000    0.0008   -0.0000    0.0000   -0.0000   -0.0000   -0.0276    0.3673
        5 O1     3px        0.0000   -0.0000    0.0000   -0.0050    0.0000   -0.0000    0.0000   -0.0000   -0.0050    0.0668
        6 O1     2py        0.0000    0.0000    0.0000    0.0000    0.0008   -0.0000    0.0000    0.0000    0.3673    0.0276
        7 O1     3py        0.0000    0.0000   -0.0000   -0.0000   -0.0050   -0.0000    0.0000   -0.0000    0.0668    0.0050
        8 O1     2pz       -0.0896   -0.0000   -0.0000   -0.0000    0.0000    0.0422    0.8639    0.4240   -0.0000    0.0000
        9 O1     3pz       -0.0010   -0.0000   -0.0000    0.0000   -0.0000    0.0243   -0.0148    0.0566   -0.0000    0.0000
       10 O1     3d2-       0.0000   -0.0002    0.0000   -0.0000    0.0000    0.0000   -0.0000    0.0000    0.0000   -0.0000
       11 O1     3d1-       0.0000   -0.0000   -0.0000    0.0000    0.0007   -0.0000   -0.0000   -0.0000   -0.0148   -0.0011
       12 O1     3d0        0.0300   -0.0000    0.0000   -0.0000   -0.0000   -0.0273   -0.0226   -0.0113    0.0000   -0.0000
       13 O1     3d1+      -0.0000    0.0000   -0.0000    0.0007   -0.0000    0.0000    0.0000    0.0000    0.0011   -0.0148
       14 O1     3d2+      -0.0000   -0.0000   -0.0002    0.0000    0.0000    0.0000    0.0000   -0.0000    0.0000    0.0000
       15 FE2    1s        -0.0003    0.0000   -0.0000    0.0000    0.0000    0.0004    0.0008    0.0008   -0.0000    0.0000
       16 FE2    2s        -0.0019   -0.0000   -0.0000    0.0000    0.0000    0.0026    0.0055    0.0061   -0.0000    0.0000
       17 FE2    3s        -0.0119    0.0000   -0.0000    0.0000    0.0000    0.0159    0.0281    0.0398   -0.0000    0.0000
       18 FE2    4s         0.0272   -0.0000   -0.0000   -0.0000    0.0000   -0.0058   -0.2825    0.9364   -0.0000    0.0000
       19 FE2    5s        -0.0157    0.0000    0.0000    0.0000    0.0000    0.0116    0.1198   -0.3505   -0.0000    0.0000
       20 FE2    2px        0.0000    0.0000   -0.0000   -0.0000    0.0000   -0.0000    0.0000    0.0000   -0.0000    0.0001
       21 FE2    3px       -0.0000    0.0000    0.0000   -0.0011    0.0000    0.0000    0.0000   -0.0000   -0.0007    0.0094
       22 FE2    4px       -0.0000    0.0000   -0.0000    0.0035   -0.0000    0.0000   -0.0000   -0.0000   -0.0638    0.8482
       23 FE2    5px        0.0000    0.0000    0.0000   -0.0005    0.0000   -0.0000    0.0000    0.0000   -0.0022    0.0299
       24 FE2    2py       -0.0000    0.0000    0.0000   -0.0000   -0.0000    0.0000   -0.0000   -0.0000    0.0001    0.0000
       25 FE2    3py       -0.0000   -0.0000   -0.0000   -0.0000   -0.0011    0.0000   -0.0000   -0.0000    0.0094    0.0007
       26 FE2    4py       -0.0000   -0.0000    0.0000    0.0000    0.0035    0.0000    0.0000    0.0000    0.8482    0.0638
       27 FE2    5py       -0.0000   -0.0000   -0.0000   -0.0000   -0.0005    0.0000   -0.0000    0.0000    0.0299    0.0022
       28 FE2    2pz       -0.0005    0.0000    0.0000    0.0000    0.0000    0.0006    0.0012    0.0010    0.0000    0.0000
       29 FE2    3pz       -0.0173    0.0000   -0.0000   -0.0000    0.0000    0.0138    0.0262    0.0199   -0.0000    0.0000
       30 FE2    4pz        0.0231   -0.0000   -0.0000    0.0000    0.0000   -0.0107   -0.1002   -0.1740    0.0000   -0.0000
       31 FE2    5pz       -0.0031    0.0000   -0.0000    0.0000   -0.0000    0.0069    0.0069    0.0104    0.0000    0.0000
       32 FE2    3d2-       0.0000    0.9905   -0.0365   -0.0000    0.0000   -0.0000    0.0000   -0.0000   -0.0000    0.0000
       33 FE2    4d2-      -0.0000   -0.1323    0.0049    0.0000   -0.0000    0.0000   -0.0000   -0.0000    0.0000    0.0000
       34 FE2    3d1-       0.0000    0.0000    0.0000    0.0072    0.9917    0.0000   -0.0000   -0.0000   -0.0121   -0.0009
       35 FE2    4d1-      -0.0000   -0.0000   -0.0000   -0.0010   -0.1304   -0.0000    0.0000    0.0000    0.0257    0.0019
       36 FE2    3d0        0.6645    0.0000    0.0000    0.0000   -0.0000    0.7365    0.0708    0.0360   -0.0000    0.0000
       37 FE2    4d0       -0.0750   -0.0000   -0.0000   -0.0000    0.0000   -0.1045   -0.0452   -0.0256    0.0000   -0.0000
       38 FE2    3d1+      -0.0000    0.0000   -0.0000    0.9917   -0.0072   -0.0000    0.0000    0.0000    0.0009   -0.0121
       39 FE2    4d1+      -0.0000   -0.0000    0.0000   -0.1304    0.0010    0.0000   -0.0000   -0.0000   -0.0019    0.0257
       40 FE2    3d2+      -0.0000    0.0365    0.9905    0.0000   -0.0000   -0.0000   -0.0000    0.0000   -0.0000    0.0000
       41 FE2    4d2+       0.0000   -0.0049   -0.1323   -0.0000    0.0000   -0.0000   -0.0000    0.0000   -0.0000   -0.0000
       42 FE2    4f3-       0.0000    0.0000   -0.0000   -0.0000    0.0000    0.0000    0.0000    0.0000    0.0000   -0.0000
       43 FE2    4f2-      -0.0000    0.0011   -0.0000   -0.0000    0.0000    0.0000   -0.0000   -0.0000   -0.0000    0.0000
       44 FE2    4f1-       0.0000    0.0000    0.0000    0.0000    0.0015   -0.0000    0.0000    0.0000    0.0020    0.0001
       45 FE2    4f0        0.0035    0.0000   -0.0000   -0.0000   -0.0000   -0.0009   -0.0044   -0.0031    0.0000   -0.0000
       46 FE2    4f1+       0.0000    0.0000   -0.0000    0.0015   -0.0000   -0.0000   -0.0000   -0.0000   -0.0001    0.0020
       47 FE2    4f2+       0.0000    0.0000    0.0011    0.0000   -0.0000    0.0000    0.0000    0.0000   -0.0000    0.0000
       48 FE2    4f3+       0.0000    0.0000    0.0000    0.0000   -0.0000   -0.0000    0.0000   -0.0000   -0.0000    0.0000
 
          Orbital           21        22        23        24    
          Energy           -0.3789   -0.3769   -0.3769   -0.2382
          Occ. No.          0.0000    0.0000    0.0000    0.0000
 
        1 O1     1s        -0.0437   -0.0000    0.0000   -0.0174
        2 O1     2s        -0.4459   -0.0000    0.0000   -0.1478
        3 O1     3s        -0.1145   -0.0000    0.0000   -0.0442
        4 O1     2px       -0.0000    0.0409   -0.9000   -0.0000
        5 O1     3px       -0.0000    0.0116   -0.2542   -0.0000
        6 O1     2py        0.0000   -0.9000   -0.0409    0.0000
        7 O1     3py        0.0000   -0.2542   -0.0116    0.0000
        8 O1     2pz        0.3992    0.0000   -0.0000   -0.0872
        9 O1     3pz        0.0775    0.0000   -0.0000   -0.0180
       10 O1     3d2-      -0.0000   -0.0000    0.0000    0.0000
       11 O1     3d1-      -0.0000    0.0177    0.0008   -0.0000
       12 O1     3d0       -0.0058   -0.0000    0.0000   -0.0080
       13 O1     3d1+       0.0000   -0.0008    0.0177    0.0000
       14 O1     3d2+       0.0000   -0.0000   -0.0000   -0.0000
       15 FE2    1s         0.0010    0.0000   -0.0000   -0.0001
       16 FE2    2s         0.0077    0.0000   -0.0000   -0.0008
       17 FE2    3s         0.0430    0.0000   -0.0000   -0.0069
       18 FE2    4s         0.3394    0.0000   -0.0000    0.3780
       19 FE2    5s        -0.0599   -0.0000   -0.0000    0.9511
       20 FE2    2px        0.0000   -0.0000    0.0011    0.0000
       21 FE2    3px        0.0000   -0.0012    0.0274    0.0000
       22 FE2    4px        0.0000   -0.0267    0.5882    0.0000
       23 FE2    5px        0.0000   -0.0013    0.0285    0.0000
       24 FE2    2py       -0.0000    0.0011    0.0000   -0.0000
       25 FE2    3py       -0.0000    0.0274    0.0012   -0.0000
       26 FE2    4py       -0.0000    0.5882    0.0267   -0.0000
       27 FE2    5py       -0.0000    0.0285    0.0013   -0.0000
       28 FE2    2pz        0.0020    0.0000   -0.0000   -0.0000
       29 FE2    3pz        0.0533    0.0000   -0.0000    0.0007
       30 FE2    4pz        1.1249    0.0000   -0.0000    0.0145
       31 FE2    5pz        0.0593    0.0000   -0.0000    0.0021
       32 FE2    3d2-      -0.0000   -0.0000   -0.0000    0.0000
       33 FE2    4d2-      -0.0000   -0.0000    0.0000    0.0000
       34 FE2    3d1-      -0.0000    0.0280    0.0013   -0.0000
       35 FE2    4d1-       0.0000   -0.0692   -0.0031    0.0000
       36 FE2    3d0        0.0448    0.0000   -0.0000    0.0008
       37 FE2    4d0       -0.0789   -0.0000    0.0000   -0.0118
       38 FE2    3d1+       0.0000   -0.0013    0.0280    0.0000
       39 FE2    4d1+      -0.0000    0.0031   -0.0692   -0.0000
       40 FE2    3d2+       0.0000   -0.0000    0.0000   -0.0000
       41 FE2    4d2+       0.0000   -0.0000   -0.0000   -0.0000
       42 FE2    4f3-       0.0000   -0.0000   -0.0000   -0.0000
       43 FE2    4f2-      -0.0000   -0.0000    0.0000    0.0000
       44 FE2    4f1-       0.0000   -0.0053   -0.0002    0.0000
       45 FE2    4f0       -0.0057   -0.0000    0.0000   -0.0003
       46 FE2    4f1+      -0.0000    0.0002   -0.0053   -0.0000
       47 FE2    4f2+       0.0000   -0.0000   -0.0000    0.0000
       48 FE2    4f3+      -0.0000    0.0000   -0.0000   -0.0000
--
 
 
  Input file to MOLDEN was generated!
 
 
++    Static properties:
      ------------------
 
 
      LoProp Charges per center
 

                   O1       FE2   
      Nuclear      8.0000  26.0000
      Electronic  -7.9109 -24.0891
 
      Total        0.0891   1.9109
--
 
 
      All orbitals with orbital energies smaller than  E(LUMO)+0.5 are printed
 
++    Molecular orbitals:
      -------------------
 
      Title: UHF orbitals (beta)

      Molecular orbitals for symmetry species 1: a  
 
          Orbital            1         2         3         4         5         6         7         8         9        10    
          Energy         -264.5599  -33.2708  -28.3386  -28.3386  -28.3384  -21.2497   -4.9229   -3.3754   -3.3754   -3.3735
          Occ. No.          1.0000    1.0000    1.0000    1.0000    1.0000    1.0000    1.0000    1.0000    1.0000    1.0000
 
        1 O1     1s        -0.0000   -0.0000    0.0000    0.0000    0.0000    0.9999    0.0001   -0.0000    0.0000   -0.0000
        2 O1     2s        -0.0000   -0.0001    0.0000    0.0000    0.0001    0.0013    0.0013    0.0000    0.0000    0.0054
        3 O1     3s        -0.0000   -0.0001    0.0000    0.0000    0.0001   -0.0023    0.0008    0.0000   -0.0000    0.0005
        4 O1     2px       -0.0000    0.0000    0.0001    0.0000   -0.0000   -0.0000   -0.0000    0.0010   -0.0000    0.0000
        5 O1     3px       -0.0000   -0.0000    0.0001    0.0000   -0.0000    0.0000    0.0000    0.0007   -0.0000   -0.0000
        6 O1     2py       -0.0000    0.0000   -0.0000    0.0001   -0.0000   -0.0000   -0.0000    0.0000    0.0010    0.0000
        7 O1     3py       -0.0000    0.0000   -0.0000    0.0001   -0.0000    0.0000   -0.0000    0.0000    0.0007    0.0000
        8 O1     2pz        0.0000    0.0001    0.0000    0.0000    0.0001   -0.0001   -0.0013   -0.0000   -0.0000   -0.0046
        9 O1     3pz        0.0000    0.0001    0.0000    0.0000    0.0001    0.0008   -0.0009    0.0000    0.0000    0.0007
       10 O1     3d2-      -0.0000   -0.0000    0.0000   -0.0000    0.0000    0.0000   -0.0000   -0.0000   -0.0000    0.0000
       11 O1     3d1-       0.0000   -0.0000   -0.0000    0.0000    0.0000   -0.0000   -0.0000   -0.0000   -0.0002   -0.0000
       12 O1     3d0       -0.0000   -0.0000   -0.0000   -0.0000   -0.0001   -0.0006    0.0003   -0.0000    0.0000    0.0003
       13 O1     3d1+      -0.0000   -0.0000    0.0000    0.0000    0.0000    0.0000    0.0000   -0.0002    0.0000    0.0000
       14 O1     3d2+      -0.0000    0.0000    0.0000    0.0000    0.0000    0.0000   -0.0000    0.0000    0.0000    0.0000
       15 FE2    1s         1.0000   -0.0000   -0.0000   -0.0000   -0.0000    0.0000    0.0000    0.0000    0.0000   -0.0000
       16 FE2    2s         0.0000    1.0000   -0.0000   -0.0000   -0.0004    0.0000    0.0011   -0.0000   -0.0000   -0.0000
       17 FE2    3s        -0.0000   -0.0011    0.0000    0.0000    0.0000    0.0002    0.9997   -0.0000   -0.0000   -0.0045
       18 FE2    4s         0.0000    0.0003    0.0000    0.0000    0.0000    0.0008   -0.0036    0.0000    0.0000    0.0011
       19 FE2    5s        -0.0000   -0.0003   -0.0000   -0.0000   -0.0001   -0.0001    0.0033   -0.0000   -0.0000   -0.0012
       20 FE2    2px       -0.0000    0.0000    0.9984    0.0568   -0.0000    0.0000    0.0000    0.0032   -0.0001   -0.0000
       21 FE2    3px       -0.0000   -0.0000   -0.0032   -0.0002    0.0000   -0.0000    0.0000    0.9997   -0.0208   -0.0000
       22 FE2    4px        0.0000    0.0000    0.0004    0.0000   -0.0000   -0.0000   -0.0000   -0.0113    0.0002    0.0000
       23 FE2    5px       -0.0000   -0.0000   -0.0011   -0.0001    0.0000   -0.0000    0.0000    0.0052   -0.0001    0.0000
       24 FE2    2py        0.0000   -0.0000   -0.0568    0.9984   -0.0000   -0.0000   -0.0000    0.0001    0.0032   -0.0000
       25 FE2    3py       -0.0000    0.0000    0.0002   -0.0032    0.0000   -0.0000   -0.0000    0.0208    0.9997   -0.0000
       26 FE2    4py        0.0000   -0.0000   -0.0000    0.0004   -0.0000   -0.0000    0.0000   -0.0002   -0.0113    0.0000
       27 FE2    5py        0.0000    0.0000    0.0001   -0.0011    0.0000   -0.0000    0.0000    0.0001    0.0052   -0.0000
       28 FE2    2pz        0.0000    0.0004    0.0000    0.0000    1.0000    0.0000    0.0000    0.0000    0.0000    0.0032
       29 FE2    3pz       -0.0000    0.0000   -0.0000   -0.0000   -0.0032    0.0002    0.0041    0.0000    0.0000    0.9996
       30 FE2    4pz        0.0000    0.0001    0.0000    0.0000    0.0005    0.0008   -0.0006   -0.0000   -0.0000   -0.0107
       31 FE2    5pz       -0.0000    0.0000   -0.0000   -0.0000   -0.0012    0.0000   -0.0004    0.0000    0.0000    0.0051
       32 FE2    3d2-       0.0000    0.0000   -0.0000   -0.0000   -0.0000   -0.0000   -0.0000   -0.0000    0.0000   -0.0000
       33 FE2    4d2-       0.0000    0.0000    0.0000   -0.0000   -0.0000   -0.0000   -0.0000    0.0000    0.0000    0.0000
       34 FE2    3d1-       0.0000   -0.0000   -0.0000    0.0000   -0.0000   -0.0000    0.0000    0.0001    0.0028   -0.0000
       35 FE2    4d1-       0.0000   -0.0000    0.0000   -0.0001    0.0000   -0.0000    0.0000   -0.0000   -0.0003   -0.0000
       36 FE2    3d0        0.0000    0.0000    0.0000    0.0000    0.0000    0.0002   -0.0012    0.0000    0.0000    0.0015
       37 FE2    4d0        0.0000    0.0001   -0.0000   -0.0000   -0.0000    0.0003   -0.0001   -0.0000    0.0000    0.0010
       38 FE2    3d1+      -0.0000    0.0000    0.0000    0.0000   -0.0000   -0.0000   -0.0000    0.0028   -0.0001    0.0000
       39 FE2    4d1+       0.0000    0.0000   -0.0001   -0.0000    0.0000   -0.0000   -0.0000   -0.0003    0.0000    0.0000
       40 FE2    3d2+       0.0000    0.0000    0.0000    0.0000   -0.0000   -0.0000   -0.0000    0.0000    0.0000   -0.0000
       41 FE2    4d2+       0.0000    0.0000   -0.0000   -0.0000    0.0000   -0.0000    0.0000   -0.0000   -0.0000   -0.0000
       42 FE2    4f3-       0.0000    0.0000    0.0000    0.0000   -0.0000    0.0000    0.0000   -0.0000    0.0000    0.0000
       43 FE2    4f2-       0.0000    0.0000    0.0000   -0.0000   -0.0000   -0.0000   -0.0000    0.0000   -0.0000    0.0000
       44 FE2    4f1-       0.0000   -0.0000    0.0000   -0.0000    0.0000   -0.0000    0.0000   -0.0000   -0.0004    0.0000
       45 FE2    4f0        0.0000   -0.0000    0.0000    0.0000    0.0000    0.0001   -0.0003   -0.0000   -0.0000   -0.0001
       46 FE2    4f1+       0.0000    0.0000   -0.0000   -0.0000    0.0000    0.0000   -0.0000   -0.0004    0.0000    0.0000
       47 FE2    4f2+       0.0000   -0.0000   -0.0000    0.0000   -0.0000   -0.0000    0.0000   -0.0000   -0.0000   -0.0000
       48 FE2    4f3+       0.0000   -0.0000   -0.0000    0.0000    0.0000    0.0000   -0.0000   -0.0000    0.0000    0.0000
 
          Orbital           11        12        13        14        15        16        17        18        19        20    
          Energy           -1.9507   -1.2365   -1.2365   -1.1435   -0.5403   -0.5316   -0.5316   -0.5289   -0.5289   -0.5034
          Occ. No.          1.0000    1.0000    1.0000    1.0000    0.0000    0.0000    0.0000    0.0000    0.0000    0.0000
 
        1 O1     1s        -0.0023   -0.0000   -0.0000   -0.0073    0.0055   -0.0000    0.0000    0.0000   -0.0000   -0.0176
        2 O1     2s         0.9933   -0.0000    0.0000   -0.1413    0.0617   -0.0000    0.0000    0.0000   -0.0000   -0.1911
        3 O1     3s        -0.0301   -0.0000   -0.0000    0.0159    0.0114   -0.0000    0.0000    0.0000   -0.0000   -0.0363
        4 O1     2px       -0.0000   -0.0956    0.9871    0.0000    0.0000   -0.0000    0.0000   -0.1030    0.0069   -0.0000
        5 O1     3px        0.0000    0.0073   -0.0753   -0.0000    0.0000   -0.0000    0.0000   -0.0051    0.0003   -0.0000
        6 O1     2py        0.0000    0.9871    0.0956   -0.0000   -0.0000    0.0000    0.0000   -0.0069   -0.1030    0.0000
        7 O1     3py        0.0000   -0.0753   -0.0073    0.0000    0.0000    0.0000    0.0000   -0.0003   -0.0051   -0.0000
        8 O1     2pz       -0.0695   -0.0000    0.0000   -0.9258   -0.0578    0.0000   -0.0000   -0.0000    0.0000    0.3275
        9 O1     3pz       -0.0163    0.0000    0.0000    0.0285   -0.0134   -0.0000   -0.0000   -0.0000    0.0000    0.0327
       10 O1     3d2-       0.0000    0.0000   -0.0000    0.0000    0.0000    0.0023    0.0000    0.0000   -0.0000    0.0000
       11 O1     3d1-      -0.0000   -0.0237   -0.0023    0.0000    0.0000   -0.0000    0.0000   -0.0005   -0.0082   -0.0000
       12 O1     3d0       -0.0134    0.0000   -0.0000    0.0366    0.0044   -0.0000    0.0000   -0.0000    0.0000    0.0070
       13 O1     3d1+       0.0000    0.0023   -0.0237   -0.0000   -0.0000   -0.0000    0.0000   -0.0082    0.0005    0.0000
       14 O1     3d2+       0.0000    0.0000    0.0000   -0.0000    0.0000   -0.0000    0.0023   -0.0000   -0.0000   -0.0000
       15 FE2    1s        -0.0003   -0.0000    0.0000   -0.0008   -0.0002   -0.0000   -0.0000   -0.0000    0.0000    0.0006
       16 FE2    2s        -0.0023   -0.0000    0.0000   -0.0061   -0.0010   -0.0000   -0.0000   -0.0000    0.0000    0.0041
       17 FE2    3s        -0.0154   -0.0000    0.0000   -0.0340   -0.0079    0.0000   -0.0000   -0.0000    0.0000    0.0261
       18 FE2    4s        -0.0005    0.0000    0.0000    0.1037   -0.7263    0.0000   -0.0000    0.0000    0.0000    0.7287
       19 FE2    5s        -0.0072   -0.0000    0.0000   -0.0410    0.1621   -0.0000    0.0000   -0.0000   -0.0000   -0.1542
       20 FE2    2px        0.0000    0.0000   -0.0003   -0.0000   -0.0000    0.0000   -0.0000   -0.0000    0.0000    0.0000
       21 FE2    3px       -0.0000    0.0007   -0.0072   -0.0000    0.0000    0.0000   -0.0000   -0.0013    0.0001   -0.0000
       22 FE2    4px       -0.0000   -0.0013    0.0135    0.0000    0.0000    0.0000   -0.0000    0.0462   -0.0031   -0.0000
       23 FE2    5px        0.0000    0.0002   -0.0017   -0.0000   -0.0000    0.0000   -0.0000    0.0020   -0.0001    0.0000
       24 FE2    2py       -0.0000   -0.0003   -0.0000    0.0000   -0.0000    0.0000   -0.0000   -0.0000   -0.0000   -0.0000
       25 FE2    3py       -0.0000   -0.0072   -0.0007    0.0000   -0.0000   -0.0000   -0.0000   -0.0001   -0.0013   -0.0000
       26 FE2    4py       -0.0000    0.0135    0.0013   -0.0000    0.0000   -0.0000    0.0000    0.0031    0.0462   -0.0000
       27 FE2    5py       -0.0000   -0.0017   -0.0002   -0.0000   -0.0000    0.0000    0.0000    0.0001    0.0020    0.0000
       28 FE2    2pz       -0.0007    0.0000    0.0000   -0.0016   -0.0002    0.0000   -0.0000   -0.0000    0.0000    0.0009
       29 FE2    3pz       -0.0229   -0.0000    0.0000   -0.0365   -0.0053    0.0000   -0.0000   -0.0000    0.0000    0.0174
       30 FE2    4pz        0.0054    0.0000    0.0000    0.0975   -0.0204   -0.0000   -0.0000    0.0000   -0.0000   -0.0835
       31 FE2    5pz       -0.0043    0.0000    0.0000   -0.0043   -0.0048    0.0000   -0.0000    0.0000   -0.0000   -0.0050
       32 FE2    3d2-      -0.0000    0.0000   -0.0000    0.0000    0.0000    0.9908    0.0110   -0.0000    0.0000    0.0000
       33 FE2    4d2-      -0.0000    0.0000    0.0000    0.0000    0.0000    0.1343    0.0015   -0.0000    0.0000   -0.0000
       34 FE2    3d1-      -0.0000    0.0312    0.0030   -0.0000   -0.0000   -0.0000   -0.0000    0.0660    0.9904   -0.0000
       35 FE2    4d1-      -0.0000    0.0107    0.0010   -0.0000   -0.0000   -0.0000   -0.0000    0.0090    0.1354   -0.0000
       36 FE2    3d0        0.0185    0.0000   -0.0000    0.1275    0.6784   -0.0000    0.0000   -0.0000    0.0000    0.7215
       37 FE2    4d0        0.0058    0.0000   -0.0000    0.0383    0.0926   -0.0000    0.0000   -0.0000    0.0000    0.0787
       38 FE2    3d1+      -0.0000   -0.0030    0.0312    0.0000    0.0000    0.0000   -0.0000    0.9904   -0.0660    0.0000
       39 FE2    4d1+      -0.0000   -0.0010    0.0107    0.0000    0.0000    0.0000   -0.0000    0.1354   -0.0090    0.0000
       40 FE2    3d2+      -0.0000    0.0000    0.0000   -0.0000   -0.0000   -0.0110    0.9908    0.0000    0.0000    0.0000
       41 FE2    4d2+      -0.0000   -0.0000    0.0000    0.0000   -0.0000   -0.0015    0.1343    0.0000    0.0000    0.0000
       42 FE2    4f3-       0.0000   -0.0000   -0.0000   -0.0000    0.0000    0.0000   -0.0000   -0.0000    0.0000    0.0000
       43 FE2    4f2-      -0.0000    0.0000    0.0000    0.0000    0.0000    0.0020    0.0000   -0.0000    0.0000   -0.0000
       44 FE2    4f1-       0.0000    0.0025    0.0002   -0.0000   -0.0000   -0.0000   -0.0000    0.0001    0.0022   -0.0000
       45 FE2    4f0        0.0023    0.0000   -0.0000    0.0057    0.0019    0.0000    0.0000   -0.0000    0.0000   -0.0004
       46 FE2    4f1+       0.0000   -0.0002    0.0025    0.0000    0.0000    0.0000   -0.0000    0.0022   -0.0001    0.0000
       47 FE2    4f2+      -0.0000    0.0000    0.0000   -0.0000   -0.0000   -0.0000    0.0020    0.0000    0.0000    0.0000
       48 FE2    4f3+       0.0000   -0.0000    0.0000    0.0000    0.0000    0.0000    0.0000    0.0000   -0.0000   -0.0000
 
          Orbital           21        22        23        24    
          Energy           -0.3700   -0.3700   -0.3046   -0.2162
          Occ. No.          0.0000    0.0000    0.0000    0.0000
 
        1 O1     1s        -0.0000   -0.0000   -0.0461   -0.0151
        2 O1     2s        -0.0000    0.0000   -0.4321   -0.1218
        3 O1     3s        -0.0000    0.0000   -0.0821   -0.0336
        4 O1     2px       -0.1246   -0.0255   -0.0000   -0.0000
        5 O1     3px        0.0074    0.0015   -0.0000   -0.0000
        6 O1     2py       -0.0255    0.1246    0.0000   -0.0000
        7 O1     3py        0.0015   -0.0074   -0.0000   -0.0000
        8 O1     2pz        0.0000    0.0000    0.3678   -0.1137
        9 O1     3pz        0.0000    0.0000    0.0812   -0.0051
       10 O1     3d2-       0.0000    0.0000   -0.0000    0.0000
       11 O1     3d1-      -0.0018    0.0090   -0.0000    0.0000
       12 O1     3d0       -0.0000    0.0000    0.0030   -0.0105
       13 O1     3d1+      -0.0090   -0.0018    0.0000    0.0000
       14 O1     3d2+      -0.0000    0.0000   -0.0000   -0.0000
       15 FE2    1s         0.0000    0.0000    0.0010   -0.0001
       16 FE2    2s         0.0000    0.0000    0.0071   -0.0003
       17 FE2    3s         0.0000    0.0000    0.0385   -0.0044
       18 FE2    4s         0.0000   -0.0000    0.2462    0.2339
       19 FE2    5s        -0.0000    0.0000   -0.0101    0.9909
       20 FE2    2px       -0.0003   -0.0001    0.0000   -0.0000
       21 FE2    3px        0.0113    0.0023    0.0000    0.0000
       22 FE2    4px        0.9820    0.2010   -0.0000    0.0000
       23 FE2    5px        0.0756    0.0155    0.0000    0.0000
       24 FE2    2py       -0.0001    0.0003   -0.0000   -0.0000
       25 FE2    3py        0.0023   -0.0113    0.0000    0.0000
       26 FE2    4py        0.2010   -0.9820    0.0000    0.0000
       27 FE2    5py        0.0155   -0.0756    0.0000   -0.0000
       28 FE2    2pz       -0.0000    0.0000    0.0011   -0.0000
       29 FE2    3pz        0.0000    0.0000    0.0428   -0.0001
       30 FE2    4pz        0.0000    0.0000    1.1370    0.0074
       31 FE2    5pz        0.0000   -0.0000    0.0945    0.0057
       32 FE2    3d2-       0.0000    0.0000    0.0000   -0.0000
       33 FE2    4d2-      -0.0000   -0.0000   -0.0000    0.0000
       34 FE2    3d1-      -0.0075    0.0365    0.0000    0.0000
       35 FE2    4d1-       0.0017   -0.0083    0.0000   -0.0000
       36 FE2    3d0        0.0000    0.0000    0.1495    0.0067
       37 FE2    4d0        0.0000    0.0000   -0.0086   -0.0000
       38 FE2    3d1+      -0.0365   -0.0075   -0.0000    0.0000
       39 FE2    4d1+       0.0083    0.0017   -0.0000   -0.0000
       40 FE2    3d2+      -0.0000    0.0000    0.0000   -0.0000
       41 FE2    4d2+       0.0000    0.0000   -0.0000   -0.0000
       42 FE2    4f3-       0.0000   -0.0000    0.0000   -0.0000
       43 FE2    4f2-       0.0000    0.0000   -0.0000    0.0000
       44 FE2    4f1-      -0.0000    0.0002    0.0000   -0.0000
       45 FE2    4f0        0.0000    0.0000   -0.0038   -0.0001
       46 FE2    4f1+      -0.0002   -0.0000   -0.0000   -0.0000
       47 FE2    4f2+      -0.0000    0.0000    0.0000   -0.0000
       48 FE2    4f3+      -0.0000    0.0000   -0.0000   -0.0000
--
 
 
++    Molecular charges:
      ------------------
 
      Mulliken charges per centre and basis function type
      ---------------------------------------------------
 
                            O1                      FE2   
                     alpha        beta       alpha        beta
      1s           1.0001      0.9999      1.0000      1.0000
      2s           0.9947      0.9999      1.0000      1.0000
      2px          0.0000      0.9886      1.0000      1.0000
      2pz          0.9371      0.9110      1.0000      1.0000
      2py          0.0000      0.9886      1.0000      1.0000
      3s          -0.0064      0.0025      0.9994      0.9997
      3px         -0.0002      0.0050      0.9993      0.9998
      3pz         -0.0224     -0.0007      0.9987      0.9997
      3py         -0.0002      0.0050      0.9993      0.9998
      4s           0.0000      0.0000      0.8685      0.0226
      3d2+        -0.0000      0.0000      0.9825      0.0000
      3d1+        -0.0000      0.0007      0.9830      0.0024
      3d0          0.0024      0.0024      0.9815      0.0255
      3d1-        -0.0000      0.0007      0.9830      0.0024
      3d2-        -0.0000      0.0000      0.9825      0.0000
      4px          0.0000      0.0000      0.0004      0.0018
      4pz          0.0000      0.0000      0.0840      0.0244
      4py          0.0000      0.0000      0.0004      0.0018
      5s           0.0000      0.0000      0.1322      0.0066
      4d2+         0.0000      0.0000      0.0175      0.0000
      4d1+         0.0000      0.0000      0.0172      0.0017
      4d0          0.0000      0.0000      0.0299      0.0064
      4d1-         0.0000      0.0000      0.0172      0.0017
      4d2-         0.0000      0.0000      0.0175      0.0000
      5px          0.0000      0.0000      0.0003     -0.0001
      5pz          0.0000      0.0000     -0.0001     -0.0004
      5py          0.0000      0.0000      0.0003     -0.0001
      4f3+         0.0000      0.0000      0.0000      0.0000
      4f2+         0.0000      0.0000      0.0000      0.0000
      4f1+         0.0000      0.0000      0.0000      0.0001
      4f0          0.0000      0.0000      0.0004      0.0004
      4f1-         0.0000      0.0000      0.0000      0.0001
      4f2-         0.0000      0.0000      0.0000      0.0000
      4f3-         0.0000      0.0000      0.0000      0.0000
      Total        2.9050      4.9035     15.0950      9.0965
      Total              7.8085                 24.1915
 
      Charge            0.1915                  1.8085
 
      Total electronic charge=   32.000000
 
      Total            charge=    2.000000
--
 
 
  Input file to MOLDEN was generated!
 
 
++    Static properties:
      ------------------
 
 
      LoProp Charges per center
 

                   O1       FE2   
      Nuclear      8.0000  26.0000
      Electronic  -7.9109 -24.0891
 
      Total        0.0891   1.9109
--
 
 
++    Natural Bond Order analysis
      ---------------------------
      Based on LoProp computed density
      -------------------------------------------------------------------------------------
      Atom A       Atom B       Bond Order
        O1           FE2            0.817
      -------------------------------------------------------------------------------------
      NBO located     21.998 core electrons.
      NBO located      1.847 lone pair electrons.
      NBO located      1.635 electrons involved in    1 bonds.
      NBO located      0.982 non-bonded electrons on atom FE2       
      NBO located      1.002 non-bonded electrons on atom FE2       
      NBO located      1.002 non-bonded electrons on atom FE2       
      NBO located      1.000 non-bonded electrons on atom FE2       
      NBO located      1.000 non-bonded electrons on atom FE2       
      The remaining    1.534 electrons are to be considered as diffuse
--
 
 
++    Molecular orbitals:
      -------------------
 
      Title: Natural orbitals

      Molecular orbitals for symmetry species 1: a  
 
          Orbital            1         2         3         4         5         6         7         8         9        10    
          Energy         -264.5639  -32.9959  -27.1867  -27.6339  -27.6331  -20.9909   -6.1338   -4.4003   -4.4453   -4.4461
          Occ. No.          2.0000    2.0000    2.0000    2.0000    2.0000    2.0000    2.0000    1.9999    1.9999    1.9999
 
        1 O1     1s        -0.0000   -0.0080    0.2413    0.0000    0.0000    0.9508   -0.1892   -0.0283   -0.0000   -0.0000
        2 O1     2s        -0.0000   -0.0005   -0.0144   -0.0000   -0.0000   -0.0322   -0.0014   -0.0634    0.0000    0.0000
        3 O1     3s        -0.0000   -0.0001   -0.0002   -0.0000   -0.0000   -0.0006   -0.0015   -0.0014    0.0000   -0.0000
        4 O1     2px       -0.0000    0.0000   -0.0000   -0.0001   -0.0000    0.0000   -0.0000   -0.0000    0.0003   -0.0000
        5 O1     3px       -0.0000   -0.0000   -0.0000   -0.0001   -0.0000    0.0000   -0.0000    0.0000    0.0005   -0.0000
        6 O1     2py       -0.0000    0.0000    0.0000    0.0000   -0.0001   -0.0000    0.0000    0.0000    0.0000    0.0003
        7 O1     3py       -0.0000    0.0000    0.0000    0.0000   -0.0001   -0.0000    0.0000   -0.0000    0.0000    0.0005
        8 O1     2pz       -0.0000    0.0004    0.0043   -0.0000    0.0000    0.0003    0.0293    0.1355   -0.0000    0.0000
        9 O1     3pz        0.0000    0.0002    0.0003    0.0000    0.0000    0.0012    0.0010   -0.0008   -0.0000   -0.0000
       10 O1     3d2-      -0.0000    0.0000   -0.0000    0.0000   -0.0000    0.0000    0.0000   -0.0000   -0.0000   -0.0000
       11 O1     3d1-       0.0000    0.0000   -0.0000   -0.0000    0.0000    0.0000   -0.0000   -0.0000   -0.0000   -0.0002
       12 O1     3d0       -0.0000   -0.0000   -0.0002    0.0000   -0.0000   -0.0001   -0.0014   -0.0056    0.0000   -0.0000
       13 O1     3d1+      -0.0000   -0.0000    0.0000    0.0000    0.0000   -0.0000   -0.0000   -0.0000   -0.0002    0.0000
       14 O1     3d2+      -0.0000    0.0000   -0.0000    0.0000    0.0000    0.0000    0.0000   -0.0000    0.0000    0.0000
       15 FE2    1s         1.0000   -0.0000    0.0000    0.0000    0.0000    0.0000    0.0000    0.0001   -0.0000    0.0000
       16 FE2    2s         0.0000    0.9936    0.0156   -0.0000   -0.0000   -0.0176   -0.1103   -0.0007   -0.0000    0.0000
       17 FE2    3s        -0.0000   -0.1119    0.0024   -0.0000   -0.0000   -0.1940   -0.9723    0.0301    0.0000    0.0000
       18 FE2    4s         0.0000    0.0007   -0.0002    0.0000    0.0000    0.0011    0.0007   -0.0129    0.0000   -0.0000
       19 FE2    5s        -0.0000   -0.0006    0.0004   -0.0000   -0.0000   -0.0008   -0.0032    0.0075   -0.0000    0.0000
       20 FE2    2px       -0.0000   -0.0000    0.0000    0.9821    0.0601   -0.0000    0.0000   -0.0000    0.1785   -0.0010
       21 FE2    3px        0.0000    0.0000   -0.0000   -0.1781   -0.0109    0.0000   -0.0000    0.0000    0.9837   -0.0057
       22 FE2    4px       -0.0000   -0.0000    0.0000    0.0026    0.0002   -0.0000    0.0000   -0.0000   -0.0148    0.0001
       23 FE2    5px        0.0000   -0.0000   -0.0000   -0.0019   -0.0001    0.0000   -0.0000    0.0000    0.0113   -0.0001
       24 FE2    2py       -0.0000    0.0000   -0.0000   -0.0601    0.9821    0.0000   -0.0000    0.0000    0.0010    0.1786
       25 FE2    3py        0.0000   -0.0000    0.0000    0.0109   -0.1782   -0.0000    0.0000   -0.0000    0.0057    0.9837
       26 FE2    4py       -0.0000    0.0000   -0.0000   -0.0002    0.0026    0.0000   -0.0000    0.0000   -0.0001   -0.0148
       27 FE2    5py        0.0000   -0.0000    0.0000    0.0001   -0.0019   -0.0000    0.0000   -0.0000    0.0001    0.0113
       28 FE2    2pz       -0.0000   -0.0143    0.9532   -0.0000    0.0000   -0.2380    0.0475   -0.1783    0.0000   -0.0000
       29 FE2    3pz       -0.0000   -0.0017   -0.1806    0.0000   -0.0000    0.0134   -0.0207   -0.9635    0.0000   -0.0000
       30 FE2    4pz        0.0000    0.0001    0.0023   -0.0000    0.0000   -0.0000   -0.0013   -0.0017   -0.0000   -0.0000
       31 FE2    5pz       -0.0000    0.0001   -0.0019    0.0000   -0.0000    0.0004    0.0006   -0.0100    0.0000   -0.0000
       32 FE2    3d2-       0.0000    0.0000    0.0000    0.0000   -0.0000    0.0000   -0.0000   -0.0000   -0.0000    0.0000
       33 FE2    4d2-       0.0000    0.0000   -0.0000    0.0000   -0.0000    0.0000    0.0000   -0.0000    0.0000    0.0000
       34 FE2    3d1-       0.0000   -0.0000    0.0000    0.0000   -0.0005   -0.0000    0.0000    0.0000    0.0000    0.0028
       35 FE2    4d1-       0.0000    0.0000   -0.0000   -0.0000    0.0001   -0.0000   -0.0000    0.0000   -0.0000   -0.0004
       36 FE2    3d0        0.0000    0.0001   -0.0007    0.0000   -0.0000   -0.0001   -0.0024   -0.0194    0.0000   -0.0000
       37 FE2    4d0        0.0000    0.0000   -0.0001    0.0000   -0.0000   -0.0001   -0.0003   -0.0044    0.0000   -0.0000
       38 FE2    3d1+       0.0000    0.0000   -0.0000   -0.0005   -0.0000    0.0000   -0.0000   -0.0000    0.0028   -0.0000
       39 FE2    4d1+      -0.0000    0.0000    0.0000    0.0001    0.0000   -0.0000    0.0000   -0.0000   -0.0004    0.0000
       40 FE2    3d2+       0.0000    0.0000    0.0000   -0.0000   -0.0000    0.0000    0.0000    0.0000    0.0000    0.0000
       41 FE2    4d2+       0.0000   -0.0000    0.0000    0.0000    0.0000   -0.0000   -0.0000   -0.0000   -0.0000   -0.0000
       42 FE2    4f3-       0.0000   -0.0000   -0.0000    0.0000   -0.0000    0.0000   -0.0000    0.0000   -0.0000    0.0000
       43 FE2    4f2-       0.0000    0.0000   -0.0000   -0.0000   -0.0000    0.0000    0.0000   -0.0000    0.0000   -0.0000
       44 FE2    4f1-       0.0000    0.0000   -0.0000   -0.0000    0.0001    0.0000   -0.0000    0.0000   -0.0000   -0.0004
       45 FE2    4f0        0.0000    0.0000    0.0000   -0.0000    0.0000   -0.0000    0.0000   -0.0007    0.0000   -0.0000
       46 FE2    4f1+       0.0000    0.0000    0.0000    0.0001    0.0000   -0.0000    0.0000   -0.0000   -0.0004    0.0000
       47 FE2    4f2+       0.0000   -0.0000   -0.0000    0.0000    0.0000   -0.0000   -0.0000    0.0000   -0.0000   -0.0000
       48 FE2    4f3+       0.0000   -0.0000   -0.0000   -0.0000    0.0000   -0.0000   -0.0000   -0.0000   -0.0000    0.0000
 
          Orbital           11        12        13        14        15        16        17        18        19        20    
          Energy           -1.1981   -1.8034   -0.9390   -0.9390   -1.0400   -1.0244   -1.0400   -0.7043   -0.8825   -0.8825
          Occ. No.          1.9988    1.9972    1.0549    1.0549    1.0000    1.0000    1.0000    1.0000    0.9451    0.9451
 
        1 O1     1s         0.0154   -0.0317   -0.0000   -0.0000   -0.0000    0.0023    0.0000    0.0101   -0.0000   -0.0000
        2 O1     2s         0.0610   -0.9975    0.0000   -0.0000   -0.0000    0.0441    0.0000    0.1215   -0.0000   -0.0000
        3 O1     3s        -0.0072    0.0100   -0.0000   -0.0000   -0.0000    0.0151    0.0000    0.0339    0.0000   -0.0000
        4 O1     2px       -0.0000    0.0000    0.6833   -0.0040   -0.0000    0.0000    0.0000    0.0000   -0.7207    0.0055
        5 O1     3px        0.0000   -0.0000   -0.0555    0.0003   -0.0000    0.0000    0.0000    0.0000    0.0514   -0.0004
        6 O1     2py        0.0000   -0.0000    0.0040    0.6833   -0.0000   -0.0000    0.0000   -0.0000   -0.0055   -0.7207
        7 O1     3py       -0.0000   -0.0000   -0.0003   -0.0555    0.0000   -0.0000   -0.0000   -0.0000    0.0004    0.0514
        8 O1     2pz        0.9137   -0.0219    0.0000    0.0000    0.0000   -0.1703   -0.0000   -0.2460   -0.0000    0.0000
        9 O1     3pz       -0.0159    0.0190    0.0000    0.0000    0.0000   -0.0184   -0.0000   -0.0573    0.0000    0.0000
       10 O1     3d2-      -0.0000    0.0000   -0.0000    0.0000   -0.0002   -0.0000   -0.0000   -0.0000    0.0000   -0.0000
       11 O1     3d1-      -0.0000    0.0000   -0.0001   -0.0160   -0.0000    0.0000    0.0000    0.0000    0.0001    0.0178
       12 O1     3d0       -0.0316   -0.0101   -0.0000    0.0000   -0.0000    0.0062    0.0000    0.0055    0.0000   -0.0000
       13 O1     3d1+       0.0000   -0.0000   -0.0160    0.0001    0.0000   -0.0000    0.0000   -0.0000    0.0178   -0.0001
       14 O1     3d2+       0.0000    0.0000    0.0000    0.0000   -0.0000   -0.0000    0.0002    0.0000   -0.0000   -0.0000
       15 FE2    1s         0.0009    0.0003    0.0000    0.0000    0.0000   -0.0003   -0.0000   -0.0006   -0.0000    0.0000
       16 FE2    2s         0.0098    0.0024    0.0000    0.0000    0.0000   -0.0022   -0.0000   -0.0042   -0.0000    0.0000
       17 FE2    3s         0.0617    0.0199    0.0000    0.0000    0.0000   -0.0128   -0.0000   -0.0268   -0.0000    0.0000
       18 FE2    4s        -0.1012    0.0144    0.0000    0.0000    0.0000   -0.0240    0.0000   -0.9728    0.0000    0.0000
       19 FE2    5s         0.0462    0.0023   -0.0000   -0.0000   -0.0000    0.0028   -0.0000    0.3673   -0.0000   -0.0000
       20 FE2    2px       -0.0000    0.0000   -0.0002    0.0000    0.0000   -0.0000   -0.0000   -0.0000    0.0002   -0.0000
       21 FE2    3px        0.0000   -0.0000   -0.0062    0.0000    0.0000    0.0000    0.0000    0.0000    0.0027   -0.0000
       22 FE2    4px       -0.0000    0.0000    0.0117   -0.0001    0.0000    0.0000    0.0000    0.0000   -0.0073    0.0001
       23 FE2    5px        0.0000   -0.0000   -0.0015    0.0000    0.0000   -0.0000   -0.0000   -0.0000    0.0008   -0.0000
       24 FE2    2py       -0.0000   -0.0000   -0.0000   -0.0002    0.0000    0.0000   -0.0000   -0.0000    0.0000    0.0002
       25 FE2    3py       -0.0000   -0.0000   -0.0000   -0.0062   -0.0000   -0.0000    0.0000   -0.0000    0.0000    0.0027
       26 FE2    4py        0.0000    0.0000    0.0001    0.0117   -0.0000    0.0000   -0.0000   -0.0000   -0.0001   -0.0073
       27 FE2    5py       -0.0000    0.0000   -0.0000   -0.0015   -0.0000   -0.0000    0.0000   -0.0000    0.0000    0.0008
       28 FE2    2pz        0.0222    0.0070    0.0000    0.0000    0.0000   -0.0005   -0.0000   -0.0010   -0.0000    0.0000
       29 FE2    3pz        0.1773    0.0870    0.0000    0.0000    0.0000   -0.0086   -0.0000   -0.0152   -0.0000    0.0000
       30 FE2    4pz       -0.1161   -0.0045   -0.0000   -0.0000   -0.0000    0.0247    0.0000    0.1506   -0.0000   -0.0000
       31 FE2    5pz        0.0083    0.0057    0.0000    0.0000    0.0000   -0.0052   -0.0000   -0.0086   -0.0000    0.0000
       32 FE2    3d2-      -0.0000    0.0000   -0.0000    0.0000    0.9905    0.0000    0.0365    0.0000   -0.0000    0.0000
       33 FE2    4d2-      -0.0000    0.0000    0.0000   -0.0000   -0.1323   -0.0000   -0.0049   -0.0000    0.0000   -0.0000
       34 FE2    3d1-       0.0000   -0.0000    0.0042    0.7043   -0.0000    0.0000    0.0000    0.0000    0.0053    0.6985
       35 FE2    4d1-       0.0000    0.0000   -0.0005   -0.0824    0.0000   -0.0000   -0.0000   -0.0000   -0.0008   -0.1027
       36 FE2    3d0       -0.1270   -0.0050   -0.0000    0.0000    0.0000   -0.9868   -0.0000    0.0093   -0.0000    0.0000
       37 FE2    4d0       -0.0309   -0.0055    0.0000   -0.0000   -0.0000    0.1359    0.0000    0.0119    0.0000   -0.0000
       38 FE2    3d1+      -0.0000    0.0000    0.7043   -0.0042    0.0000   -0.0000    0.0000    0.0000    0.6985   -0.0053
       39 FE2    4d1+      -0.0000    0.0000   -0.0824    0.0005   -0.0000    0.0000   -0.0000   -0.0000   -0.1027    0.0008
       40 FE2    3d2+       0.0000    0.0000    0.0000    0.0000    0.0365    0.0000   -0.9905   -0.0000    0.0000    0.0000
       41 FE2    4d2+      -0.0000    0.0000    0.0000   -0.0000   -0.0049   -0.0000    0.1323    0.0000   -0.0000   -0.0000
       42 FE2    4f3-       0.0000   -0.0000   -0.0000    0.0000    0.0000   -0.0000    0.0000    0.0000    0.0000    0.0000
       43 FE2    4f2-      -0.0000    0.0000   -0.0000    0.0000    0.0011    0.0000    0.0000    0.0000   -0.0000    0.0000
       44 FE2    4f1-       0.0000   -0.0000    0.0000    0.0028   -0.0000    0.0000    0.0000    0.0000   -0.0000   -0.0008
       45 FE2    4f0       -0.0057   -0.0021   -0.0000   -0.0000    0.0000   -0.0005   -0.0000    0.0021   -0.0000   -0.0000
       46 FE2    4f1+      -0.0000    0.0000    0.0028   -0.0000    0.0000   -0.0000    0.0000    0.0000   -0.0008    0.0000
       47 FE2    4f2+       0.0000    0.0000    0.0000    0.0000    0.0000    0.0000   -0.0011   -0.0000    0.0000    0.0000
       48 FE2    4f3+      -0.0000   -0.0000    0.0000   -0.0000    0.0000   -0.0000   -0.0000    0.0000    0.0000   -0.0000
 
          Orbital           21        22        23        24        25        26        27        28        29        30    
          Energy            0.9411   -0.0538    1.0010    1.0010    1.4662    0.1922    0.9977    0.1206    0.1206    0.6550
          Occ. No.          0.0028    0.0012    0.0001    0.0001    0.0001    0.0000    0.0000    0.0000    0.0000    0.0000
 
        1 O1     1s        -0.0065    0.0093   -0.0000   -0.0000    0.0053   -0.0413   -0.0929   -0.0000    0.0000    0.0353
        2 O1     2s        -0.0612    0.1253    0.0000   -0.0000    0.0975   -0.3867   -0.8542   -0.0000    0.0000    0.2916
        3 O1     3s         0.5774    0.2426    0.0000   -0.0000    0.1728   -0.5146   -1.3121   -0.0000    0.0000   -0.0986
        4 O1     2px       -0.0000    0.0000   -0.0086    0.0135    0.0000   -0.0000   -0.0000    0.0168   -0.2260   -0.0000
        5 O1     3px        0.0000   -0.0000    0.0167   -0.0261    0.0000   -0.0000   -0.0000    0.0306   -0.4119    0.0000
        6 O1     2py        0.0000   -0.0000    0.0135    0.0086   -0.0000    0.0000    0.0000   -0.2260   -0.0168    0.0000
        7 O1     3py        0.0000    0.0000   -0.0261   -0.0167   -0.0000    0.0000    0.0000   -0.4119   -0.0306   -0.0000
        8 O1     2pz        0.1264   -0.1888   -0.0000    0.0000   -0.2063    0.3962    0.4316    0.0000   -0.0000   -0.1177
        9 O1     3pz       -0.0033    0.4387    0.0000    0.0000   -0.3820    0.7278    0.5669    0.0000    0.0000    0.5390
       10 O1     3d2-      -0.0000   -0.0000   -0.0000    0.0000    0.0000    0.0000   -0.0000   -0.0000    0.0000    0.0000
       11 O1     3d1-       0.0000    0.0000   -0.0040   -0.0026    0.0000    0.0000    0.0000    0.0201    0.0015    0.0000
       12 O1     3d0        0.7232    0.1348   -0.0000   -0.0000    0.2195   -0.1532    0.1051    0.0000   -0.0000    0.3790
       13 O1     3d1+      -0.0000   -0.0000    0.0026   -0.0040   -0.0000   -0.0000   -0.0000   -0.0015    0.0201   -0.0000
       14 O1     3d2+      -0.0000   -0.0000   -0.0000    0.0000    0.0000   -0.0000    0.0000    0.0000    0.0000   -0.0000
       15 FE2    1s        -0.0012    0.0015    0.0000    0.0000   -0.0025    0.0049    0.0051    0.0000    0.0000    0.0023
       16 FE2    2s        -0.0087    0.0107    0.0000    0.0000   -0.0181    0.0352    0.0370    0.0000    0.0000    0.0166
       17 FE2    3s        -0.0511    0.0439    0.0000    0.0000   -0.0897    0.1789    0.1910    0.0000    0.0000    0.0740
       18 FE2    4s        -0.1139    0.0373    0.0000    0.0000   -0.3271    0.3272    1.0474    0.0000   -0.0000    0.0656
       19 FE2    5s         0.0270    0.2128    0.0000   -0.0000   -0.0280   -0.8516    0.4209   -0.0000    0.0000   -0.1663
       20 FE2    2px       -0.0000    0.0000    0.0001   -0.0001   -0.0000    0.0000   -0.0000   -0.0001    0.0008   -0.0000
       21 FE2    3px       -0.0000    0.0000    0.0089   -0.0139   -0.0000    0.0000    0.0000   -0.0018    0.0245   -0.0000
       22 FE2    4px       -0.0000   -0.0000    0.2707   -0.4241   -0.0000    0.0000    0.0000   -0.0716    0.9620   -0.0000
       23 FE2    5px        0.0000    0.0000   -0.4640    0.7271    0.0000    0.0000    0.0000   -0.0408    0.5479   -0.0000
       24 FE2    2py        0.0000   -0.0000   -0.0001   -0.0001    0.0000   -0.0000   -0.0000    0.0008    0.0001    0.0000
       25 FE2    3py        0.0000   -0.0000   -0.0139   -0.0089    0.0000   -0.0000   -0.0000    0.0245    0.0018    0.0000
       26 FE2    4py       -0.0000    0.0000   -0.4241   -0.2707    0.0000   -0.0000   -0.0000    0.9620    0.0716    0.0000
       27 FE2    5py       -0.0000   -0.0000    0.7271    0.4640   -0.0000   -0.0000   -0.0000    0.5479    0.0408    0.0000
       28 FE2    2pz       -0.0024    0.0009   -0.0000    0.0000   -0.0032    0.0060    0.0072    0.0000    0.0000    0.0020
       29 FE2    3pz       -0.0476   -0.0036   -0.0000    0.0000   -0.0711    0.1162    0.1464    0.0000   -0.0000    0.0254
       30 FE2    4pz        0.2007   -0.7323   -0.0000    0.0000   -0.2349    0.5901    1.0730    0.0000   -0.0000   -0.0939
       31 FE2    5pz       -0.0405    0.1230    0.0000   -0.0000    0.9351    0.1475    0.3818    0.0000   -0.0000   -0.2122
       32 FE2    3d2-       0.0000    0.0000   -0.0000    0.0000   -0.0000   -0.0000    0.0000   -0.0000    0.0000    0.0000
       33 FE2    4d2-      -0.0000    0.0000   -0.0000    0.0000   -0.0000   -0.0000    0.0000   -0.0000    0.0000    0.0000
       34 FE2    3d1-       0.0000   -0.0000    0.0014    0.0009    0.0000   -0.0000   -0.0000    0.0635    0.0047   -0.0000
       35 FE2    4d1-      -0.0000   -0.0000   -0.0078   -0.0050    0.0000   -0.0000   -0.0000    0.2833    0.0211   -0.0000
       36 FE2    3d0       -0.0393    0.0082   -0.0000    0.0000   -0.0934    0.1666    0.2076    0.0000   -0.0000   -0.1258
       37 FE2    4d0        0.0892    0.2947   -0.0000    0.0000   -0.3338    0.5577    0.5803    0.0000   -0.0000   -0.7850
       38 FE2    3d1+      -0.0000    0.0000   -0.0009    0.0014   -0.0000    0.0000    0.0000   -0.0047    0.0635   -0.0000
       39 FE2    4d1+       0.0000    0.0000    0.0050   -0.0078   -0.0000    0.0000    0.0000   -0.0211    0.2833    0.0000
       40 FE2    3d2+       0.0000   -0.0000    0.0000   -0.0000    0.0000    0.0000   -0.0000    0.0000   -0.0000    0.0000
       41 FE2    4d2+       0.0000   -0.0000    0.0000   -0.0000    0.0000    0.0000   -0.0000    0.0000   -0.0000   -0.0000
       42 FE2    4f3-      -0.0000   -0.0000    0.0000    0.0000    0.0000   -0.0000    0.0000    0.0000   -0.0000   -0.0000
       43 FE2    4f2-      -0.0000   -0.0000    0.0000    0.0000    0.0000   -0.0000    0.0000    0.0000   -0.0000   -0.0000
       44 FE2    4f1-      -0.0000    0.0000    0.0058    0.0037   -0.0000    0.0000   -0.0000    0.0049    0.0004    0.0000
       45 FE2    4f0        0.0103    0.0063   -0.0000   -0.0000   -0.0287   -0.0314    0.1475    0.0000   -0.0000   -0.0366
       46 FE2    4f1+       0.0000   -0.0000   -0.0037    0.0058    0.0000   -0.0000    0.0000   -0.0004    0.0049    0.0000
       47 FE2    4f2+       0.0000   -0.0000    0.0000    0.0000   -0.0000    0.0000   -0.0000   -0.0000    0.0000    0.0000
       48 FE2    4f3+       0.0000    0.0000    0.0000   -0.0000   -0.0000    0.0000   -0.0000   -0.0000   -0.0000    0.0000
 
          Orbital           31        32        33        34        35        36        37        38        39        40    
          Energy            3.1467    0.2968    0.2959    0.5473    0.2641    0.2637    0.2961    0.2972    3.0335    1.7057
          Occ. No.          0.0000    0.0000    0.0000    0.0000    0.0000    0.0000    0.0000    0.0000    0.0000    0.0000
 
        1 O1     1s         0.0082   -0.0000   -0.0000    0.0281   -0.0000   -0.0000    0.0000    0.0000    0.0000   -0.0000
        2 O1     2s         0.0781   -0.0000   -0.0000    0.2606   -0.0000   -0.0000    0.0000    0.0000    0.0000   -0.0000
        3 O1     3s        -0.0330    0.0000    0.0000   -0.1897    0.0000    0.0000   -0.0000   -0.0000   -0.0000    0.0000
        4 O1     2px       -0.0000    0.0124    0.1643    0.0000   -0.0120    0.1264    0.0003   -0.0003    0.0009    0.0060
        5 O1     3px        0.0000    0.0763    1.0736    0.0000    0.0024   -0.1895    0.0008   -0.0008    0.0013    0.0050
        6 O1     2py        0.0000   -0.1645    0.0103   -0.0000   -0.1264   -0.0094   -0.0004    0.0004   -0.0004   -0.0155
        7 O1     3py        0.0000   -1.0733    0.0794   -0.0000    0.1890    0.0200    0.0002    0.0012    0.0009   -0.0479
        8 O1     2pz       -0.0932    0.0000    0.0000   -0.1942    0.0000    0.0000   -0.0000   -0.0000   -0.0000    0.0000
        9 O1     3pz       -0.1301    0.0000    0.0000   -0.6776    0.0000    0.0000   -0.0000   -0.0000   -0.0000    0.0000
       10 O1     3d2-       0.0000    0.0000    0.0001   -0.0000   -0.0006   -0.0005    0.0317   -0.0065    0.2803    0.3200
       11 O1     3d1-      -0.0000    0.0541   -0.0041    0.0000    0.0080    0.0043   -0.0023    0.0037   -0.0494    0.9366
       12 O1     3d0        0.1617   -0.0000   -0.0000    0.5500   -0.0000   -0.0000    0.0000    0.0000    0.0000   -0.0000
       13 O1     3d1+       0.0000   -0.0038   -0.0542    0.0000   -0.0008   -0.0080   -0.0013    0.0010   -0.0103    0.1312
       14 O1     3d2+      -0.0000    0.0000   -0.0000    0.0000    0.0001    0.0003   -0.0011   -0.0255   -0.1551   -0.0026
       15 FE2    1s        -0.0008    0.0000    0.0000   -0.0037    0.0000    0.0000   -0.0000   -0.0000   -0.0000    0.0000
       16 FE2    2s        -0.0060    0.0000    0.0000   -0.0269    0.0000    0.0000   -0.0000   -0.0000   -0.0000    0.0000
       17 FE2    3s        -0.0304    0.0000    0.0000   -0.1316    0.0000    0.0000   -0.0000   -0.0000   -0.0000    0.0000
       18 FE2    4s        -0.0637    0.0000    0.0000   -0.4716    0.0000    0.0000   -0.0000   -0.0000   -0.0000    0.0000
       19 FE2    5s         0.1083    0.0000    0.0000   -0.0499    0.0000    0.0000   -0.0000   -0.0000   -0.0000    0.0000
       20 FE2    2px       -0.0000   -0.0002   -0.0021   -0.0000    0.0000    0.0003   -0.0000    0.0000   -0.0000    0.0001
       21 FE2    3px       -0.0000   -0.0029   -0.0412   -0.0000   -0.0001    0.0071   -0.0001    0.0001   -0.0002    0.0015
       22 FE2    4px       -0.0000   -0.0063   -0.0968   -0.0000   -0.0103    0.1400   -0.0003    0.0005   -0.0016    0.0101
       23 FE2    5px       -0.0000    0.0014    0.0157    0.0000   -0.0045    0.0528   -0.0000    0.0001   -0.0003    0.0021
       24 FE2    2py       -0.0000    0.0021   -0.0002    0.0000   -0.0003   -0.0000   -0.0000   -0.0000   -0.0000    0.0006
       25 FE2    3py       -0.0000    0.0411   -0.0030    0.0000   -0.0071   -0.0007   -0.0000   -0.0000   -0.0007    0.0149
       26 FE2    4py       -0.0000    0.0965   -0.0087    0.0000   -0.1400   -0.0112   -0.0003   -0.0002   -0.0052    0.1111
       27 FE2    5py        0.0000   -0.0159    0.0005   -0.0000   -0.0528   -0.0040   -0.0001   -0.0001   -0.0011    0.0233
       28 FE2    2pz       -0.0010    0.0000    0.0000   -0.0042    0.0000    0.0000   -0.0000   -0.0000   -0.0000    0.0000
       29 FE2    3pz       -0.0209    0.0000    0.0000   -0.0840    0.0000    0.0000   -0.0000   -0.0000   -0.0000    0.0000
       30 FE2    4pz       -0.0893    0.0000    0.0000   -0.5794    0.0000    0.0000   -0.0000   -0.0000   -0.0000    0.0000
       31 FE2    5pz       -0.0073    0.0000    0.0000   -0.1160    0.0000    0.0000   -0.0000   -0.0000   -0.0000    0.0000
       32 FE2    3d2-       0.0000    0.0000   -0.0001   -0.0000   -0.0001   -0.0000    0.1317   -0.0072   -0.0043   -0.0056
       33 FE2    4d2-       0.0000    0.0002   -0.0004   -0.0000   -0.0011   -0.0000    0.9875   -0.0545   -0.0223   -0.0241
       34 FE2    3d1-      -0.0000    0.1195   -0.0072    0.0000    0.1183    0.0091    0.0000    0.0003   -0.0028    0.0557
       35 FE2    4d1-      -0.0000    0.4663   -0.0224    0.0000    0.9262    0.0723    0.0009    0.0016   -0.0060    0.1252
       36 FE2    3d0       -0.0157    0.0000    0.0000   -0.0506    0.0000    0.0000   -0.0000   -0.0000   -0.0000    0.0000
       37 FE2    4d0        0.0242   -0.0000   -0.0000    0.1106   -0.0000   -0.0000    0.0000    0.0000    0.0000   -0.0000
       38 FE2    3d1+       0.0000   -0.0091   -0.1193   -0.0000    0.0108   -0.1183   -0.0002   -0.0000   -0.0007    0.0071
       39 FE2    4d1+       0.0000   -0.0378   -0.4644   -0.0000    0.0793   -0.9260   -0.0005   -0.0006   -0.0019    0.0167
       40 FE2    3d2+      -0.0000   -0.0000    0.0000    0.0000    0.0002    0.0002   -0.0074   -0.1318    0.0034    0.0002
       41 FE2    4d2+      -0.0000   -0.0002    0.0001    0.0000    0.0016    0.0012   -0.0551   -0.9878    0.0215    0.0008
       42 FE2    4f3-      -0.0000   -0.0000   -0.0000    0.0000   -0.0000    0.0000   -0.0000   -0.0012   -0.0801    0.0086
       43 FE2    4f2-      -0.0000    0.0001   -0.0000    0.0000   -0.0001   -0.0005   -0.0008   -0.0090   -0.7604    0.0106
       44 FE2    4f1-       0.0000   -0.0009    0.0000   -0.0000    0.0040    0.0006    0.0058   -0.0128    0.0242   -0.0158
       45 FE2    4f0       -0.9907   -0.0000   -0.0000    0.1238   -0.0000   -0.0000    0.0000    0.0000    0.0000   -0.0000
       46 FE2    4f1+      -0.0000    0.0001    0.0007   -0.0000    0.0004   -0.0048   -0.0039    0.0090   -0.0134   -0.1659
       47 FE2    4f2+       0.0000   -0.0001    0.0000   -0.0000    0.0002   -0.0005   -0.0010    0.0090    0.5664   -0.0548
       48 FE2    4f3+       0.0000   -0.0001   -0.0000   -0.0000    0.0000   -0.0000   -0.0000    0.0002    0.0200   -0.0021
 
          Orbital           41        42        43        44        45        46        47    
          Energy            1.6646    2.7959    3.0121    2.1334    2.6732    3.0854    3.1482
          Occ. No.          0.0000    0.0000    0.0000    0.0000    0.0000    0.0000    0.0000
 
        1 O1     1s        -0.0000   -0.0000    0.0000    0.0000    0.0000   -0.0000   -0.0000
        2 O1     2s        -0.0000   -0.0000    0.0000    0.0000    0.0000   -0.0000   -0.0000
        3 O1     3s         0.0000    0.0000   -0.0000   -0.0000   -0.0000    0.0000    0.0000
        4 O1     2px       -0.0114    0.0024   -0.0497   -0.0003   -0.0002   -0.0001   -0.0000
        5 O1     3px       -0.0447    0.0036   -0.0673   -0.0009   -0.0006    0.0001   -0.0000
        6 O1     2py        0.0017   -0.0484   -0.0149   -0.0000   -0.0001   -0.0002    0.0000
        7 O1     3py        0.0079   -0.0682   -0.0197   -0.0001   -0.0004   -0.0009    0.0001
        8 O1     2pz        0.0000    0.0000   -0.0000   -0.0000   -0.0000    0.0000    0.0000
        9 O1     3pz        0.0000    0.0000   -0.0000   -0.0000   -0.0000    0.0000    0.0000
       10 O1     3d2-      -0.0161   -0.4916    0.3440    0.0163    0.0017   -0.1468   -0.0001
       11 O1     3d1-      -0.1636    0.2409    0.0393    0.0031    0.0084    0.0183    0.0000
       12 O1     3d0       -0.0000   -0.0000    0.0000    0.0000    0.0000   -0.0000   -0.0000
       13 O1     3d1+       0.9914   -0.0015    0.1608    0.0207    0.0151    0.0027    0.0000
       14 O1     3d2+      -0.0241   -0.0274    0.0184    0.8024    0.5555    0.1482    0.0000
       15 FE2    1s         0.0000    0.0000   -0.0000   -0.0000   -0.0000    0.0000    0.0000
       16 FE2    2s         0.0000    0.0000   -0.0000   -0.0000   -0.0000    0.0000    0.0000
       17 FE2    3s         0.0000    0.0000   -0.0000   -0.0000   -0.0000    0.0000    0.0000
       18 FE2    4s         0.0000    0.0000   -0.0000   -0.0000   -0.0000    0.0000    0.0000
       19 FE2    5s         0.0000    0.0000   -0.0000   -0.0000   -0.0000    0.0000   -0.0000
       20 FE2    2px        0.0006   -0.0000    0.0002    0.0000    0.0000    0.0000    0.0000
       21 FE2    3px        0.0154   -0.0002    0.0057    0.0003    0.0002    0.0000    0.0000
       22 FE2    4px        0.1148   -0.0018    0.0458    0.0024    0.0017    0.0002    0.0000
       23 FE2    5px        0.0241   -0.0004    0.0095    0.0005    0.0004    0.0000    0.0000
       24 FE2    2py       -0.0001    0.0003    0.0001    0.0000    0.0000    0.0000   -0.0000
       25 FE2    3py       -0.0026    0.0068    0.0016    0.0000    0.0001    0.0003   -0.0000
       26 FE2    4py       -0.0192    0.0538    0.0126    0.0004    0.0010    0.0021   -0.0000
       27 FE2    5py       -0.0041    0.0112    0.0026    0.0001    0.0002    0.0005    0.0000
       28 FE2    2pz        0.0000    0.0000   -0.0000   -0.0000   -0.0000    0.0000    0.0000
       29 FE2    3pz        0.0000    0.0000   -0.0000   -0.0000   -0.0000    0.0000    0.0000
       30 FE2    4pz        0.0000    0.0000   -0.0000   -0.0000   -0.0000    0.0000    0.0000
       31 FE2    5pz        0.0000    0.0000   -0.0000   -0.0000   -0.0000    0.0000    0.0000
       32 FE2    3d2-       0.0003    0.0085   -0.0061   -0.0002   -0.0000    0.0033   -0.0000
       33 FE2    4d2-       0.0012    0.0355   -0.0260   -0.0012   -0.0002    0.0111   -0.0000
       34 FE2    3d1-      -0.0094    0.0199    0.0042    0.0002    0.0005    0.0011    0.0000
       35 FE2    4d1-      -0.0196    0.0528    0.0123    0.0003    0.0010    0.0023    0.0000
       36 FE2    3d0        0.0000    0.0000   -0.0000   -0.0000   -0.0000    0.0000    0.0000
       37 FE2    4d0       -0.0000    0.0000   -0.0000   -0.0000   -0.0000    0.0000    0.0000
       38 FE2    3d1+       0.0583   -0.0003    0.0154    0.0012    0.0009    0.0003    0.0000
       39 FE2    4d1+       0.1298   -0.0004    0.0429    0.0028    0.0021    0.0011    0.0000
       40 FE2    3d2+       0.0002   -0.0005    0.0000   -0.0142   -0.0096   -0.0018    0.0000
       41 FE2    4d2+       0.0004   -0.0039    0.0003   -0.0589   -0.0406   -0.0109    0.0001
       42 FE2    4f3-      -0.0000   -0.0125    0.0090    0.5282   -0.8063    0.0689   -0.2430
       43 FE2    4f2-      -0.0006   -0.0448    0.0325   -0.0373    0.0001   -0.6390   -0.0000
       44 FE2    4f1-       0.0181    0.8392    0.2683   -0.0003   -0.0009   -0.0020   -0.0000
       45 FE2    4f0        0.0000   -0.0000    0.0000    0.0000    0.0000   -0.0000   -0.0000
       46 FE2    4f1+      -0.1097   -0.0477    0.8911   -0.0023   -0.0017   -0.0003   -0.0000
       47 FE2    4f2+      -0.0009    0.1418   -0.0988    0.2276    0.0204   -0.7373    0.0000
       48 FE2    4f3+       0.0000    0.0032   -0.0023   -0.1323    0.2020   -0.0172   -0.9700
--
 
 
++    Molecular properties:
      ---------------------
 
      Charge (e):
                      =    2.0000
      Dipole Moment (Debye):
      Origin of the operator (Ang)=    0.0000    0.0000    0.0000
                   X=  2.4939E-12               Y= -4.4183E-12               Z= -6.2353E-02           Total=  6.2353E-02
      Center of Charge (Ang)
                     X=    0.00000000               Y=   -0.00000000               Z=   -0.00649080
      Quadrupole Moment (Debye*Ang):
      Origin of the operator (Ang)=    0.0000    0.0000    0.1800
                  XX= -1.4284E+01              XY=  2.8854E-13              XZ=  4.0721E-12              YY= -1.4284E+01
                  YZ= -8.8745E-12              ZZ= -1.0678E+01
      In traceless form (Debye*Ang)
                  XX= -1.8032E+00              XY=  4.3281E-13              XZ=  6.1081E-12              YY= -1.8032E+00
                  YZ= -1.3312E-11              ZZ=  3.6065E+00
--
 
 
  Input file to MOLDEN was generated!
 
 ###############################################################################
 ###############################################################################
 ###                                                                         ###
 ###                                                                         ###
 ###    RunFile label nBas                                                   ###
 ###    was used       86 times                                              ###
 ###                                                                         ###
 ###                                                                         ###
 ###############################################################################
 ###############################################################################
--- Stop Module: scf at Sun Dec 22 22:04:52 2024 /rc=_RC_ALL_IS_WELL_ ---
*** files: 2.23.LprOrb 2.23.LoProp.molden 2.23.scf.molden 2.23.scf.h5 2.23.UhfOrb 2.23.UnaOrb xmldump
    saved to directory /home/grierjones/DDCASPT2/iron_oxo_DDCASPT2/cluster/2.23

>>> COPY /tmp/2.23/2.23.scf.h5 /home/grierjones/DDCASPT2/iron_oxo_DDCASPT2/cluster/2.23/

*** symbolic link created: INPORB -> 2.23.UnaOrb
--- Start Module: rasscf at Sun Dec 22 22:04:52 2024 ---
 
()()()()()()()()()()()()()()()()()()()()()()()()()()()()()()()()()()()()()()()()()()()()()()()()()()

                                              &RASSCF

                                   only a single process is used
                       available to each process: 2.0 GB of memory, 1 thread?
()()()()()()()()()()()()()()()()()()()()()()()()()()()()()()()()()()()()()()()()()()()()()()()()()()
 
 ###############################################################################
 ###############################################################################
 ###                                                                         ###
 ###                                                                         ###
 ###    LUMORB input error.                                                  ###
 ###                                                                         ###
 ###                                                                         ###
 ###############################################################################
 ###############################################################################
  Keyword LUMORB used with file name StartOrbFile=
 /home/grierjones/DDCASPT2/iron_oxo_DDCASPT2/cluster/2.22/2.22.RasOrb           
                                                  
  but that file cannot be used. Perhaps it does
  not exist?
 
 *************** WARNING ****************
 ###############################################################################
 ###############################################################################
 ###                                                                         ###
 ###                                                                         ###
 ###    Too many macro-iterations.                                           ###
 ###                                                                         ###
 ###                                                                         ###
 ###############################################################################
 ###############################################################################
 Too many macro-iterations requested.
 Reset to maximum, new MAXIT=     200
 ****************************************
 
 *************** WARNING ****************
 ###############################################################################
 ###############################################################################
 ###                                                                         ###
 ###                                                                         ###
 ###    Too many SX-iterations.                                              ###
 ###                                                                         ###
 ###                                                                         ###
 ###############################################################################
 ###############################################################################
 Too many SX-iterations requested.
 Reset to maximum, new ITMAX=     100
 ****************************************
 
      Header of the ONEINT file:
      --------------------------
      
      Integrals generated by seward 4.2.0  , Sun Dec 22 22:04:50 2024
 
 
      OrdInt status: non-squared
 
 
      Cartesian coordinates in Angstrom:
      -----------------------------------------------------
      No.  Label        X            Y            Z        
      -----------------------------------------------------
       1   O1         0.00000000   0.00000000   1.91663000
       2   FE2        0.00000000   0.00000000  -0.31663000
      -----------------------------------------------------
      Nuclear repulsion energy =   49.28618245
 
++    Wave function specifications:
      -----------------------------
 
      Number of closed shell electrons          22
      Number of electrons in active shells      10
      Max number of holes in RAS1 space          0
      Max nr of electrons in RAS3 space          0
      Number of inactive orbitals               11
      Number of active orbitals                 14
      Number of secondary orbitals              23
      Spin quantum number                      2.0
      State symmetry                             1
--
 
++    Orbital specifications:
      -----------------------
 
      Symmetry species                           1
                                                 a
      Frozen orbitals                            0
      Inactive orbitals                         11
      Active orbitals                           14
      RAS1 orbitals                              0
      RAS2 orbitals                             14
      RAS3 orbitals                              0
      Secondary orbitals                        23
      Deleted orbitals                           0
      Number of basis functions                 48
--
 
++    CI expansion specifications:
      ----------------------------
 
      Number of CSFs                        975975
      Number of determinants               1249248
      Number of root(s) required                 1
      Root chosen for geometry opt.              1
      CI root used                               1
         
      highest root included in the CI            1
      max. size of the explicit Hamiltonian    200
--
 
++    Optimization specifications:
      ----------------------------
 
      RASSCF algorithm: Conventional
      Maximum number of macro iterations       200
      Maximum number of SX iterations          100
      Threshold for RASSCF energy            0.100E-07
      Threshold for max MO rotation          0.100E+00
      Threshold for max BLB element          0.100E-03
      Level shift parameter                  0.500E+00
      Make Quasi-Newton update
--
 
 ###############################################################################
 ###############################################################################
 ###                                                                         ###
 ###                                                                         ###
 ###    Location: rdVec_                                                     ###
 ###    File: /home/grierjones/DDCASPT2/iron_oxo_DDCASPT2/cluster/2.22/2.22.RasOrb\n\n\n
 ###    ile: /home/grierjones/DDCASPT2/iron_oxo_DDCASPT2/cluster/2.22/2.22.RasOrb\n\n\n
 ###    le: /home/grierjones/DDCASPT2/iron_oxo_DDCASPT2/cluster/2.22/2.22.RasOrb\n\n\n
 ###    e: /home/grierjones/DDCASPT2/iron_oxo_DDCASPT2/cluster/2.22/2.22.RasOrb\n\n\n
 ###    : /home/grierjones/DDCASPT2/iron_oxo_DDCASPT2/cluster/2.22/2.22.RasOrb\n\n\n
 ###     /home/grierjones/DDCASPT2/iron_oxo_DDCASPT2/cluster/2.22/2.22.RasOrb\n\n\n
 ###    /home/grierjones/DDCASPT2/iron_oxo_DDCASPT2/cluster/2.22/2.22.RasOrb\n\n\n
 ###    home/grierjones/DDCASPT2/iron_oxo_DDCASPT2/cluster/2.22/2.22.RasOrb\n\n\n
 ###    ome/grierjones/DDCASPT2/iron_oxo_DDCASPT2/cluster/2.22/2.22.RasOrb\n\n\n
 ###    me/grierjones/DDCASPT2/iron_oxo_DDCASPT2/cluster/2.22/2.22.RasOrb\n\n\n
 ###    e/grierjones/DDCASPT2/iron_oxo_DDCASPT2/cluster/2.22/2.22.RasOrb\n\n\n
 ###    /grierjones/DDCASPT2/iron_oxo_DDCASPT2/cluster/2.22/2.22.RasOrb\n\n\n
 ###    grierjones/DDCASPT2/iron_oxo_DDCASPT2/cluster/2.22/2.22.RasOrb\n\n\n
 ###    rierjones/DDCASPT2/iron_oxo_DDCASPT2/cluster/2.22/2.22.RasOrb\n\n\n  ###
 ###    ierjones/DDCASPT2/iron_oxo_DDCASPT2/cluster/2.22/2.22.RasOrb\n\n\n   ###
 ###    erjones/DDCASPT2/iron_oxo_DDCASPT2/cluster/2.22/2.22.RasOrb          ###
 ###                                                                         ###
 ###                                                                         ###
 ###    Error during reading INPORB                                          ###
 ###     not defined yet                                                     ###
 ###                                                                         ###
 ###                                                                         ###
 ###############################################################################
 ###############################################################################
[ process      0]: xquit (rc =    128): _INTERNAL_ERROR_
abort: 
--- Stop Module: rasscf at Sun Dec 22 22:04:52 2024 /rc=_RC_FLOATING_EXCEPTION_ ---
*** files: xmldump
    saved to directory /home/grierjones/DDCASPT2/iron_oxo_DDCASPT2/cluster/2.23

.########################.
.# Non-zero return code #.
.########################.

    Timing: Wall=1.90 User=1.63 System=0.26
************************************
*** WorkDir at /tmp/2.23 cleaned ***
************************************
