[Molden Format]
[N_Atoms]
                     2
[Atoms] (AU)
F1          1      9           0.00000000      0.00000000      0.00000000
F2          2      9           0.00000000      0.00000000      4.15739747
[Charge] (Mulliken)
  0.000000000000000E+000
  0.000000000000000E+000
[GTO] (AU)
   1
   s  14
  1.031094600E+05  1.713099991E-04
  1.528100700E+04  7.123999962E-04
  3.441539200E+03  2.990479984E-03
  9.670948300E+02  1.164036994E-02
  3.140353400E+02  3.968642979E-02
  1.134423000E+02  1.128546094E-01
  4.464472700E+01  2.473650687E-01
  1.894287400E+01  3.672702681E-01
  8.532743000E+00  2.896286985E-01
  3.919401000E+00  7.786681959E-02
  1.568157000E+00  4.562139976E-03
  6.232900000E-01  2.468879987E-03
  2.408610000E-01  1.106309994E-03
  8.430100000E-02  1.739699991E-04
   s  14
  1.031094600E+05 -4.044999995E-05
  1.528100700E+04 -1.682299998E-04
  3.441539200E+03 -7.084299991E-04
  9.670948300E+02 -2.767999996E-03
  3.140353400E+02 -9.611379987E-03
  1.134423000E+02 -2.833957996E-02
  4.464472700E+01 -6.839343991E-02
  1.894287400E+01 -1.237379298E-01
  8.532743000E+00 -1.512859698E-01
  3.919401000E+00 -9.099909988E-03
  1.568157000E+00  3.716257695E-01
  6.232900000E-01  5.500214393E-01
  2.408610000E-01  2.092318697E-01
  8.430100000E-02  8.074639989E-03
   p   9
  2.453302900E+02  1.024860004E-03
  5.691900500E+01  8.344290032E-03
  1.760456800E+01  4.078927016E-02
  6.274995000E+00  1.351370605E-01
  2.447030000E+00  2.798830811E-01
  9.950600000E-01  3.597966414E-01
  4.039730000E-01  3.055347412E-01
  1.548100000E-01  1.354703905E-01
  5.418400000E-02  2.804449011E-02
 
   2
   s  14
  1.031094600E+05  1.713099991E-04
  1.528100700E+04  7.123999962E-04
  3.441539200E+03  2.990479984E-03
  9.670948300E+02  1.164036994E-02
  3.140353400E+02  3.968642979E-02
  1.134423000E+02  1.128546094E-01
  4.464472700E+01  2.473650687E-01
  1.894287400E+01  3.672702681E-01
  8.532743000E+00  2.896286985E-01
  3.919401000E+00  7.786681959E-02
  1.568157000E+00  4.562139976E-03
  6.232900000E-01  2.468879987E-03
  2.408610000E-01  1.106309994E-03
  8.430100000E-02  1.739699991E-04
   s  14
  1.031094600E+05 -4.044999995E-05
  1.528100700E+04 -1.682299998E-04
  3.441539200E+03 -7.084299991E-04
  9.670948300E+02 -2.767999996E-03
  3.140353400E+02 -9.611379987E-03
  1.134423000E+02 -2.833957996E-02
  4.464472700E+01 -6.839343991E-02
  1.894287400E+01 -1.237379298E-01
  8.532743000E+00 -1.512859698E-01
  3.919401000E+00 -9.099909988E-03
  1.568157000E+00  3.716257695E-01
  6.232900000E-01  5.500214393E-01
  2.408610000E-01  2.092318697E-01
  8.430100000E-02  8.074639989E-03
   p   9
  2.453302900E+02  1.024860004E-03
  5.691900500E+01  8.344290032E-03
  1.760456800E+01  4.078927016E-02
  6.274995000E+00  1.351370605E-01
  2.447030000E+00  2.798830811E-01
  9.950600000E-01  3.597966414E-01
  4.039730000E-01  3.055347412E-01
  1.548100000E-01  1.354703905E-01
  5.418400000E-02  2.804449011E-02
 
[MO]
Sym=     1a  
Ene=   -26.4080
Spin= Alpha
Occup=    2.00000
   1         0.70710225
   2         0.00003447
   3         0.00000000
   4         0.00000000
   5         0.00009776
   6         0.70710225
   7         0.00003447
   8         0.00000000
   9        -0.00000000
  10        -0.00009776
Sym=     2a  
Ene=   -26.4080
Spin= Alpha
Occup=    2.00000
   1        -0.70711030
   2         0.00003359
   3         0.00000000
   4        -0.00000000
   5         0.00009716
   6         0.70711030
   7        -0.00003359
   8         0.00000000
   9         0.00000000
  10         0.00009716
Sym=     3a  
Ene=    -1.6158
Spin= Alpha
Occup=    2.00000
   1        -0.00076642
   2         0.69600822
   3         0.00000000
   4         0.00000000
   5         0.03966222
   6        -0.00076642
   7         0.69600822
   8         0.00000000
   9         0.00000000
  10        -0.03966222
Sym=     4a  
Ene=    -1.5482
Spin= Alpha
Occup=    2.00000
   1        -0.00037815
   2        -0.71135806
   3        -0.00000000
   4        -0.00000000
   5         0.03785942
   6         0.00037815
   7         0.71135806
   8        -0.00000000
   9        -0.00000000
  10         0.03785942
Sym=     5a  
Ene=    -0.7883
Spin= Alpha
Occup=    2.00000
   1         0.00332041
   2         0.08337294
   3         0.00000000
   4         0.00000000
   5        -0.67862697
   6         0.00332041
   7         0.08337294
   8         0.00000000
   9         0.00000000
  10         0.67862697
Sym=     6a  
Ene=    -0.7532
Spin= Alpha
Occup=    2.00000
   1        -0.00000000
   2        -0.00000000
   3         0.21005462
   4         0.66427944
   5         0.00000000
   6         0.00000000
   7         0.00000000
   8         0.21005462
   9         0.66427944
  10        -0.00000000
Sym=     7a  
Ene=    -0.7532
Spin= Alpha
Occup=    2.00000
   1         0.00000000
   2        -0.00000000
   3         0.66427944
   4        -0.21005462
   5        -0.00000000
   6        -0.00000000
   7         0.00000000
   8         0.66427944
   9        -0.21005462
  10        -0.00000000
Sym=     8a  
Ene=    -0.7092
Spin= Alpha
Occup=    2.00000
   1        -0.00000000
   2        -0.00000000
   3         0.06524960
   4        -0.71502388
   5        -0.00000000
   6         0.00000000
   7         0.00000000
   8        -0.06524960
   9         0.71502388
  10        -0.00000000
Sym=     9a  
Ene=    -0.7092
Spin= Alpha
Occup=    2.00000
   1         0.00000000
   2        -0.00000000
   3        -0.71502388
   4        -0.06524960
   5         0.00000000
   6        -0.00000000
   7         0.00000000
   8         0.71502388
   9         0.06524960
  10        -0.00000000
Sym=    10a  
Ene=    -0.6629
Spin= Alpha
Occup=    0.00000
   1         0.00374178
   2         0.08495182
   3         0.00000000
   4        -0.00000000
   5         0.74038454
   6        -0.00374178
   7        -0.08495182
   8         0.00000000
   9         0.00000000
  10         0.74038454
