[Molden Format]
[N_Atoms]
                     2
[Atoms] (AU)
F1          1      9           0.00000000      0.00000000      0.00000000
F2          2      9           0.00000000      0.00000000      4.15739747
[Charge] (Mulliken)
  1.421085471520200E-013
 -1.545430450278218E-013
[GTO] (AU)
   1
   s  14
  1.031094600E+05  1.713099991E-04
  1.528100700E+04  7.123999962E-04
  3.441539200E+03  2.990479984E-03
  9.670948300E+02  1.164036994E-02
  3.140353400E+02  3.968642979E-02
  1.134423000E+02  1.128546094E-01
  4.464472700E+01  2.473650687E-01
  1.894287400E+01  3.672702681E-01
  8.532743000E+00  2.896286985E-01
  3.919401000E+00  7.786681959E-02
  1.568157000E+00  4.562139976E-03
  6.232900000E-01  2.468879987E-03
  2.408610000E-01  1.106309994E-03
  8.430100000E-02  1.739699991E-04
   s  14
  1.031094600E+05 -4.044999995E-05
  1.528100700E+04 -1.682299998E-04
  3.441539200E+03 -7.084299991E-04
  9.670948300E+02 -2.767999996E-03
  3.140353400E+02 -9.611379987E-03
  1.134423000E+02 -2.833957996E-02
  4.464472700E+01 -6.839343991E-02
  1.894287400E+01 -1.237379298E-01
  8.532743000E+00 -1.512859698E-01
  3.919401000E+00 -9.099909988E-03
  1.568157000E+00  3.716257695E-01
  6.232900000E-01  5.500214393E-01
  2.408610000E-01  2.092318697E-01
  8.430100000E-02  8.074639989E-03
   p   9
  2.453302900E+02  1.024860004E-03
  5.691900500E+01  8.344290032E-03
  1.760456800E+01  4.078927016E-02
  6.274995000E+00  1.351370605E-01
  2.447030000E+00  2.798830811E-01
  9.950600000E-01  3.597966414E-01
  4.039730000E-01  3.055347412E-01
  1.548100000E-01  1.354703905E-01
  5.418400000E-02  2.804449011E-02
 
   2
   s  14
  1.031094600E+05  1.713099991E-04
  1.528100700E+04  7.123999962E-04
  3.441539200E+03  2.990479984E-03
  9.670948300E+02  1.164036994E-02
  3.140353400E+02  3.968642979E-02
  1.134423000E+02  1.128546094E-01
  4.464472700E+01  2.473650687E-01
  1.894287400E+01  3.672702681E-01
  8.532743000E+00  2.896286985E-01
  3.919401000E+00  7.786681959E-02
  1.568157000E+00  4.562139976E-03
  6.232900000E-01  2.468879987E-03
  2.408610000E-01  1.106309994E-03
  8.430100000E-02  1.739699991E-04
   s  14
  1.031094600E+05 -4.044999995E-05
  1.528100700E+04 -1.682299998E-04
  3.441539200E+03 -7.084299991E-04
  9.670948300E+02 -2.767999996E-03
  3.140353400E+02 -9.611379987E-03
  1.134423000E+02 -2.833957996E-02
  4.464472700E+01 -6.839343991E-02
  1.894287400E+01 -1.237379298E-01
  8.532743000E+00 -1.512859698E-01
  3.919401000E+00 -9.099909988E-03
  1.568157000E+00  3.716257695E-01
  6.232900000E-01  5.500214393E-01
  2.408610000E-01  2.092318697E-01
  8.430100000E-02  8.074639989E-03
   p   9
  2.453302900E+02  1.024860004E-03
  5.691900500E+01  8.344290032E-03
  1.760456800E+01  4.078927016E-02
  6.274995000E+00  1.351370605E-01
  2.447030000E+00  2.798830811E-01
  9.950600000E-01  3.597966414E-01
  4.039730000E-01  3.055347412E-01
  1.548100000E-01  1.354703905E-01
  5.418400000E-02  2.804449011E-02
 
[MO]
Sym=     1a  
Ene=   -26.4900
Spin= Alpha
Occup=    2.00000
   1         0.70709970
   2        -0.00245802
   3         0.00000000
   4        -0.00000000
   5         0.00011090
   6         0.70709977
   7        -0.00245802
   8         0.00000000
   9         0.00000000
  10        -0.00011090
Sym=     2a  
Ene=   -26.4900
Spin= Alpha
Occup=    2.00000
   1        -0.70710551
   2         0.00240793
   3         0.00000000
   4        -0.00000000
   5        -0.00011342
   6         0.70710544
   7        -0.00240793
   8         0.00000000
   9         0.00000000
  10        -0.00011342
Sym=     3a  
Ene=    -1.6402
Spin= Alpha
Occup=    2.00000
   1         0.00187376
   2         0.69860524
   3         0.00000000
   4         0.00000000
   5         0.01460746
   6         0.00187376
   7         0.69860524
   8         0.00000000
   9         0.00000000
  10        -0.01460746
Sym=     4a  
Ene=    -1.6090
Spin= Alpha
Occup=    2.00000
   1        -0.00284758
   2        -0.71342220
   3        -0.00000000
   4         0.00000000
   5         0.01747215
   6         0.00284758
   7         0.71342220
   8         0.00000000
   9         0.00000000
  10         0.01747215
Sym=     5a  
Ene=    -0.7582
Spin= Alpha
Occup=    2.00000
   1        -0.00000000
   2        -0.00000000
   3        -0.04230063
   4         0.69541410
   5         0.00000000
   6         0.00000000
   7        -0.00000000
   8        -0.04230063
   9         0.69541410
  10        -0.00000000
Sym=     6a  
Ene=    -0.7433
Spin= Alpha
Occup=    2.00000
   1         0.00000000
   2         0.00000000
   3         0.69541410
   4         0.04230063
   5        -0.00000000
   6         0.00000000
   7         0.00000000
   8         0.69541410
   9         0.04230063
  10         0.00000000
Sym=     7a  
Ene=    -0.7410
Spin= Alpha
Occup=    2.00000
   1        -0.00000000
   2        -0.00000000
   3         0.04359360
   4        -0.71667026
   5         0.00000000
   6        -0.00000000
   7        -0.00000000
   8        -0.04359360
   9         0.71667026
  10        -0.00000000
Sym=     8a  
Ene=    -0.5901
Spin= Alpha
Occup=    2.00000
   1         0.00341419
   2         0.05764692
   3        -0.00000000
   4        -0.00000000
   5        -0.67962804
   6         0.00341419
   7         0.05764692
   8        -0.00000000
   9         0.00000000
  10         0.67962804
Sym=     9a  
Ene=    -0.7103
Spin= Alpha
Occup=    1.86775
   1         0.00000000
   2         0.00000000
   3        -0.71667026
   4        -0.04359360
   5         0.00000000
   6        -0.00000000
   7        -0.00000000
   8         0.71667026
   9         0.04359360
  10         0.00000000
Sym=    10a  
Ene=     0.0002
Spin= Alpha
Occup=    0.13225
   1         0.00358484
   2         0.06534571
   3         0.00000000
   4         0.00000000
   5         0.74114595
   6        -0.00358484
   7        -0.06534571
   8        -0.00000000
   9        -0.00000000
  10         0.74114595
