[Molden Format]
[N_Atoms]
                     2
[Atoms] (AU)
F1          1      9           0.00000000      0.00000000      0.00000000
F2          2      9           0.00000000      0.00000000      4.15739747
[Charge] (Mulliken)
   1.00547724773975     
  0.994522752260188     
[GTO] (AU)
   1
   s  14
  1.031094600E+05  1.713099991E-04
  1.528100700E+04  7.123999962E-04
  3.441539200E+03  2.990479984E-03
  9.670948300E+02  1.164036994E-02
  3.140353400E+02  3.968642979E-02
  1.134423000E+02  1.128546094E-01
  4.464472700E+01  2.473650687E-01
  1.894287400E+01  3.672702681E-01
  8.532743000E+00  2.896286985E-01
  3.919401000E+00  7.786681959E-02
  1.568157000E+00  4.562139976E-03
  6.232900000E-01  2.468879987E-03
  2.408610000E-01  1.106309994E-03
  8.430100000E-02  1.739699991E-04
   s  14
  1.031094600E+05 -4.044999995E-05
  1.528100700E+04 -1.682299998E-04
  3.441539200E+03 -7.084299991E-04
  9.670948300E+02 -2.767999996E-03
  3.140353400E+02 -9.611379987E-03
  1.134423000E+02 -2.833957996E-02
  4.464472700E+01 -6.839343991E-02
  1.894287400E+01 -1.237379298E-01
  8.532743000E+00 -1.512859698E-01
  3.919401000E+00 -9.099909988E-03
  1.568157000E+00  3.716257695E-01
  6.232900000E-01  5.500214393E-01
  2.408610000E-01  2.092318697E-01
  8.430100000E-02  8.074639989E-03
   p   9
  2.453302900E+02  1.024860004E-03
  5.691900500E+01  8.344290032E-03
  1.760456800E+01  4.078927016E-02
  6.274995000E+00  1.351370605E-01
  2.447030000E+00  2.798830811E-01
  9.950600000E-01  3.597966414E-01
  4.039730000E-01  3.055347412E-01
  1.548100000E-01  1.354703905E-01
  5.418400000E-02  2.804449011E-02
 
   2
   s  14
  1.031094600E+05  1.713099991E-04
  1.528100700E+04  7.123999962E-04
  3.441539200E+03  2.990479984E-03
  9.670948300E+02  1.164036994E-02
  3.140353400E+02  3.968642979E-02
  1.134423000E+02  1.128546094E-01
  4.464472700E+01  2.473650687E-01
  1.894287400E+01  3.672702681E-01
  8.532743000E+00  2.896286985E-01
  3.919401000E+00  7.786681959E-02
  1.568157000E+00  4.562139976E-03
  6.232900000E-01  2.468879987E-03
  2.408610000E-01  1.106309994E-03
  8.430100000E-02  1.739699991E-04
   s  14
  1.031094600E+05 -4.044999995E-05
  1.528100700E+04 -1.682299998E-04
  3.441539200E+03 -7.084299991E-04
  9.670948300E+02 -2.767999996E-03
  3.140353400E+02 -9.611379987E-03
  1.134423000E+02 -2.833957996E-02
  4.464472700E+01 -6.839343991E-02
  1.894287400E+01 -1.237379298E-01
  8.532743000E+00 -1.512859698E-01
  3.919401000E+00 -9.099909988E-03
  1.568157000E+00  3.716257695E-01
  6.232900000E-01  5.500214393E-01
  2.408610000E-01  2.092318697E-01
  8.430100000E-02  8.074639989E-03
   p   9
  2.453302900E+02  1.024860004E-03
  5.691900500E+01  8.344290032E-03
  1.760456800E+01  4.078927016E-02
  6.274995000E+00  1.351370605E-01
  2.447030000E+00  2.798830811E-01
  9.950600000E-01  3.597966414E-01
  4.039730000E-01  3.055347412E-01
  1.548100000E-01  1.354703905E-01
  5.418400000E-02  2.804449011E-02
 
[MO]
Sym=     1a  
Ene=   -27.9280
Spin= Alpha
Occup=    2.00000
   1        -0.99998808
   2         0.00487677
   3        -0.00000000
   4        -0.00000000
   5        -0.00014395
   6        -0.00004673
   7         0.00002422
   8         0.00000000
   9         0.00000000
  10         0.00000752
Sym=     2a  
Ene=   -27.8990
Spin= Alpha
Occup=    2.00000
   1        -0.00005195
   2        -0.00001814
   3         0.00000000
   4         0.00000000
   5         0.00000272
   6         0.99998815
   7        -0.00486756
   8        -0.00000000
   9        -0.00000000
  10         0.00002902
Sym=     3a  
Ene=    -2.6493
Spin= Alpha
Occup=    2.00000
   1         0.00446602
   2         0.95604928
   3        -0.00000000
   4        -0.00000000
   5         0.04631104
   6         0.00047943
   7         0.26606376
   8         0.00000000
   9         0.00000000
  10        -0.00435213
Sym=     4a  
Ene=    -2.6188
Spin= Alpha
Occup=    2.00000
   1        -0.00215899
   2        -0.29106492
   3        -0.00000000
   4        -0.00000000
   5        -0.01368130
   6         0.00493931
   7         0.96387617
   8         0.00000000
   9        -0.00000000
  10        -0.02754780
Sym=     5a  
Ene=    -1.7890
Spin= Alpha
Occup=    2.00000
   1         0.00044400
   2         0.04794352
   3         0.00000000
   4         0.00000000
   5        -0.99854495
   6         0.00481338
   7         0.06627877
   8        -0.00000000
   9         0.00000000
  10         0.02413143
Sym=     6a  
Ene=    -1.7503
Spin= Alpha
Occup=    2.00000
   1         0.00000000
   2         0.00000000
   3         0.00044328
   4        -0.00704928
   5         0.00000000
   6        -0.00000000
   7        -0.00000000
   8        -0.06277108
   9         0.99821600
  10         0.00000000
Sym=     7a  
Ene=    -1.7503
Spin= Alpha
Occup=    2.00000
   1         0.00000000
   2         0.00000000
   3         0.00704928
   4         0.00044328
   5         0.00000000
   6        -0.00000000
   7         0.00000000
   8        -0.99821600
   9        -0.06277108
  10         0.00000000
Sym=     8a  
Ene=    -1.4307
Spin= Alpha
Occup=    1.00000
   1         0.00000000
   2         0.00000000
   3        -0.66315366
   4        -0.74905548
   5        -0.00000000
   6         0.00000000
   7         0.00000000
   8         0.01528057
   9         0.01725994
  10         0.00000000
Sym=     9a  
Ene=     0.0000
Spin= Alpha
Occup=    1.00000
   1         0.00000000
   2         0.00000000
   3        -0.74905548
   4         0.66315366
   5        -0.00000000
   6         0.00000000
   7         0.00000000
   8         0.01725994
   9        -0.01528057
  10         0.00000000
Sym=    10a  
Ene=    -1.0729
Spin= Alpha
Occup=    0.00000
   1         0.00483375
   2         0.05961725
   3        -0.00000000
   4        -0.00000000
   5         0.11084379
   6        -0.00047731
   7         0.01902165
   8         0.00000000
   9        -0.00000000
  10         1.00516174
