[Molden Format]
[N_Atoms]
                     2
[Atoms] (AU)
C1          1      6           0.00000000      0.00000000      0.00000000
LI2         2      3           0.00000000      0.00000000      2.26767135
[Charge] (Mulliken)
 -0.392442308079490     
  0.392442308079477     
[GTO] (AU)
   1
   s  14
  5.055750100E+04  1.128874000E-04
  7.524785600E+03  5.295373000E-04
  1.694327600E+03  2.450038300E-03
  4.728227900E+02  1.005398470E-02
  1.517107500E+02  3.545398060E-02
  5.391874600E+01  1.044071086E-01
  2.065931100E+01  2.412894918E-01
  8.383976000E+00  3.834225483E-01
  3.577015000E+00  3.078514393E-01
  1.547118000E+00  6.872442990E-02
  6.130130000E-01  2.224445000E-04
  2.460680000E-01  1.976748900E-03
  9.908700000E-02  2.057859400E-03
  3.468000000E-02  4.182020000E-04
   s  14
  5.055750100E+04 -2.507420000E-05
  7.524785600E+03 -1.175945000E-04
  1.694327600E+03 -5.456275000E-04
  4.728227900E+02 -2.245077100E-03
  1.517107500E+02 -8.043471800E-03
  5.391874600E+01 -2.442588710E-02
  2.065931100E+01 -6.136791180E-02
  8.383976000E+00 -1.177767835E-01
  3.577015000E+00 -1.550487783E-01
  1.547118000E+00 -1.933316860E-02
  6.130130000E-01  3.996930678E-01
  2.460680000E-01  5.589420949E-01
  9.908700000E-02  1.711195023E-01
  3.468000000E-02  7.456244600E-03
   p   9
  8.333315500E+01  1.344656000E-03
  1.955761100E+01  1.023555500E-02
  6.080365000E+00  4.520067100E-02
  2.179317000E+00  1.410756198E-01
  8.651500000E-01  3.047388085E-01
  3.619440000E-01  3.995281011E-01
  1.547400000E-01  2.719163432E-01
  6.542900000E-02  5.857669330E-02
  2.290000000E-02 -1.263813000E-04
 
   2
   s  14
  9.497934400E+03  9.668999974E-05
  1.416811200E+03  6.087099984E-04
  3.214599400E+02  3.101519992E-03
  9.112416300E+01  1.266904997E-02
  2.999989100E+01  4.248012989E-02
  1.101763100E+01  1.150183297E-01
  4.372801000E+00  2.398650094E-01
  1.831256000E+00  3.584300090E-01
  8.022610000E-01  3.048527792E-01
  3.626480000E-01  8.824261976E-02
  1.139950000E-01 -8.445899977E-04
  5.123700000E-02 -7.943959979E-03
  2.246800000E-02 -3.764419990E-03
  7.860000000E-03 -8.868999976E-05
   s  14
  9.497934400E+03 -1.244999993E-05
  1.416811200E+03 -7.838999954E-05
  3.214599400E+02 -4.007099976E-04
  9.112416300E+01 -1.645249990E-03
  2.999989100E+01 -5.634599967E-03
  1.101763100E+01 -1.590780991E-02
  4.372801000E+00 -3.612581979E-02
  1.831256000E+00 -6.459927962E-02
  8.022610000E-01 -1.008321794E-01
  3.626480000E-01 -9.757613942E-02
  1.139950000E-01  2.301215886E-01
  5.123700000E-02  6.102389764E-01
  2.246800000E-02  2.849406083E-01
  7.860000000E-03  4.026899976E-03
   p   9
  1.311950400E+01  1.524940000E-03
  3.077424200E+00  8.314830000E-03
  1.098800500E+00  1.933203000E-02
  4.357784000E-01  4.934293000E-02
  1.802432000E-01  1.623554000E-01
  7.613330000E-02  3.847505400E-01
  3.254650000E-02  4.336100400E-01
  1.401820000E-02  1.287005900E-01
  4.906400000E-03 -1.018520000E-03
 
[MO]
Sym=     1a  
Ene=   -11.2330
Spin= Alpha
Occup=    1.00000
   1         1.00028875
   2         0.00167874
   3         0.00000000
   4        -0.00000000
   5         0.00140587
   6        -0.00114329
   7        -0.00245325
   8         0.00000000
   9        -0.00000000
  10         0.00134462
Sym=     1a  
Ene=   -11.2080
Spin= Beta
Occup=    1.00000
   1         1.00018242
   2        -0.00152822
   3        -0.00000000
   4         0.00000000
   5         0.00121252
   6        -0.00060474
   7        -0.00170743
   8         0.00000000
   9        -0.00000000
  10         0.00079132
Sym=     2a  
Ene=    -2.5908
Spin= Alpha
Occup=    1.00000
   1        -0.01066040
   2         0.03716812
   3         0.00000000
   4         0.00000000
   5         0.02623962
   6         0.98360631
   7         0.00201124
   8        -0.00000000
   9        -0.00000000
  10        -0.00069601
Sym=     2a  
Ene=    -2.5887
Spin= Beta
Occup=    1.00000
   1        -0.01048140
   2         0.03025759
   3         0.00000000
   4         0.00000000
   5         0.02377369
   6         0.98600693
   7         0.00253352
   8        -0.00000000
   9        -0.00000000
  10        -0.00069176
Sym=     3a  
Ene=    -0.7383
Spin= Alpha
Occup=    1.00000
   1        -0.00395376
   2         0.97821780
   3         0.00000000
   4        -0.00000000
   5         0.07468015
   6        -0.25568448
   7         0.01910535
   8         0.00000000
   9         0.00000000
  10        -0.06533681
Sym=     3a  
Ene=    -0.6102
Spin= Beta
Occup=    1.00000
   1        -0.00699123
   2         0.94034952
   3        -0.00000000
   4        -0.00000000
   5         0.07275813
   6        -0.24099679
   7         0.05862808
   8         0.00000000
   9         0.00000000
  10        -0.09691618
Sym=     4a  
Ene=    -0.3986
Spin= Alpha
Occup=    1.00000
   1         0.00000000
   2         0.00000000
   3         0.89320167
   4        -0.19644727
   5        -0.00000000
   6        -0.00000000
   7        -0.00000000
   8         0.17708002
   9        -0.03894628
  10         0.00000000
Sym=     4a  
Ene=    -0.2843
Spin= Beta
Occup=    1.00000
   1         0.00000000
   2         0.00000000
   3         0.17091014
   4         0.77709010
   5         0.00000000
   6        -0.00000000
   7        -0.00000000
   8         0.07915146
   9         0.35988396
  10         0.00000000
Sym=     5a  
Ene=    -0.3407
Spin= Alpha
Occup=    1.00000
   1         0.00000000
   2         0.00000000
   3         0.18832845
   4         0.85628725
   5         0.00000000
   6        -0.00000000
   7        -0.00000000
   8         0.05297818
   9         0.24087992
  10         0.00000000
Sym=     5a  
Ene=     0.0148
Spin= Beta
Occup=    0.00000
   1        -0.00031622
   2        -0.11168003
   3        -0.00000000
   4         0.00000000
   5        -0.00465804
   6         0.01813474
   7         0.81758383
   8        -0.00000000
   9         0.00000000
  10         0.58843962
Sym=     6a  
Ene=     0.0140
Spin= Alpha
Occup=    0.00000
   1        -0.00308645
   2        -0.12217255
   3         0.00000000
   4        -0.00000000
   5         0.00564490
   6         0.01650328
   7         0.83347464
   8         0.00000000
   9         0.00000000
  10         0.56659796
Sym=     6a  
Ene=     0.0349
Spin= Beta
Occup=    0.00000
   1         0.00000000
   2         0.00000000
   3         0.30637712
   4        -0.06738338
   5         0.00000000
   6        -0.00000000
   7         0.00000000
   8         0.81442098
   9        -0.17912055
  10         0.00000000
Sym=     7a  
Ene=     0.1294
Spin= Alpha
Occup=    0.00000
   1        -0.00000000
   2        -0.00000000
   3        -0.57578134
   4         0.12663509
   5         0.00000000
   6         0.00000000
   7         0.00000000
   8         1.04784352
   9        -0.23045859
  10        -0.00000000
Sym=     7a  
Ene=     0.1688
Spin= Beta
Occup=    0.00000
   1        -0.00000000
   2        -0.00000000
   3        -0.15942928
   4        -0.72488920
   5        -0.00000000
   6         0.00000000
   7         0.00000000
   8         0.21991594
   9         0.99990845
  10        -0.00000000
Sym=     8a  
Ene=     0.1501
Spin= Alpha
Occup=    0.00000
   1        -0.00000000
   2        -0.00000000
   3        -0.13842098
   4        -0.62936914
   5        -0.00000000
   6         0.00000000
   7         0.00000000
   8         0.22764289
   9         1.03504118
  10        -0.00000000
Sym=     8a  
Ene=     0.2059
Spin= Beta
Occup=    0.00000
   1         0.11039708
   2         0.76690231
   3         0.00000000
   4        -0.00000000
   5         0.77570157
   6        -0.40806391
   7        -0.73713855
   8        -0.00000000
   9         0.00000000
  10         0.66994379
Sym=     9a  
Ene=     0.1783
Spin= Alpha
Occup=    0.00000
   1         0.06802697
   2         0.45854279
   3        -0.00000000
   4        -0.00000000
   5         0.97124909
   6        -0.41114013
   7        -0.51584289
   8         0.00000000
   9         0.00000000
  10         0.35896000
Sym=     9a  
Ene=     0.2320
Spin= Beta
Occup=    0.00000
   1         0.11078247
   2         0.76995638
   3         0.00000000
   4        -0.00000000
   5        -0.73358053
   6         0.08416121
   7        -0.55831248
   8        -0.00000000
   9         0.00000000
  10         0.84478730
Sym=    10a  
Ene=     0.2090
Spin= Alpha
Occup=    0.00000
   1         0.14014249
   2         0.94611707
   3        -0.00000000
   4        -0.00000000
   5        -0.44284438
   6        -0.04529700
   7        -0.75221474
   8         0.00000000
   9         0.00000000
  10         1.03149822
Sym=    10a  
Ene=     0.2922
Spin= Beta
Occup=    0.00000
   1         0.00000000
   2         0.00000000
   3        -1.01757872
   4         0.22380227
   5        -0.00000000
   6        -0.00000000
   7        -0.00000000
   8         0.68267990
   9        -0.15014593
  10         0.00000000
