[Molden Format]
[N_Atoms]
                     2
[Atoms] (AU)
BE1         1      4           0.00000000      0.00000000      0.00000000
N2          2      7           0.00000000      0.00000000      2.83458919
[Charge] (Mulliken)
  0.255096471299424     
 -0.255096471299506     
[GTO] (AU)
   1
   s  14
  2.262859900E+04  8.443999941E-05
  3.372318100E+03  4.601499968E-04
  7.603504000E+02  2.285389984E-03
  2.117404800E+02  9.648129932E-03
  6.722346800E+01  3.494469975E-02
  2.337217700E+01  1.061099893E-01
  8.721373000E+00  2.458240383E-01
  3.468091000E+00  3.862428773E-01
  1.452144000E+00  3.105526078E-01
  6.086150000E-01  6.415933955E-02
  2.576860000E-01 -2.265049984E-03
  1.041760000E-01 -5.217499963E-04
  4.242700000E-02 -8.757499938E-04
  1.484900000E-02  1.242199991E-04
   s  14
  2.262859900E+04 -1.586999994E-05
  3.372318100E+03 -8.656999968E-05
  7.603504000E+02 -4.302199984E-04
  2.117404800E+02 -1.825079993E-03
  6.722346800E+01 -6.682749976E-03
  2.337217700E+01 -2.095119992E-02
  8.721373000E+00 -5.200308981E-02
  3.468091000E+00 -9.849176964E-02
  1.452144000E+00 -1.355800695E-01
  6.086150000E-01 -6.429875976E-02
  2.576860000E-01  3.125414989E-01
  1.041760000E-01  6.270468577E-01
  4.242700000E-02  2.110231492E-01
  1.484900000E-02 -4.104669985E-03
   p   9
  3.371018400E+01  1.069960000E-03
  8.057649500E+00  6.828550001E-03
  2.836471400E+00  2.119065000E-02
  1.099965700E+00  5.843696001E-02
  4.433964000E-01  2.020920800E-01
  1.822264000E-01  4.582953101E-01
  7.572410000E-02  3.691239601E-01
  3.168540000E-02  6.611471001E-02
  1.108990000E-02  1.405160000E-03
 
   2
   s  14
  7.476171500E+04  1.182599996E-04
  1.112365400E+04  5.172899983E-04
  2.512685700E+03  2.266659992E-03
  7.037772900E+02  9.145289970E-03
  2.254787900E+02  3.239342989E-02
  7.961581000E+01  9.770792967E-02
  3.023728300E+01  2.317036792E-01
  1.226362200E+01  3.768898887E-01
  5.265086000E+00  3.177420689E-01
  2.333471000E+00  8.211308973E-02
  9.018560000E-01  3.312089989E-03
  3.583360000E-01  3.720819988E-03
  1.410930000E-01  3.165419989E-03
  4.938300000E-02  4.595799985E-04
   s  14
  7.476171500E+04 -2.707000010E-05
  1.112365400E+04 -1.183700004E-04
  2.512685700E+03 -5.203800020E-04
  7.037772900E+02 -2.102930008E-03
  2.254787900E+02 -7.568200028E-03
  7.961581000E+01 -2.346767009E-02
  3.023728300E+01 -6.042901023E-02
  1.226362200E+01 -1.170549104E-01
  5.265086000E+00 -1.555321506E-01
  2.333471000E+00 -2.468935009E-02
  9.018560000E-01  3.625054514E-01
  3.583360000E-01  5.550845021E-01
  1.410930000E-01  2.148376908E-01
  4.938300000E-02  8.983850034E-03
   p   9
  1.266665700E+02  1.233630000E-03
  2.983738900E+01  9.493409996E-03
  9.394038000E+00  4.293961998E-02
  3.405104000E+00  1.362925399E-01
  1.350000000E+00  2.921362499E-01
  5.576960000E-01  3.887887598E-01
  2.324490000E-01  2.946801399E-01
  9.426400000E-02  8.012875997E-02
  3.299200000E-02  5.405199998E-04
 
[MO]
Sym=     1a  
Ene=   -15.5950
Spin= Alpha
Occup=    1.00000
   1        -0.00063797
   2        -0.00271376
   3         0.00000000
   4        -0.00000000
   5        -0.00242490
   6         1.00033614
   7        -0.00027444
   8        -0.00000000
   9         0.00000000
  10        -0.00129814
Sym=     1a  
Ene=   -15.5180
Spin= Beta
Occup=    1.00000
   1        -0.00029302
   2        -0.00119479
   3         0.00000000
   4        -0.00000000
   5        -0.00089382
   6         1.00010721
   7        -0.00657516
   8        -0.00000000
   9         0.00000000
  10        -0.00086149
Sym=     2a  
Ene=    -4.7409
Spin= Alpha
Occup=    1.00000
   1         0.99954059
   2         0.00260721
   3         0.00000000
   4        -0.00000000
   5         0.00142023
   6        -0.00049658
   7         0.00231734
   8         0.00000000
   9        -0.00000000
  10        -0.00316173
Sym=     2a  
Ene=    -4.7612
Spin= Beta
Occup=    1.00000
   1         0.99969508
   2         0.00335128
   3         0.00000000
   4        -0.00000000
   5         0.00047458
   6        -0.00040700
   7         0.00219734
   8        -0.00000000
   9         0.00000000
  10        -0.00172917
Sym=     3a  
Ene=    -1.1500
Spin= Alpha
Occup=    1.00000
   1        -0.06084331
   2         0.02747734
   3         0.00000000
   4        -0.00000000
   5         0.04861551
   6        -0.00268103
   7         0.96133021
   8        -0.00000000
   9         0.00000000
  10        -0.05304304
Sym=     3a  
Ene=    -0.8554
Spin= Beta
Occup=    1.00000
   1        -0.06816375
   2         0.15057639
   3        -0.00000000
   4         0.00000000
   5         0.11794240
   6        -0.01028186
   7         0.83610332
   8         0.00000000
   9        -0.00000000
  10        -0.19039832
Sym=     4a  
Ene=    -0.6157
Spin= Alpha
Occup=    1.00000
   1        -0.08697199
   2         0.12807931
   3         0.00000000
   4        -0.00000000
   5         0.14692173
   6        -0.01881858
   7        -0.19965872
   8         0.00000000
   9        -0.00000000
  10        -0.93209616
Sym=     4a  
Ene=    -0.3364
Spin= Beta
Occup=    1.00000
   1         0.00495615
   2         0.87934687
   3        -0.00000000
   4         0.00000000
   5        -0.46110609
   6        -0.00673460
   7        -0.23058810
   8        -0.00000000
   9         0.00000000
  10        -0.04768334
Sym=     5a  
Ene=    -0.5635
Spin= Alpha
Occup=    1.00000
   1         0.00000000
   2        -0.00000000
   3         0.10294097
   4         0.04571802
   5        -0.00000000
   6         0.00000000
   7        -0.00000000
   8         0.87882380
   9         0.39030215
  10         0.00000000
Sym=     5a  
Ene=    -0.3276
Spin= Beta
Occup=    1.00000
   1        -0.00000000
   2        -0.00000000
   3        -0.22731203
   4         0.51182711
   5         0.00000000
   6        -0.00000000
   7         0.00000000
   8        -0.27689529
   9         0.62347126
  10        -0.00000000
Sym=     6a  
Ene=    -0.5167
Spin= Alpha
Occup=    1.00000
   1         0.00000000
   2        -0.00000000
   3         0.05191301
   4        -0.11688992
   5        -0.00000000
   6         0.00000000
   7         0.00000000
   8         0.38782325
   9        -0.87324219
  10         0.00000000
Sym=     6a  
Ene=     0.0234
Spin= Beta
Occup=    0.00000
   1        -0.00000000
   2        -0.00000000
   3         0.75874419
   4         0.33697254
   5         0.00000000
   6        -0.00000000
   7        -0.00000000
   8         0.33528912
   9         0.14890820
  10        -0.00000000
Sym=     7a  
Ene=     0.0857
Spin= Alpha
Occup=    0.00000
   1         0.02917691
   2         0.94707095
   3        -0.00000000
   4         0.00000000
   5        -0.40984134
   6        -0.01312367
   7        -0.17303155
   8         0.00000000
   9        -0.00000000
  10         0.21184428
Sym=     7a  
Ene=     0.1289
Spin= Beta
Occup=    0.00000
   1        -0.04373371
   2         0.12403826
   3         0.00000000
   4        -0.00000000
   5         0.54693589
   6        -0.05427568
   7        -0.59892831
   8        -0.00000000
   9         0.00000000
  10        -0.73952283
Sym=     8a  
Ene=     0.1763
Spin= Alpha
Occup=    0.00000
   1        -0.00000000
   2        -0.00000000
   3        -0.94915098
   4        -0.42153577
   5         0.00000000
   6         0.00000000
   7         0.00000000
   8         0.37303238
   9         0.16567068
  10        -0.00000000
Sym=     8a  
Ene=     0.1794
Spin= Beta
Occup=    0.00000
   1         0.00000000
   2        -0.00000000
   3         0.35792706
   4        -0.80592645
   5        -0.00000000
   6         0.00000000
   7         0.00000000
   8        -0.32110986
   9         0.72302698
  10         0.00000000
Sym=     9a  
Ene=     0.1984
Spin= Alpha
Occup=    0.00000
   1         0.00000000
   2         0.00000000
   3         0.42081776
   4        -0.94753426
   5        -0.00000000
   6        -0.00000000
   7        -0.00000000
   8        -0.17139331
   9         0.38591774
  10         0.00000000
Sym=     9a  
Ene=     0.3128
Spin= Beta
Occup=    0.00000
   1         0.00000000
   2         0.00000000
   3        -0.57947535
   4        -0.25735588
   5         0.00000000
   6        -0.00000000
   7        -0.00000000
   8         0.89390471
   9         0.39699987
  10         0.00000000
Sym=    10a  
Ene=     0.4473
Spin= Alpha
Occup=    0.00000
   1         0.11144639
   2         0.80670975
   3        -0.00000000
   4         0.00000000
   5         1.23848173
   6        -0.14315390
   7        -1.02492300
   8        -0.00000000
   9         0.00000000
  10         0.57588502
Sym=    10a  
Ene=     0.4976
Spin= Beta
Occup=    0.00000
   1         0.13283670
   2         0.86808706
   3         0.00000000
   4        -0.00000000
   5         1.09548854
   6        -0.13560138
   7        -0.96614133
   8        -0.00000000
   9         0.00000000
  10         0.81408051
