[Molden Format]
[N_Atoms]
                     2
[Atoms] (AU)
BE1         1      4           0.00000000      0.00000000      0.00000000
BE2         2      4           0.00000000      0.00000000      4.34637009
[Charge] (Mulliken)
 -1.374118596686458E-010
  1.373976488139306E-010
[GTO] (AU)
   1
   s  14
  2.262859900E+04  8.443999941E-05
  3.372318100E+03  4.601499968E-04
  7.603504000E+02  2.285389984E-03
  2.117404800E+02  9.648129932E-03
  6.722346800E+01  3.494469975E-02
  2.337217700E+01  1.061099893E-01
  8.721373000E+00  2.458240383E-01
  3.468091000E+00  3.862428773E-01
  1.452144000E+00  3.105526078E-01
  6.086150000E-01  6.415933955E-02
  2.576860000E-01 -2.265049984E-03
  1.041760000E-01 -5.217499963E-04
  4.242700000E-02 -8.757499938E-04
  1.484900000E-02  1.242199991E-04
   s  14
  2.262859900E+04 -1.586999994E-05
  3.372318100E+03 -8.656999968E-05
  7.603504000E+02 -4.302199984E-04
  2.117404800E+02 -1.825079993E-03
  6.722346800E+01 -6.682749976E-03
  2.337217700E+01 -2.095119992E-02
  8.721373000E+00 -5.200308981E-02
  3.468091000E+00 -9.849176964E-02
  1.452144000E+00 -1.355800695E-01
  6.086150000E-01 -6.429875976E-02
  2.576860000E-01  3.125414989E-01
  1.041760000E-01  6.270468577E-01
  4.242700000E-02  2.110231492E-01
  1.484900000E-02 -4.104669985E-03
   p   9
  3.371018400E+01  1.069960000E-03
  8.057649500E+00  6.828550001E-03
  2.836471400E+00  2.119065000E-02
  1.099965700E+00  5.843696001E-02
  4.433964000E-01  2.020920800E-01
  1.822264000E-01  4.582953101E-01
  7.572410000E-02  3.691239601E-01
  3.168540000E-02  6.611471001E-02
  1.108990000E-02  1.405160000E-03
 
   2
   s  14
  2.262859900E+04  8.443999941E-05
  3.372318100E+03  4.601499968E-04
  7.603504000E+02  2.285389984E-03
  2.117404800E+02  9.648129932E-03
  6.722346800E+01  3.494469975E-02
  2.337217700E+01  1.061099893E-01
  8.721373000E+00  2.458240383E-01
  3.468091000E+00  3.862428773E-01
  1.452144000E+00  3.105526078E-01
  6.086150000E-01  6.415933955E-02
  2.576860000E-01 -2.265049984E-03
  1.041760000E-01 -5.217499963E-04
  4.242700000E-02 -8.757499938E-04
  1.484900000E-02  1.242199991E-04
   s  14
  2.262859900E+04 -1.586999994E-05
  3.372318100E+03 -8.656999968E-05
  7.603504000E+02 -4.302199984E-04
  2.117404800E+02 -1.825079993E-03
  6.722346800E+01 -6.682749976E-03
  2.337217700E+01 -2.095119992E-02
  8.721373000E+00 -5.200308981E-02
  3.468091000E+00 -9.849176964E-02
  1.452144000E+00 -1.355800695E-01
  6.086150000E-01 -6.429875976E-02
  2.576860000E-01  3.125414989E-01
  1.041760000E-01  6.270468577E-01
  4.242700000E-02  2.110231492E-01
  1.484900000E-02 -4.104669985E-03
   p   9
  3.371018400E+01  1.069960000E-03
  8.057649500E+00  6.828550001E-03
  2.836471400E+00  2.119065000E-02
  1.099965700E+00  5.843696001E-02
  4.433964000E-01  2.020920800E-01
  1.822264000E-01  4.582953101E-01
  7.572410000E-02  3.691239601E-01
  3.168540000E-02  6.611471001E-02
  1.108990000E-02  1.405160000E-03
 
[MO]
Sym=     1a  
Ene=    -4.7148
Spin= Alpha
Occup=    2.00000
   1         0.70705083
   2         0.00177855
   3        -0.00000000
   4         0.00000000
   5         0.00043458
   6         0.70705109
   7         0.00177855
   8         0.00000000
   9        -0.00000000
  10        -0.00043458
Sym=     2a  
Ene=    -4.7147
Spin= Alpha
Occup=    2.00000
   1        -0.70708950
   2         0.00156858
   3         0.00000000
   4        -0.00000000
   5        -0.00130369
   6         0.70708924
   7        -0.00156858
   8         0.00000000
   9        -0.00000000
  10        -0.00130369
Sym=     3a  
Ene=    -0.3974
Spin= Alpha
Occup=    2.00000
   1        -0.03317330
   2         0.54935193
   3        -0.00000000
   4        -0.00000000
   5         0.12412391
   6        -0.03317330
   7         0.54935194
   8         0.00000000
   9         0.00000000
  10        -0.12412391
Sym=     4a  
Ene=    -0.2224
Spin= Alpha
Occup=    1.93312
   1        -0.01975999
   2        -0.77611763
   3        -0.00000000
   4         0.00000000
   5         0.17032319
   6         0.01976000
   7         0.77611763
   8        -0.00000000
   9         0.00000000
  10         0.17032319
Sym=     5a  
Ene=     0.0000
Spin= Alpha
Occup=    0.06688
   1        -0.00000000
   2        -0.00000000
   3         0.59888547
   4         0.17475755
   5        -0.00000000
   6         0.00000000
   7         0.00000000
   8         0.59888546
   9         0.17475754
  10        -0.00000000
Sym=     6a  
Ene=     0.0479
Spin= Alpha
Occup=    0.00000
   1         0.03588444
   2         0.31444514
   3         0.00000000
   4        -0.00000000
   5        -0.64343646
   6         0.03588444
   7         0.31444514
   8         0.00000000
   9        -0.00000000
  10         0.64343646
Sym=     7a  
Ene=     0.0499
Spin= Alpha
Occup=    0.00000
   1         0.00000000
   2         0.00000000
   3        -0.17475755
   4         0.59888547
   5        -0.00000000
   6         0.00000000
   7         0.00000000
   8        -0.17475755
   9         0.59888547
  10         0.00000000
Sym=     8a  
Ene=     0.1674
Spin= Alpha
Occup=    0.00000
   1         0.00000000
   2        -0.00000000
   3        -0.80257923
   4        -0.23419633
   5         0.00000000
   6         0.00000000
   7        -0.00000000
   8         0.80257924
   9         0.23419633
  10        -0.00000000
Sym=     9a  
Ene=     0.1687
Spin= Alpha
Occup=    0.00000
   1         0.00000000
   2        -0.00000000
   3         0.23419633
   4        -0.80257923
   5         0.00000000
   6         0.00000000
   7        -0.00000000
   8        -0.23419633
   9         0.80257923
  10         0.00000000
Sym=    10a  
Ene=     0.3699
Spin= Alpha
Occup=    0.00000
   1        -0.12454388
   2        -0.97869345
   3        -0.00000000
   4        -0.00000000
   5        -1.15678781
   6         0.12454388
   7         0.97869345
   8        -0.00000000
   9         0.00000000
  10        -1.15678781
