[Molden Format]
[N_Atoms]
                     2
[Atoms] (AU)
O1          1      8           0.00000000      0.00000000      0.00000000
O2          2      8           0.00000000      0.00000000      4.15739747
[Charge] (Mulliken)
  3.041395757463761E-008
 -3.041399487813123E-008
[GTO] (AU)
   1
   s  14
  1.053749500E+05  1.238600013E-04
  1.567924000E+04  5.120100053E-04
  3.534544700E+03  2.152910022E-03
  9.873651600E+02  8.528440089E-03
  3.159787500E+02  3.018049031E-02
  1.116542800E+02  9.099702095E-02
  4.269945100E+01  2.177936423E-01
  1.739559600E+01  3.686245738E-01
  7.438309000E+00  3.366707335E-01
  3.222862000E+00  9.657630101E-02
  1.253877000E+00  2.144520022E-03
  4.951550000E-01  1.194350012E-03
  1.916650000E-01  5.390200056E-04
  6.708300000E-02  2.103400022E-04
   s  14
  1.053749500E+05 -2.815000008E-05
  1.567924000E+04 -1.163000003E-04
  3.534544700E+03 -4.909200013E-04
  9.873651600E+02 -1.946160005E-03
  3.159787500E+02 -7.005300019E-03
  1.116542800E+02 -2.167814006E-02
  4.269945100E+01 -5.641213015E-02
  1.739559600E+01 -1.127053003E-01
  7.438309000E+00 -1.589119704E-01
  3.222862000E+00 -3.355083009E-02
  1.253877000E+00  3.531902810E-01
  4.951550000E-01  5.534199315E-01
  1.916650000E-01  2.301839106E-01
  6.708300000E-02  1.127267003E-02
   p   9
  2.000000000E+02  9.173000030E-04
  4.653336700E+01  7.377140024E-03
  1.462180900E+01  3.483515011E-02
  5.313064000E+00  1.144397004E-01
  2.102525000E+00  2.554966408E-01
  8.502230000E-01  3.722557412E-01
  3.375970000E-01  3.323314911E-01
  1.288920000E-01  1.400847905E-01
  4.511200000E-02  2.395784008E-02
 
   2
   s  14
  1.053749500E+05  1.238600013E-04
  1.567924000E+04  5.120100053E-04
  3.534544700E+03  2.152910022E-03
  9.873651600E+02  8.528440089E-03
  3.159787500E+02  3.018049031E-02
  1.116542800E+02  9.099702095E-02
  4.269945100E+01  2.177936423E-01
  1.739559600E+01  3.686245738E-01
  7.438309000E+00  3.366707335E-01
  3.222862000E+00  9.657630101E-02
  1.253877000E+00  2.144520022E-03
  4.951550000E-01  1.194350012E-03
  1.916650000E-01  5.390200056E-04
  6.708300000E-02  2.103400022E-04
   s  14
  1.053749500E+05 -2.815000008E-05
  1.567924000E+04 -1.163000003E-04
  3.534544700E+03 -4.909200013E-04
  9.873651600E+02 -1.946160005E-03
  3.159787500E+02 -7.005300019E-03
  1.116542800E+02 -2.167814006E-02
  4.269945100E+01 -5.641213015E-02
  1.739559600E+01 -1.127053003E-01
  7.438309000E+00 -1.589119704E-01
  3.222862000E+00 -3.355083009E-02
  1.253877000E+00  3.531902810E-01
  4.951550000E-01  5.534199315E-01
  1.916650000E-01  2.301839106E-01
  6.708300000E-02  1.127267003E-02
   p   9
  2.000000000E+02  9.173000030E-04
  4.653336700E+01  7.377140024E-03
  1.462180900E+01  3.483515011E-02
  5.313064000E+00  1.144397004E-01
  2.102525000E+00  2.554966408E-01
  8.502230000E-01  3.722557412E-01
  3.375970000E-01  3.323314911E-01
  1.288920000E-01  1.400847905E-01
  4.511200000E-02  2.395784008E-02
 
[MO]
Sym=     1a  
Ene=   -20.7910
Spin= Alpha
Occup=    2.00000
   1         0.70723137
   2        -0.00037749
   3        -0.00000000
   4        -0.00000000
   5         0.00018325
   6         0.70696982
   7        -0.00037739
   8        -0.00000000
   9         0.00000000
  10        -0.00018317
Sym=     2a  
Ene=   -20.7910
Spin= Alpha
Occup=    2.00000
   1        -0.70698240
   2         0.00027793
   3        -0.00000000
   4        -0.00000000
   5        -0.00022076
   6         0.70724394
   7        -0.00027807
   8         0.00000000
   9         0.00000000
  10        -0.00022083
Sym=     3a  
Ene=    -1.3269
Spin= Alpha
Occup=    2.00000
   1         0.00097888
   2        -0.68934384
   3        -0.00000000
   4         0.00000000
   5        -0.02434586
   6         0.00097888
   7        -0.68934349
   8         0.00000000
   9        -0.00000000
  10         0.02434587
Sym=     4a  
Ene=    -1.2707
Spin= Alpha
Occup=    2.00000
   1        -0.00130431
   2        -0.71956261
   3        -0.00000000
   4         0.00000000
   5         0.02970833
   6         0.00130431
   7         0.71956295
   8        -0.00000000
   9        -0.00000000
  10         0.02970831
Sym=     5a  
Ene=    -0.5404
Spin= Alpha
Occup=    2.00000
   1         0.00000000
   2        -0.00000000
   3         0.67532944
   4         0.15073712
   5         0.00000000
   6         0.00000000
   7        -0.00000000
   8         0.67532945
   9         0.15073713
  10         0.00000000
Sym=     6a  
Ene=    -0.5404
Spin= Alpha
Occup=    2.00000
   1        -0.00000000
   2        -0.00000000
   3         0.15073712
   4        -0.67532944
   5         0.00000000
   6        -0.00000000
   7        -0.00000000
   8         0.15073713
   9        -0.67532945
  10        -0.00000000
Sym=     7a  
Ene=    -0.5001
Spin= Alpha
Occup=    2.00000
   1         0.00487693
   2         0.08795714
   3         0.00000000
   4        -0.00000000
   5        -0.67091184
   6         0.00487693
   7         0.08795715
   8        -0.00000000
   9        -0.00000000
  10         0.67091184
Sym=     8a  
Ene=    -0.3943
Spin= Alpha
Occup=    1.00000
   1         0.00000000
   2         0.00000000
   3        -0.15960649
   4         0.70547871
   5        -0.00000000
   6         0.00000000
   7         0.00000000
   8         0.15960649
   9        -0.70547870
  10        -0.00000000
Sym=     9a  
Ene=    -0.0000
Spin= Alpha
Occup=    1.00000
   1        -0.00000000
   2        -0.00000000
   3         0.70547871
   4         0.15960649
   5         0.00000000
   6         0.00000000
   7        -0.00000000
   8        -0.70547870
   9        -0.15960649
  10        -0.00000000
Sym=    10a  
Ene=    -0.1145
Spin= Alpha
Occup=    0.00000
   1         0.00542172
   2         0.10581102
   3        -0.00000000
   4         0.00000000
   5         0.75691664
   6        -0.00542172
   7        -0.10581102
   8        -0.00000000
   9        -0.00000000
  10         0.75691664
