[Molden Format]
[N_Atoms]
                     2
[Atoms] (AU)
O1          1      8           0.00000000      0.00000000      0.00000000
O2          2      8           0.00000000      0.00000000      4.15739747
[Charge] (Mulliken)
   1.00057908691386     
  0.999420913086126     
[GTO] (AU)
   1
   s  14
  1.053749500E+05  1.238600013E-04
  1.567924000E+04  5.120100053E-04
  3.534544700E+03  2.152910022E-03
  9.873651600E+02  8.528440089E-03
  3.159787500E+02  3.018049031E-02
  1.116542800E+02  9.099702095E-02
  4.269945100E+01  2.177936423E-01
  1.739559600E+01  3.686245738E-01
  7.438309000E+00  3.366707335E-01
  3.222862000E+00  9.657630101E-02
  1.253877000E+00  2.144520022E-03
  4.951550000E-01  1.194350012E-03
  1.916650000E-01  5.390200056E-04
  6.708300000E-02  2.103400022E-04
   s  14
  1.053749500E+05 -2.815000008E-05
  1.567924000E+04 -1.163000003E-04
  3.534544700E+03 -4.909200013E-04
  9.873651600E+02 -1.946160005E-03
  3.159787500E+02 -7.005300019E-03
  1.116542800E+02 -2.167814006E-02
  4.269945100E+01 -5.641213015E-02
  1.739559600E+01 -1.127053003E-01
  7.438309000E+00 -1.589119704E-01
  3.222862000E+00 -3.355083009E-02
  1.253877000E+00  3.531902810E-01
  4.951550000E-01  5.534199315E-01
  1.916650000E-01  2.301839106E-01
  6.708300000E-02  1.127267003E-02
   p   9
  2.000000000E+02  9.173000030E-04
  4.653336700E+01  7.377140024E-03
  1.462180900E+01  3.483515011E-02
  5.313064000E+00  1.144397004E-01
  2.102525000E+00  2.554966408E-01
  8.502230000E-01  3.722557412E-01
  3.375970000E-01  3.323314911E-01
  1.288920000E-01  1.400847905E-01
  4.511200000E-02  2.395784008E-02
 
   2
   s  14
  1.053749500E+05  1.238600013E-04
  1.567924000E+04  5.120100053E-04
  3.534544700E+03  2.152910022E-03
  9.873651600E+02  8.528440089E-03
  3.159787500E+02  3.018049031E-02
  1.116542800E+02  9.099702095E-02
  4.269945100E+01  2.177936423E-01
  1.739559600E+01  3.686245738E-01
  7.438309000E+00  3.366707335E-01
  3.222862000E+00  9.657630101E-02
  1.253877000E+00  2.144520022E-03
  4.951550000E-01  1.194350012E-03
  1.916650000E-01  5.390200056E-04
  6.708300000E-02  2.103400022E-04
   s  14
  1.053749500E+05 -2.815000008E-05
  1.567924000E+04 -1.163000003E-04
  3.534544700E+03 -4.909200013E-04
  9.873651600E+02 -1.946160005E-03
  3.159787500E+02 -7.005300019E-03
  1.116542800E+02 -2.167814006E-02
  4.269945100E+01 -5.641213015E-02
  1.739559600E+01 -1.127053003E-01
  7.438309000E+00 -1.589119704E-01
  3.222862000E+00 -3.355083009E-02
  1.253877000E+00  3.531902810E-01
  4.951550000E-01  5.534199315E-01
  1.916650000E-01  2.301839106E-01
  6.708300000E-02  1.127267003E-02
   p   9
  2.000000000E+02  9.173000030E-04
  4.653336700E+01  7.377140024E-03
  1.462180900E+01  3.483515011E-02
  5.313064000E+00  1.144397004E-01
  2.102525000E+00  2.554966408E-01
  8.502230000E-01  3.722557412E-01
  3.375970000E-01  3.323314911E-01
  1.288920000E-01  1.400847905E-01
  4.511200000E-02  2.395784008E-02
 
[MO]
Sym=     1a  
Ene=   -22.0700
Spin= Alpha
Occup=    2.00000
   1         0.02253114
   2        -0.00035756
   3         0.00000000
   4         0.00000000
   5         0.00008602
   6         0.99974365
   7        -0.00202877
   8         0.00000000
   9         0.00000000
  10        -0.00026862
Sym=     2a  
Ene=   -22.0680
Spin= Alpha
Occup=    2.00000
   1        -0.99961978
   2         0.01532923
   3        -0.00000000
   4        -0.00000000
   5        -0.00108257
   6         0.02252983
   7        -0.00045558
   8        -0.00000000
   9        -0.00000000
  10         0.00118589
Sym=     3a  
Ene=    -2.2117
Spin= Alpha
Occup=    2.00000
   1         0.00191135
   2         0.00167444
   3        -0.00000001
   4        -0.00000001
   5        -0.02630257
   6        -0.00182985
   7        -0.99593174
   8         0.00000001
   9         0.00000001
  10         0.04660061
Sym=     4a  
Ene=    -1.5348
Spin= Alpha
Occup=    2.00000
   1         0.00000000
   2        -0.00000000
   3         0.84573308
   4        -0.53366340
   5        -0.00000000
   6         0.00000000
   7         0.00000000
   8        -0.00058715
   9         0.00037115
  10         0.00000000
Sym=     5a  
Ene=    -1.5346
Spin= Alpha
Occup=    2.00000
   1         0.00000001
   2         0.00000001
   3        -0.00056669
   4        -0.00089705
   5        -0.00000017
   6         0.00000000
   7         0.00000007
   8         0.53367191
   9         0.84574652
  10         0.00000084
Sym=     6a  
Ene=    -1.4310
Spin= Alpha
Occup=    2.00000
   1         0.00447310
   2        -0.05500791
   3        -0.00000013
   4        -0.00000020
   5        -0.66733993
   6         0.00522209
   7         0.12190771
   8        -0.00000040
   9        -0.00000063
  10         0.66413626
Sym=     7a  
Ene=    -2.1845
Spin= Alpha
Occup=    1.97456
   1        -0.01599833
   2        -1.00231224
   3         0.00000002
   4         0.00000003
   5         0.06794405
   6         0.00118132
   7         0.03356301
   8         0.00000001
   9         0.00000002
  10        -0.08925860
Sym=     8a  
Ene=    -0.0000
Spin= Alpha
Occup=    0.02544
   1         0.00000000
   2         0.00000000
   3        -0.53417112
   4        -0.84653769
   5         0.00000044
   6        -0.00000000
   7        -0.00000004
   8         0.02309587
   9         0.03660162
  10         0.00000011
Sym=     9a  
Ene=    -1.0668
Spin= Alpha
Occup=    0.00000
   1         0.00540319
   2         0.06327973
   3         0.00000020
   4         0.00000031
   5         0.75754136
   6        -0.00540240
   7        -0.06344783
   8        -0.00000025
   9        -0.00000039
  10         0.75716822
Sym=    10a  
Ene=    -0.9327
Spin= Alpha
Occup=    0.00000
   1         0.00000000
   2         0.00000000
   3        -0.03691122
   4         0.02329123
   5         0.00000000
   6         0.00000000
   7         0.00000000
   8         0.84653795
   9        -0.53417131
  10         0.00000000
