[Molden Format]
[N_Atoms]
                     2
[Atoms] (AU)
O1          1      8           0.00000000      0.00000000      0.00000000
O2          2      8           0.00000000      0.00000000      4.15739747
[Charge] (Mulliken)
 -7.139888680285367E-011
  7.139355773233547E-011
[GTO] (AU)
   1
   s  14
  1.053749500E+05  1.238600013E-04
  1.567924000E+04  5.120100053E-04
  3.534544700E+03  2.152910022E-03
  9.873651600E+02  8.528440089E-03
  3.159787500E+02  3.018049031E-02
  1.116542800E+02  9.099702095E-02
  4.269945100E+01  2.177936423E-01
  1.739559600E+01  3.686245738E-01
  7.438309000E+00  3.366707335E-01
  3.222862000E+00  9.657630101E-02
  1.253877000E+00  2.144520022E-03
  4.951550000E-01  1.194350012E-03
  1.916650000E-01  5.390200056E-04
  6.708300000E-02  2.103400022E-04
   s  14
  1.053749500E+05 -2.815000008E-05
  1.567924000E+04 -1.163000003E-04
  3.534544700E+03 -4.909200013E-04
  9.873651600E+02 -1.946160005E-03
  3.159787500E+02 -7.005300019E-03
  1.116542800E+02 -2.167814006E-02
  4.269945100E+01 -5.641213015E-02
  1.739559600E+01 -1.127053003E-01
  7.438309000E+00 -1.589119704E-01
  3.222862000E+00 -3.355083009E-02
  1.253877000E+00  3.531902810E-01
  4.951550000E-01  5.534199315E-01
  1.916650000E-01  2.301839106E-01
  6.708300000E-02  1.127267003E-02
   p   9
  2.000000000E+02  9.173000030E-04
  4.653336700E+01  7.377140024E-03
  1.462180900E+01  3.483515011E-02
  5.313064000E+00  1.144397004E-01
  2.102525000E+00  2.554966408E-01
  8.502230000E-01  3.722557412E-01
  3.375970000E-01  3.323314911E-01
  1.288920000E-01  1.400847905E-01
  4.511200000E-02  2.395784008E-02
 
   2
   s  14
  1.053749500E+05  1.238600013E-04
  1.567924000E+04  5.120100053E-04
  3.534544700E+03  2.152910022E-03
  9.873651600E+02  8.528440089E-03
  3.159787500E+02  3.018049031E-02
  1.116542800E+02  9.099702095E-02
  4.269945100E+01  2.177936423E-01
  1.739559600E+01  3.686245738E-01
  7.438309000E+00  3.366707335E-01
  3.222862000E+00  9.657630101E-02
  1.253877000E+00  2.144520022E-03
  4.951550000E-01  1.194350012E-03
  1.916650000E-01  5.390200056E-04
  6.708300000E-02  2.103400022E-04
   s  14
  1.053749500E+05 -2.815000008E-05
  1.567924000E+04 -1.163000003E-04
  3.534544700E+03 -4.909200013E-04
  9.873651600E+02 -1.946160005E-03
  3.159787500E+02 -7.005300019E-03
  1.116542800E+02 -2.167814006E-02
  4.269945100E+01 -5.641213015E-02
  1.739559600E+01 -1.127053003E-01
  7.438309000E+00 -1.589119704E-01
  3.222862000E+00 -3.355083009E-02
  1.253877000E+00  3.531902810E-01
  4.951550000E-01  5.534199315E-01
  1.916650000E-01  2.301839106E-01
  6.708300000E-02  1.127267003E-02
   p   9
  2.000000000E+02  9.173000030E-04
  4.653336700E+01  7.377140024E-03
  1.462180900E+01  3.483515011E-02
  5.313064000E+00  1.144397004E-01
  2.102525000E+00  2.554966408E-01
  8.502230000E-01  3.722557412E-01
  3.375970000E-01  3.323314911E-01
  1.288920000E-01  1.400847905E-01
  4.511200000E-02  2.395784008E-02
 
[MO]
Sym=     1a  
Ene=   -20.7910
Spin= Alpha
Occup=    1.00000
   1         0.70710066
   2        -0.00037744
   3        -0.00000000
   4         0.00000000
   5         0.00018320
   6         0.70710056
   7        -0.00037744
   8         0.00000000
   9        -0.00000000
  10        -0.00018320
Sym=     1a  
Ene=   -20.7910
Spin= Beta
Occup=    1.00000
   1         0.70710066
   2        -0.00037744
   3        -0.00000000
   4         0.00000000
   5         0.00018320
   6         0.70710056
   7        -0.00037744
   8         0.00000000
   9        -0.00000000
  10        -0.00018320
Sym=     2a  
Ene=   -20.7910
Spin= Alpha
Occup=    1.00000
   1        -0.70711313
   2         0.00027800
   3        -0.00000000
   4         0.00000000
   5        -0.00022080
   6         0.70711323
   7        -0.00027800
   8        -0.00000000
   9        -0.00000000
  10        -0.00022080
Sym=     2a  
Ene=   -20.7910
Spin= Beta
Occup=    1.00000
   1        -0.70711313
   2         0.00027800
   3        -0.00000000
   4         0.00000000
   5        -0.00022080
   6         0.70711323
   7        -0.00027800
   8        -0.00000000
   9        -0.00000000
  10        -0.00022080
Sym=     3a  
Ene=    -1.3269
Spin= Alpha
Occup=    1.00000
   1        -0.00097888
   2         0.68934367
   3         0.00000000
   4         0.00000000
   5         0.02434586
   6        -0.00097888
   7         0.68934367
   8         0.00000000
   9        -0.00000000
  10        -0.02434586
Sym=     3a  
Ene=    -1.3269
Spin= Beta
Occup=    1.00000
   1        -0.00097888
   2         0.68934367
   3         0.00000000
   4         0.00000000
   5         0.02434586
   6        -0.00097888
   7         0.68934367
   8         0.00000000
   9        -0.00000000
  10        -0.02434586
Sym=     4a  
Ene=    -1.2707
Spin= Alpha
Occup=    1.00000
   1        -0.00130431
   2        -0.71956278
   3        -0.00000000
   4         0.00000000
   5         0.02970831
   6         0.00130431
   7         0.71956278
   8        -0.00000000
   9        -0.00000000
  10         0.02970831
Sym=     4a  
Ene=    -1.2707
Spin= Beta
Occup=    1.00000
   1        -0.00130431
   2        -0.71956278
   3        -0.00000000
   4         0.00000000
   5         0.02970831
   6         0.00130431
   7         0.71956278
   8        -0.00000000
   9        -0.00000000
  10         0.02970831
Sym=     5a  
Ene=    -0.6329
Spin= Alpha
Occup=    1.00000
   1        -0.00000000
   2        -0.00000000
   3         0.39615337
   4         0.56732182
   5         0.00000000
   6        -0.00000000
   7        -0.00000000
   8         0.39615337
   9         0.56732182
  10        -0.00000000
Sym=     5a  
Ene=    -0.6329
Spin= Beta
Occup=    1.00000
   1        -0.00000000
   2        -0.00000000
   3         0.39615337
   4         0.56732182
   5         0.00000000
   6        -0.00000000
   7        -0.00000000
   8         0.39615337
   9         0.56732182
  10        -0.00000000
Sym=     6a  
Ene=    -0.6051
Spin= Alpha
Occup=    1.00000
   1        -0.00000000
   2         0.00000000
   3        -0.41410777
   4        -0.59303389
   5        -0.00000000
   6         0.00000000
   7         0.00000000
   8         0.41410777
   9         0.59303389
  10        -0.00000000
Sym=     6a  
Ene=    -0.6051
Spin= Beta
Occup=    1.00000
   1        -0.00000000
   2         0.00000000
   3        -0.41410777
   4        -0.59303389
   5        -0.00000000
   6         0.00000000
   7         0.00000000
   8         0.41410777
   9         0.59303389
  10        -0.00000000
Sym=     7a  
Ene=    -0.5001
Spin= Alpha
Occup=    1.00000
   1         0.00487693
   2         0.08795714
   3         0.00000000
   4        -0.00000000
   5        -0.67091184
   6         0.00487693
   7         0.08795714
   8        -0.00000000
   9         0.00000000
  10         0.67091184
Sym=     7a  
Ene=    -0.5001
Spin= Beta
Occup=    1.00000
   1         0.00487693
   2         0.08795714
   3         0.00000000
   4        -0.00000000
   5        -0.67091184
   6         0.00487693
   7         0.08795714
   8        -0.00000000
   9         0.00000000
  10         0.67091184
Sym=     8a  
Ene=    -0.4480
Spin= Alpha
Occup=    1.00000
   1        -0.00000000
   2        -0.00000000
   3         0.56732182
   4        -0.39615337
   5        -0.00000000
   6         0.00000000
   7         0.00000000
   8         0.56732182
   9        -0.39615337
  10        -0.00000000
Sym=     8a  
Ene=    -0.4480
Spin= Beta
Occup=    1.00000
   1        -0.00000000
   2        -0.00000000
   3         0.56732182
   4        -0.39615337
   5        -0.00000000
   6         0.00000000
   7         0.00000000
   8         0.56732182
   9        -0.39615337
  10        -0.00000000
Sym=     9a  
Ene=    -0.1834
Spin= Alpha
Occup=    0.00000
   1         0.00000000
   2         0.00000000
   3        -0.59303389
   4         0.41410777
   5        -0.00000000
   6         0.00000000
   7         0.00000000
   8         0.59303389
   9        -0.41410777
  10         0.00000000
Sym=     9a  
Ene=    -0.1834
Spin= Beta
Occup=    0.00000
   1         0.00000000
   2         0.00000000
   3        -0.59303389
   4         0.41410777
   5        -0.00000000
   6         0.00000000
   7         0.00000000
   8         0.59303389
   9        -0.41410777
  10         0.00000000
Sym=    10a  
Ene=    -0.1145
Spin= Alpha
Occup=    0.00000
   1         0.00542172
   2         0.10581101
   3         0.00000000
   4        -0.00000000
   5         0.75691664
   6        -0.00542172
   7        -0.10581101
   8         0.00000000
   9        -0.00000000
  10         0.75691664
Sym=    10a  
Ene=    -0.1145
Spin= Beta
Occup=    0.00000
   1         0.00542172
   2         0.10581101
   3         0.00000000
   4        -0.00000000
   5         0.75691664
   6        -0.00542172
   7        -0.10581101
   8         0.00000000
   9        -0.00000000
  10         0.75691664
