[Molden Format]
[N_Atoms]
                     2
[Atoms] (AU)
C1          1      6           0.00000000      0.00000000      0.00000000
N2          2      7           0.00000000      0.00000000      3.96842486
[Charge] (Mulliken)
 -5.482222346385512E-002
  5.482222346378762E-002
[GTO] (AU)
   1
   s  14
  5.055750100E+04  1.128874000E-04
  7.524785600E+03  5.295373000E-04
  1.694327600E+03  2.450038300E-03
  4.728227900E+02  1.005398470E-02
  1.517107500E+02  3.545398060E-02
  5.391874600E+01  1.044071086E-01
  2.065931100E+01  2.412894918E-01
  8.383976000E+00  3.834225483E-01
  3.577015000E+00  3.078514393E-01
  1.547118000E+00  6.872442990E-02
  6.130130000E-01  2.224445000E-04
  2.460680000E-01  1.976748900E-03
  9.908700000E-02  2.057859400E-03
  3.468000000E-02  4.182020000E-04
   s  14
  5.055750100E+04 -2.507420000E-05
  7.524785600E+03 -1.175945000E-04
  1.694327600E+03 -5.456275000E-04
  4.728227900E+02 -2.245077100E-03
  1.517107500E+02 -8.043471800E-03
  5.391874600E+01 -2.442588710E-02
  2.065931100E+01 -6.136791180E-02
  8.383976000E+00 -1.177767835E-01
  3.577015000E+00 -1.550487783E-01
  1.547118000E+00 -1.933316860E-02
  6.130130000E-01  3.996930678E-01
  2.460680000E-01  5.589420949E-01
  9.908700000E-02  1.711195023E-01
  3.468000000E-02  7.456244600E-03
   p   9
  8.333315500E+01  1.344656000E-03
  1.955761100E+01  1.023555500E-02
  6.080365000E+00  4.520067100E-02
  2.179317000E+00  1.410756198E-01
  8.651500000E-01  3.047388085E-01
  3.619440000E-01  3.995281011E-01
  1.547400000E-01  2.719163432E-01
  6.542900000E-02  5.857669330E-02
  2.290000000E-02 -1.263813000E-04
 
   2
   s  14
  7.476171500E+04  1.182599996E-04
  1.112365400E+04  5.172899983E-04
  2.512685700E+03  2.266659992E-03
  7.037772900E+02  9.145289970E-03
  2.254787900E+02  3.239342989E-02
  7.961581000E+01  9.770792967E-02
  3.023728300E+01  2.317036792E-01
  1.226362200E+01  3.768898887E-01
  5.265086000E+00  3.177420689E-01
  2.333471000E+00  8.211308973E-02
  9.018560000E-01  3.312089989E-03
  3.583360000E-01  3.720819988E-03
  1.410930000E-01  3.165419989E-03
  4.938300000E-02  4.595799985E-04
   s  14
  7.476171500E+04 -2.707000010E-05
  1.112365400E+04 -1.183700004E-04
  2.512685700E+03 -5.203800020E-04
  7.037772900E+02 -2.102930008E-03
  2.254787900E+02 -7.568200028E-03
  7.961581000E+01 -2.346767009E-02
  3.023728300E+01 -6.042901023E-02
  1.226362200E+01 -1.170549104E-01
  5.265086000E+00 -1.555321506E-01
  2.333471000E+00 -2.468935009E-02
  9.018560000E-01  3.625054514E-01
  3.583360000E-01  5.550845021E-01
  1.410930000E-01  2.148376908E-01
  4.938300000E-02  8.983850034E-03
   p   9
  1.266665700E+02  1.233630000E-03
  2.983738900E+01  9.493409996E-03
  9.394038000E+00  4.293961998E-02
  3.405104000E+00  1.362925399E-01
  1.350000000E+00  2.921362499E-01
  5.576960000E-01  3.887887598E-01
  2.324490000E-01  2.946801399E-01
  9.426400000E-02  8.012875997E-02
  3.299200000E-02  5.405199998E-04
 
[MO]
Sym=     1a  
Ene=   -15.6050
Spin= Alpha
Occup=    1.00000
   1        -0.00004446
   2        -0.00040898
   3         0.00000000
   4         0.00000000
   5        -0.00026041
   6         0.99998299
   7        -0.00698455
   8        -0.00000000
   9        -0.00000000
  10        -0.00031695
Sym=     1a  
Ene=   -15.6420
Spin= Beta
Occup=    1.00000
   1        -0.00007398
   2        -0.00067832
   3         0.00000000
   4         0.00000000
   5        -0.00069245
   6         1.00000732
   7        -0.00440886
   8        -0.00000000
   9        -0.00000000
  10        -0.00050812
Sym=     2a  
Ene=   -11.2460
Spin= Alpha
Occup=    1.00000
   1         1.00001072
   2         0.00045655
   3         0.00000000
   4         0.00000000
   5         0.00013057
   6        -0.00008969
   7        -0.00065788
   8        -0.00000000
   9         0.00000000
  10         0.00044456
Sym=     2a  
Ene=   -11.1940
Spin= Beta
Occup=    1.00000
   1         0.99999204
   2        -0.00474698
   3         0.00000000
   4         0.00000000
   5         0.00034394
   6        -0.00004339
   7        -0.00030996
   8        -0.00000000
   9         0.00000000
  10         0.00010775
Sym=     3a  
Ene=    -0.9100
Spin= Alpha
Occup=    1.00000
   1        -0.00597627
   2         0.42339890
   3         0.00000000
   4         0.00000000
   5         0.03189040
   6         0.00243245
   7         0.84187698
   8        -0.00000000
   9        -0.00000000
  10        -0.05611911
Sym=     3a  
Ene=    -1.0475
Spin= Beta
Occup=    1.00000
   1         0.00568205
   2        -0.06386302
   3         0.00000000
   4         0.00000000
   5        -0.02227932
   6        -0.00371544
   7        -0.98482542
   8         0.00000000
   9         0.00000000
  10         0.02534351
Sym=     4a  
Ene=    -0.7816
Spin= Alpha
Occup=    1.00000
   1         0.00024154
   2         0.85988425
   3         0.00000000
   4         0.00000000
   5        -0.10218214
   6        -0.00800168
   7        -0.51568989
   8        -0.00000000
   9        -0.00000000
  10        -0.17344307
Sym=     4a  
Ene=    -0.5524
Spin= Beta
Occup=    1.00000
   1         0.00000000
   2         0.00000000
   3         0.02432479
   4         0.01008175
   5         0.00000000
   6        -0.00000000
   7        -0.00000000
   8         0.92156844
   9         0.38195706
  10        -0.00000000
Sym=     5a  
Ene=    -0.4823
Spin= Alpha
Occup=    1.00000
   1        -0.01333451
   2        -0.29143539
   3         0.00000000
   4         0.00000000
   5         0.26578372
   6        -0.00281896
   7        -0.02372100
   8        -0.00000000
   9        -0.00000000
  10        -0.91704102
Sym=     5a  
Ene=    -0.5524
Spin= Beta
Occup=    1.00000
   1        -0.00000000
   2        -0.00000000
   3        -0.01008175
   4         0.02432479
   5        -0.00000000
   6         0.00000000
   7         0.00000000
   8        -0.38195706
   9         0.92156844
  10         0.00000000
Sym=     6a  
Ene=    -0.4018
Spin= Alpha
Occup=    1.00000
   1         0.00000000
   2         0.00000000
   3         0.39769726
   4         0.90906205
   5         0.00000000
   6        -0.00000000
   7        -0.00000000
   8         0.02755331
   9         0.06298174
  10         0.00000000
Sym=     6a  
Ene=    -0.5353
Spin= Beta
Occup=    1.00000
   1         0.00370301
   2         0.95995118
   3        -0.00000000
   4        -0.00000000
   5         0.12764254
   6        -0.01006745
   7        -0.21745973
   8        -0.00000000
   9        -0.00000000
  10        -0.14799506
Sym=     7a  
Ene=    -0.4018
Spin= Alpha
Occup=    1.00000
   1        -0.00000000
   2        -0.00000000
   3        -0.90906205
   4         0.39769726
   5        -0.00000000
   6         0.00000000
   7         0.00000000
   8        -0.06298174
   9         0.02755331
  10        -0.00000000
Sym=     7a  
Ene=     0.0747
Spin= Beta
Occup=    0.00000
   1         0.01199034
   2         0.33071357
   3         0.00000000
   4         0.00000000
   5        -0.51563462
   6         0.00703758
   7         0.08016561
   8         0.00000000
   9         0.00000000
  10         0.74962493
Sym=     8a  
Ene=     0.1734
Spin= Alpha
Occup=    0.00000
   1         0.00842215
   2         0.21670780
   3        -0.00000000
   4        -0.00000000
   5         1.00208376
   6        -0.02056036
   7        -0.29171293
   8         0.00000000
   9         0.00000000
  10         0.44953045
Sym=     8a  
Ene=     0.2488
Spin= Beta
Occup=    0.00000
   1        -0.00000000
   2        -0.00000000
   3         0.02223392
   4         1.00250783
   5         0.00000000
   6        -0.00000000
   7         0.00000000
   8        -0.00232868
   9        -0.10499818
  10        -0.00000000
Sym=     9a  
Ene=     0.1841
Spin= Alpha
Occup=    0.00000
   1        -0.00000000
   2        -0.00000000
   3        -0.00127758
   4        -0.14714303
   5        -0.00000000
   6         0.00000000
   7         0.00000000
   8         0.00868872
   9         1.00070388
  10        -0.00000000
Sym=     9a  
Ene=     0.2488
Spin= Beta
Occup=    0.00000
   1        -0.00000000
   2         0.00000000
   3         1.00250783
   4        -0.02223392
   5         0.00000000
   6        -0.00000000
   7        -0.00000000
   8        -0.10499818
   9         0.00232868
  10        -0.00000000
Sym=    10a  
Ene=     0.1841
Spin= Alpha
Occup=    0.00000
   1         0.00000000
   2         0.00000000
   3         0.14714303
   4        -0.00127758
   5         0.00000000
   6        -0.00000000
   7        -0.00000000
   8        -1.00070388
   9         0.00868872
  10         0.00000000
Sym=    10a  
Ene=     0.3148
Spin= Beta
Occup=    0.00000
   1         0.01149381
   2         0.12484221
   3         0.00000000
   4        -0.00000000
   5         0.89643877
   6        -0.01694940
   7        -0.19179506
   8         0.00000000
   9         0.00000000
  10         0.70127839
