[Molden Format]
[N_Atoms]
                     2
[Atoms] (AU)
F1          1      9           0.00000000      0.00000000      0.00000000
N2          2      7           0.00000000      0.00000000      3.40150702
[Charge] (Mulliken)
  0.597592335609265     
   1.40240766439071     
[GTO] (AU)
   1
   s  14
  1.031094600E+05  1.713099991E-04
  1.528100700E+04  7.123999962E-04
  3.441539200E+03  2.990479984E-03
  9.670948300E+02  1.164036994E-02
  3.140353400E+02  3.968642979E-02
  1.134423000E+02  1.128546094E-01
  4.464472700E+01  2.473650687E-01
  1.894287400E+01  3.672702681E-01
  8.532743000E+00  2.896286985E-01
  3.919401000E+00  7.786681959E-02
  1.568157000E+00  4.562139976E-03
  6.232900000E-01  2.468879987E-03
  2.408610000E-01  1.106309994E-03
  8.430100000E-02  1.739699991E-04
   s  14
  1.031094600E+05 -4.044999995E-05
  1.528100700E+04 -1.682299998E-04
  3.441539200E+03 -7.084299991E-04
  9.670948300E+02 -2.767999996E-03
  3.140353400E+02 -9.611379987E-03
  1.134423000E+02 -2.833957996E-02
  4.464472700E+01 -6.839343991E-02
  1.894287400E+01 -1.237379298E-01
  8.532743000E+00 -1.512859698E-01
  3.919401000E+00 -9.099909988E-03
  1.568157000E+00  3.716257695E-01
  6.232900000E-01  5.500214393E-01
  2.408610000E-01  2.092318697E-01
  8.430100000E-02  8.074639989E-03
   p   9
  2.453302900E+02  1.024860004E-03
  5.691900500E+01  8.344290032E-03
  1.760456800E+01  4.078927016E-02
  6.274995000E+00  1.351370605E-01
  2.447030000E+00  2.798830811E-01
  9.950600000E-01  3.597966414E-01
  4.039730000E-01  3.055347412E-01
  1.548100000E-01  1.354703905E-01
  5.418400000E-02  2.804449011E-02
 
   2
   s  14
  7.476171500E+04  1.182599996E-04
  1.112365400E+04  5.172899983E-04
  2.512685700E+03  2.266659992E-03
  7.037772900E+02  9.145289970E-03
  2.254787900E+02  3.239342989E-02
  7.961581000E+01  9.770792967E-02
  3.023728300E+01  2.317036792E-01
  1.226362200E+01  3.768898887E-01
  5.265086000E+00  3.177420689E-01
  2.333471000E+00  8.211308973E-02
  9.018560000E-01  3.312089989E-03
  3.583360000E-01  3.720819988E-03
  1.410930000E-01  3.165419989E-03
  4.938300000E-02  4.595799985E-04
   s  14
  7.476171500E+04 -2.707000010E-05
  1.112365400E+04 -1.183700004E-04
  2.512685700E+03 -5.203800020E-04
  7.037772900E+02 -2.102930008E-03
  2.254787900E+02 -7.568200028E-03
  7.961581000E+01 -2.346767009E-02
  3.023728300E+01 -6.042901023E-02
  1.226362200E+01 -1.170549104E-01
  5.265086000E+00 -1.555321506E-01
  2.333471000E+00 -2.468935009E-02
  9.018560000E-01  3.625054514E-01
  3.583360000E-01  5.550845021E-01
  1.410930000E-01  2.148376908E-01
  4.938300000E-02  8.983850034E-03
   p   9
  1.266665700E+02  1.233630000E-03
  2.983738900E+01  9.493409996E-03
  9.394038000E+00  4.293961998E-02
  3.405104000E+00  1.362925399E-01
  1.350000000E+00  2.921362499E-01
  5.576960000E-01  3.887887598E-01
  2.324490000E-01  2.946801399E-01
  9.426400000E-02  8.012875997E-02
  3.299200000E-02  5.405199998E-04
 
[MO]
Sym=     1a  
Ene=   -27.6140
Spin= Alpha
Occup=    2.00000
   1         0.99999038
   2        -0.00439817
   3        -0.00000000
   4         0.00000000
   5         0.00027985
   6        -0.00000407
   7        -0.00003217
   8         0.00000000
   9        -0.00000000
  10        -0.00000744
Sym=     2a  
Ene=   -17.0980
Spin= Alpha
Occup=    2.00000
   1        -0.00000251
   2         0.00055486
   3         0.00000000
   4        -0.00000000
   5         0.00038873
   6         0.99978728
   7        -0.02009770
   8         0.00000000
   9        -0.00000000
  10        -0.00266054
Sym=     3a  
Ene=    -2.4988
Spin= Alpha
Occup=    2.00000
   1        -0.00357331
   2        -0.98774609
   3        -0.00000000
   4        -0.00000000
   5        -0.05533385
   6         0.00433235
   7        -0.00560207
   8        -0.00000000
   9        -0.00000000
  10         0.05054210
Sym=     4a  
Ene=    -1.6049
Spin= Alpha
Occup=    2.00000
   1        -0.00000000
   2        -0.00000000
   3        -0.33009866
   4         0.94122825
   5         0.00000000
   6        -0.00000000
   7         0.00000000
   8        -0.00915915
   9         0.02611599
  10        -0.00000000
Sym=     5a  
Ene=    -1.6047
Spin= Alpha
Occup=    2.00000
   1        -0.00000000
   2        -0.00000000
   3         0.94096803
   4         0.33000740
   5         0.00000000
   6        -0.00000000
   7         0.00000000
   8         0.02853153
   9         0.01000631
  10        -0.00000000
Sym=     6a  
Ene=    -1.5425
Spin= Alpha
Occup=    2.00000
   1         0.01418057
   2         0.23154314
   3         0.00000000
   4         0.00000000
   5        -0.37482643
   6         0.00419619
   7        -0.13223310
   8         0.00000000
   9         0.00000000
  10         0.85491819
Sym=     7a  
Ene=    -1.9184
Spin= Alpha
Occup=    1.96058
   1        -0.00394515
   2        -0.07233705
   3        -0.00000000
   4        -0.00000000
   5        -0.03664386
   6         0.02107025
   7         0.99083729
   8        -0.00000000
   9         0.00000000
  10         0.17835852
Sym=     8a  
Ene=    -0.0000
Spin= Alpha
Occup=    0.03942
   1        -0.00000000
   2        -0.00000000
   3         0.03532808
   4        -0.10073287
   5         0.00000000
   6        -0.00000000
   7        -0.00000000
   8        -0.33185736
   9         0.94624293
  10        -0.00000000
Sym=     9a  
Ene=    -0.9449
Spin= Alpha
Occup=    0.00000
   1         0.00000000
   2        -0.00000000
   3        -0.10313536
   4        -0.03617066
   5         0.00000000
   6        -0.00000000
   7        -0.00000000
   8         0.94617318
   9         0.33183290
  10         0.00000000
Sym=    10a  
Ene=    -0.9253
Spin= Alpha
Occup=    0.00000
   1         0.00925757
   2         0.08450100
   3        -0.00000000
   4        -0.00000000
   5         0.96043715
   6        -0.01644635
   7        -0.21159851
   8        -0.00000000
   9        -0.00000000
  10         0.54703303
