[Molden Format]
[N_Atoms]
                     2
[Atoms] (AU)
BE1         1      4           0.00000000      0.00000000      0.00000000
C2          2      6           0.00000000      0.00000000      3.59047964
[Charge] (Mulliken)
   1.65776015725031     
  0.342239842749676     
[GTO] (AU)
   1
   s  14
  2.262859900E+04  8.443999941E-05
  3.372318100E+03  4.601499968E-04
  7.603504000E+02  2.285389984E-03
  2.117404800E+02  9.648129932E-03
  6.722346800E+01  3.494469975E-02
  2.337217700E+01  1.061099893E-01
  8.721373000E+00  2.458240383E-01
  3.468091000E+00  3.862428773E-01
  1.452144000E+00  3.105526078E-01
  6.086150000E-01  6.415933955E-02
  2.576860000E-01 -2.265049984E-03
  1.041760000E-01 -5.217499963E-04
  4.242700000E-02 -8.757499938E-04
  1.484900000E-02  1.242199991E-04
   s  14
  2.262859900E+04 -1.586999994E-05
  3.372318100E+03 -8.656999968E-05
  7.603504000E+02 -4.302199984E-04
  2.117404800E+02 -1.825079993E-03
  6.722346800E+01 -6.682749976E-03
  2.337217700E+01 -2.095119992E-02
  8.721373000E+00 -5.200308981E-02
  3.468091000E+00 -9.849176964E-02
  1.452144000E+00 -1.355800695E-01
  6.086150000E-01 -6.429875976E-02
  2.576860000E-01  3.125414989E-01
  1.041760000E-01  6.270468577E-01
  4.242700000E-02  2.110231492E-01
  1.484900000E-02 -4.104669985E-03
   p   9
  3.371018400E+01  1.069960000E-03
  8.057649500E+00  6.828550001E-03
  2.836471400E+00  2.119065000E-02
  1.099965700E+00  5.843696001E-02
  4.433964000E-01  2.020920800E-01
  1.822264000E-01  4.582953101E-01
  7.572410000E-02  3.691239601E-01
  3.168540000E-02  6.611471001E-02
  1.108990000E-02  1.405160000E-03
 
   2
   s  14
  5.055750100E+04  1.128874000E-04
  7.524785600E+03  5.295373000E-04
  1.694327600E+03  2.450038300E-03
  4.728227900E+02  1.005398470E-02
  1.517107500E+02  3.545398060E-02
  5.391874600E+01  1.044071086E-01
  2.065931100E+01  2.412894918E-01
  8.383976000E+00  3.834225483E-01
  3.577015000E+00  3.078514393E-01
  1.547118000E+00  6.872442990E-02
  6.130130000E-01  2.224445000E-04
  2.460680000E-01  1.976748900E-03
  9.908700000E-02  2.057859400E-03
  3.468000000E-02  4.182020000E-04
   s  14
  5.055750100E+04 -2.507420000E-05
  7.524785600E+03 -1.175945000E-04
  1.694327600E+03 -5.456275000E-04
  4.728227900E+02 -2.245077100E-03
  1.517107500E+02 -8.043471800E-03
  5.391874600E+01 -2.442588710E-02
  2.065931100E+01 -6.136791180E-02
  8.383976000E+00 -1.177767835E-01
  3.577015000E+00 -1.550487783E-01
  1.547118000E+00 -1.933316860E-02
  6.130130000E-01  3.996930678E-01
  2.460680000E-01  5.589420949E-01
  9.908700000E-02  1.711195023E-01
  3.468000000E-02  7.456244600E-03
   p   9
  8.333315500E+01  1.344656000E-03
  1.955761100E+01  1.023555500E-02
  6.080365000E+00  4.520067100E-02
  2.179317000E+00  1.410756198E-01
  8.651500000E-01  3.047388085E-01
  3.619440000E-01  3.995281011E-01
  1.547400000E-01  2.719163432E-01
  6.542900000E-02  5.857669330E-02
  2.290000000E-02 -1.263813000E-04
 
[MO]
Sym=     1a  
Ene=   -11.9640
Spin= Alpha
Occup=    2.00000
   1        -0.00014264
   2        -0.00079500
   3        -0.00000000
   4        -0.00000000
   5        -0.00054950
   6         1.00006199
   7        -0.00232346
   8         0.00000000
   9         0.00000000
  10         0.00019832
Sym=     2a  
Ene=    -5.5928
Spin= Alpha
Occup=    2.00000
   1        -0.99993268
   2        -0.00081822
   3         0.00000000
   4        -0.00000000
   5         0.00032857
   6        -0.00002519
   7        -0.00109600
   8        -0.00000000
   9        -0.00000000
  10         0.00055807
Sym=     3a  
Ene=    -1.3094
Spin= Alpha
Occup=    2.00000
   1        -0.03783166
   2         0.10868669
   3         0.00000000
   4         0.00000000
   5         0.10740379
   6        -0.00826278
   7         0.87783927
   8        -0.00000000
   9        -0.00000000
  10        -0.18197757
Sym=     4a  
Ene=    -0.6983
Spin= Alpha
Occup=    1.00000
   1         0.00000000
   2        -0.00000000
   3        -0.00614979
   4        -0.15884906
   5        -0.00000000
   6         0.00000000
   7         0.00000000
   8        -0.03677709
   9        -0.94995175
  10         0.00000000
Sym=     5a  
Ene=    -0.0000
Spin= Alpha
Occup=    1.00000
   1        -0.00000000
   2         0.00000000
   3         0.15884906
   4        -0.00614979
   5        -0.00000000
   6        -0.00000000
   7         0.00000000
   8         0.94995175
   9        -0.03677709
  10        -0.00000000
Sym=     6a  
Ene=    -0.6183
Spin= Alpha
Occup=    0.00000
   1         0.01069471
   2        -0.83318384
   3         0.00000000
   4         0.00000000
   5         0.01201098
   6         0.03042193
   7         0.49106096
   8        -0.00000000
   9         0.00000000
  10         0.38858396
Sym=     7a  
Ene=    -0.5212
Spin= Alpha
Occup=    0.00000
   1         0.02510665
   2         0.42372549
   3        -0.00000000
   4         0.00000000
   5        -0.67422661
   6         0.02900711
   7         0.32632282
   8        -0.00000000
   9        -0.00000000
  10         0.56422603
Sym=     8a  
Ene=    -0.4380
Spin= Alpha
Occup=    0.00000
   1         0.00000000
   2         0.00000000
   3         0.68146868
   4        -0.75410694
   5        -0.00000000
   6         0.00000000
   7         0.00000000
   8        -0.26361238
   9         0.29171102
  10         0.00000000
Sym=     9a  
Ene=    -0.4380
Spin= Alpha
Occup=    0.00000
   1         0.00000000
   2         0.00000000
   3        -0.75410694
   4        -0.68146868
   5        -0.00000000
   6         0.00000000
   7         0.00000000
   8         0.29171102
   9         0.26361238
  10         0.00000000
Sym=    10a  
Ene=    -0.2023
Spin= Alpha
Occup=    0.00000
   1         0.07634990
   2         0.72046163
   3         0.00000000
   4         0.00000000
   5         1.04018805
   6        -0.09593686
   7        -0.72735534
   8        -0.00000000
   9        -0.00000000
  10         0.89433322
