   This run of MOLCAS is using the pymolcas driver

                             OPE
                             OPE          NMOL  CASOP  ENMOLC A   SO
                 OPE        NMOLC        AS  OP EN  MO LC     AS  OP
                OPENM       OL CA        SO  PE NM  OL CA     SOP EN
                OP EN      MO   LC       AS  OP ENMOL  CASO   PENMOL
                OP  EN     MO   LC       AS  OP EN     MO     LC ASO
               OP   E  NMOL  C  AS       OP  EN MO     LC     AS  OP
               OP  E   NMO   LC AS        OPEN  MO     LCASOP EN   M
               O  PEN   MO  LCA  SO
            OPE   NMO   L   CAS    OP
        OPENMOL  CASOP     ENMOL   CASOPE
     OPENMOLCA   SOPENMOLCASOPEN   MOLCASOPE
    OPENMOLCAS   OP           EN   MOL    CAS
    OPENMOLCAS       OP  ENM        O     LCA
    OPENMOLCAS    OPEN  MOLCASO     P  E  NMO
    OPENMOLCAS     OP               E  N  MOL
    OPENMOLCA   SO           PENM   O  L  CAS    OPEN    MO    LCAS
    OPENMOLCA   SOP           ENM   O  L  CAS   OP  EN  MOLC  AS   O
    OPENMOLCA   SOPE           NM      O  LCA   S      OP  EN MO
    OPENMOLC                AS         O  PEN   M      OL  CA  SOPE
    OPENMO        LCASOPE  NMOL        C  ASO   P      ENMOLC     AS
    OPE     NMO      LCA  SO     P     E   NM   OL  CA SO  PE N   MO
          OPENMOLCA            SOPE   NMO        LCAS  O    P  ENMO
     OPENMOLCASOPENMOLCASOPENMOLCASOPENMOLCA
        OPENMOLCASOPENMOLCASOPENMOLCASOPE
            OPENMOLCASOPENMOLCASOPENM
               OPENMOLCASOPENMOLCA        version: 24.02
                   OPENMOLCASO
                       OPE                tag: 126-g611b04c8f

 OpenMolcas is free software; you can redistribute it and/or modify it
 under the terms of the GNU Lesser General Public License version 2.1.
 OpenMolcas is distributed in the hope that it will be useful, but it
 is provided "as is" and without any express or implied warranties.
 For more details see the full text of the license in the file
 LICENSE or in <http://www.gnu.org/licenses/>.

                 Copyright (C) The OpenMolcas Authors
           For the author list and the recommended citation,
                   consult the file CONTRIBUTORS.md

           *************************************************
           * pymolcas version py2.28                       *
           *   build c4a6d18ded8cb6cad61d2372a9abd97c      *
           *   (after the EMIL interpreter by V. Veryazov) *
           *************************************************

configuration info
------------------
Host name: debian (Linux)
C Compiler ID: GNU
C flags: -std=gnu99
Fortran Compiler ID: Intel
Fortran flags: -fpp -i8 -heap-arrays
Definitions: _MOLCAS_;_I8_;_LINUX_
Parallel: OFF (GA=OFF)


   ------------------------------------------------------------------
  |
  |              Project: 1.90
  |       Submitted from: /home/grierjones/DDCASPT2/delta_ML/BeC/1.90
  |         Scratch area: /tmp/1.90
  |      Save outputs to: /home/grierjones/DDCASPT2/delta_ML/BeC/1.90
  |               Molcas: /usr/local
  |
  | Scratch area is empty
  |
  |       MOLCAS_DRIVER = /usr/local/pymolcas
  | MOLCAS_KEEP_WORKDIR = NO
  |  MOLCAS_NEW_WORKDIR = YES
  |       MOLCAS_NPROCS = 1
  |       MOLCAS_SOURCE = /usr/local
  |    MOLCAS_STRUCTURE = 0
  |
   ------------------------------------------------------------------

++ ---------   Input file   ---------

&GATEWAY
coord=1.90.xyz
Basis = ANO-RCC-MB
Group = nosymm
End of Input

&SEWARD
End of Input

&SCF
UHF

&MBPT2
Frozen
0

&RASSCF
Title= RASSCF
FileOrb
/home/grierjones/DDCASPT2/delta_ML/BeC/1.80/1.80.RasOrb

NACTEL
2 0 0
Inactive
4
RAS2
2
Symmetry
1
Spin
1
orblisting
all
ITERation
200 100
CIMX
200
SDAV
500

&CASPT2
Imaginary Shift
0.0
Frozen
0

-- ----------------------------------

--- Start Module: gateway at Thu Apr 25 13:40:46 2024 ---
 
()()()()()()()()()()()()()()()()()()()()()()()()()()()()()()()()()()()()()()()()()()()()()()()()()()

                                              &GATEWAY

                                   only a single process is used
                       available to each process: 2.0 GB of memory, 1 thread?
                                             pid: 99535
()()()()()()()()()()()()()()()()()()()()()()()()()()()()()()()()()()()()()()()()()()()()()()()()()()
 
 
++    Symmetry information:
      ---------------------
 
                    Character Table for C1 
 
                             E  
                    a        1  x, y, xy, Rz, z, xz, Ry, yz, Rx, I
--
 
 
++    Basis set information:
      ----------------------
 
 
      Basis set label: BE.ANO-RCC...2S1P.
 
      Electronic valence basis set:
      ------------------
      Associated Effective Charge   4.000000 au
      Associated Actual Charge      4.000000 au
      Nuclear Model: Point charge
 
      Shell  nPrim  nBasis  Cartesian Spherical Contaminant
         s      14       2        X                  
         p       9       1        X                  
 
 
      Basis set label: C.ANO-RCC...2S1P.
 
      Electronic valence basis set:
      ------------------
      Associated Effective Charge   6.000000 au
      Associated Actual Charge      6.000000 au
      Nuclear Model: Point charge
 
      Shell  nPrim  nBasis  Cartesian Spherical Contaminant
         s      14       2        X                  
         p       9       1        X                  
--
 
 
++    Molecular structure info:
      -------------------------
 
                    ************************************************ 
                    **** Cartesian Coordinates / Bohr, Angstrom **** 
                    ************************************************ 
 
     Center  Label                x              y              z                     x              y              z
        1      BE1              0.000000       0.000000       0.000000              0.000000       0.000000       0.000000
        2      C2               0.000000       0.000000       3.590480              0.000000       0.000000       1.900000
--
 
 
            Nuclear Potential Energy              6.68434372 au
 
--- Stop Module: gateway at Thu Apr 25 13:40:46 2024 /rc=_RC_ALL_IS_WELL_ ---
*** files: xmldump
    saved to directory /home/grierjones/DDCASPT2/delta_ML/BeC/1.90

--- Start Module: seward at Thu Apr 25 13:40:46 2024 ---
 
()()()()()()()()()()()()()()()()()()()()()()()()()()()()()()()()()()()()()()()()()()()()()()()()()()

                                              &SEWARD

                                   only a single process is used
                       available to each process: 2.0 GB of memory, 1 thread?
                                             pid: 99538
()()()()()()()()()()()()()()()()()()()()()()()()()()()()()()()()()()()()()()()()()()()()()()()()()()
 
               SEWARD will generate:
                  Multipole Moment integrals up to order  2
                  Kinetic Energy integrals
                  Nuclear Attraction integrals (point charge)
                  One-Electron Hamiltonian integrals
                  Velocity integrals
                  Relativistic Douglas-Kroll-Hess integrals:
                    - Parametrization         : EXP
                    - DKH order of Hamiltonian: 2
                    - DKH order of Properties : 0
                         - multipole moment operators
                         - electric potential operators
                         - contact operators
                  Orbital angular momentum around ( 0.0000  0.0000  2.0505 )
                  Velocity quadrupole around ( 0.0000  0.0000  2.0505 )
                  Atomic mean-field integrals
                  Two-Electron Repulsion integrals
 
                   Integrals are discarded if absolute value <: 1.00E-14
                   Integral cutoff threshold is set to       <: 1.00E-16
 
            Nuclear Potential Energy              6.68434372 au
 
 
      Basis set specifications :
      Symmetry species         a  
      Basis functions           10
 
 
      Input file to MOLDEN was generated!
 
--- Stop Module: seward at Thu Apr 25 13:40:47 2024 /rc=_RC_ALL_IS_WELL_ ---
*** files: 1.90.GssOrb 1.90.guessorb.h5 1.90.guessorb.molden xmldump
    saved to directory /home/grierjones/DDCASPT2/delta_ML/BeC/1.90

*** symbolic link created: INPORB -> 1.90.GssOrb
--- Start Module: scf at Thu Apr 25 13:40:47 2024 ---
 
()()()()()()()()()()()()()()()()()()()()()()()()()()()()()()()()()()()()()()()()()()()()()()()()()()

                                                &SCF

                                   only a single process is used
                       available to each process: 2.0 GB of memory, 1 thread?
                                             pid: 99541
()()()()()()()()()()()()()()()()()()()()()()()()()()()()()()()()()()()()()()()()()()()()()()()()()()
 
++    Input section:
      --------------
 
      Header of the integral files:
      
       Integrals generated by Gateway/Seward, Thu Apr 25 13:40:46 2024
 
 
      Cartesian coordinates in Angstrom:
      -----------------------------------------------------
      No.  Label        X            Y            Z        
      -----------------------------------------------------
       1   BE1        0.00000000   0.00000000   0.00000000
       2   C2         0.00000000   0.00000000   1.90000000
      -----------------------------------------------------
      Nuclear repulsion energy =    6.68434372
--
 
++    Orbital specifications:
      -----------------------
 
      Symmetry species               1
                                     a
      Frozen orbitals                0
      Occupied orbitals alpha        5
      Occupied orbitals beta         5
      Secondary orbitals alpha       5
      Secondary orbitals beta        5
      Deleted orbitals               0
      Total number of orbitals      10
      Number of basis functions     10
--
 
      Molecular charge                           0.000
 
++    Optimization specifications:
      ----------------------------
 
      SCF Algorithm: Conventional USCF
      D(i)-D(i-1) density differences are used
      Number of density matrices in core                 5
      Maximum number of NDDO SCF iterations            400
      Maximum number of HF SCF iterations              400
      Threshold for SCF energy change             1.00E-09
      Threshold for density matrix                1.00E-04
      Threshold for Fock matrix                   1.50E-04
      Threshold for linear dependence             1.00E-09
      Threshold at which DIIS is turned on        1.50E-01
      Maximum depth in the DIIS procedure                5
      Maximum depth in the BFGS Hessian update          30
      Threshold at which QNR/C2DIIS is turned on  7.50E-02
      Threshold for Norm(delta) (QNR/C2DIIS)      1.00E-03
      All orbitals punched on: UHFORB
--
 
      Input vectors read from INPORB
      Orbital file label: *Guess orbitals
 
 
++ Convergence information
                               UHF SCF        iterations: Energy and convergence statistics
 
Iter     Tot. SCF        One-elec.       Two-elec.     Energy      Max Dij or  Max Fij      DNorm      TNorm      AccCon     Time
         Energy          Energy          Energy        Change      Delta Norm                                                in Sec.
   1   -51.754387561   -85.248467383    26.809736105   0.00E+00    9.66E-01*   2.10E-01*    4.40E+00   1.53E+01   None         0.
   2   -51.095658865   -79.204146553    21.424143971   6.59E-01*   3.46E-01*   1.12E-01*    3.91E+00   1.34E+01   EDIIS        0.
   3   -52.161484902   -82.766314327    23.920485709  -1.07E+00*   2.08E-01*   4.34E-02*    1.78E+00   1.44E+01   EDIIS        0.
   4   -52.169076896   -83.475965449    24.622544836  -7.59E-03*   1.18E-01*   2.82E-02*    6.35E-01   1.46E+01   EDIIS        0.
   5   -52.176598854   -82.974230053    24.113287482  -7.52E-03*   3.39E-02*   1.36E-02*    3.14E-01   1.45E+01   c2DIIS       0.
   6   -52.178981767   -83.145570105    24.282244622  -2.38E-03*   5.55E-02*   6.09E-03*    1.20E-01   1.45E+01   QNRc2DIIS    0.
   7   -52.179494383   -83.111617533    24.247779433  -5.13E-04*   1.88E-01*   5.63E-03*    7.56E-02   1.45E+01   QNRc2DIIS    0.
   8   -52.180319476   -83.106956058    24.242292865  -8.25E-04*   3.09E-02*   4.16E-03*    2.54E-01   1.45E+01   QNRc2DIIS    0.
   9   -52.180442674   -83.099340378    24.234553988  -1.23E-04*   3.03E-02*   2.50E-03*    4.90E-02   1.45E+01   QNRc2DIIS    0.
  10   -52.180497434   -83.102552769    24.237711618  -5.48E-05*   4.16E-03*   1.47E-04     5.11E-02   1.45E+01   QNRc2DIIS    0.
  11   -52.180497666   -83.103327855    24.238486472  -2.32E-07*   1.33E-03*   4.13E-05     5.51E-03   1.45E+01   QNRc2DIIS    0.
  12   -52.180497692   -83.103327160    24.238485752  -2.53E-08*   2.16E-04    5.52E-06     1.71E-03   1.45E+01   QNRc2DIIS    0.
  13   -52.180497693   -83.103278859    24.238437450  -8.92E-10    4.49E-06    3.40E-07     2.79E-04   1.45E+01   QNRc2DIIS    0.
 
       Convergence after  13 Macro Iterations
--
 
 *****************************************************************************************************************************
 *                                                                                                                           *
 *                                             SCF/KS-DFT Program, Final results                                             *
 *                                                                                                                           *
 *                                                                                                                           *
 *                                                                                                                           *
 *                                                       Final Results                                                       *
 *                                                                                                                           *
 *****************************************************************************************************************************
 
::    Total SCF energy                                -52.1804976926
      One-electron energy                             -83.1032788595
      Two-electron energy                              24.2384374502
      Nuclear repulsion energy                          6.6843437167
      Kinetic energy (interpolated)                    52.6818381613
      Virial theorem                                    0.9904836185
      Total spin, S(S+1)                               -0.0000000000
      Total spin, S                                    -0.0000000000
      Max non-diagonal density matrix element           0.0000021956
      Max non-diagonal Fock matrix element              0.0000004212
 
 
      All orbitals with orbital energies smaller than  E(LUMO)+0.5 are printed
 
++    Molecular orbitals:
      -------------------
 
      Title: UHF orbitals (alpha)

      Molecular orbitals for symmetry species 1: a  
 
          Orbital            1         2         3         4         5         6         7         8         9        10    
          Energy          -11.2450   -4.7470   -0.7160   -0.3070   -0.2982    0.0140    0.0399    0.1293    0.2082    0.4058
          Occ. No.          1.0000    1.0000    1.0000    1.0000    1.0000    0.0000    0.0000    0.0000    0.0000    0.0000
 
        1 BE1    1s        -0.0003    0.9999   -0.0312    0.0144   -0.0000    0.0294   -0.0000    0.0000    0.0000    0.0771
        2 BE1    2s        -0.0014    0.0024    0.1714   -0.8162    0.0000    0.4446   -0.0000   -0.0000    0.0000    0.7151
        3 BE1    2px        0.0000    0.0000   -0.0000    0.0000    0.3137    0.0000   -0.0527   -0.9772    0.0469    0.0000
        4 BE1    2py       -0.0000   -0.0000   -0.0000   -0.0000    0.0216    0.0000    0.7667   -0.0672   -0.6823    0.0000
        5 BE1    2pz       -0.0012   -0.0003    0.0997    0.0106    0.0000   -0.6605    0.0000   -0.0000   -0.0000    1.0497
        6 C2     1s         1.0001   -0.0000   -0.0107    0.0304   -0.0000    0.0278   -0.0000    0.0000   -0.0000   -0.0953
        7 C2     2s        -0.0013    0.0008    0.8736    0.4658   -0.0000    0.2132   -0.0000    0.0000   -0.0000   -0.7884
        8 C2     2px       -0.0000    0.0000    0.0000    0.0000    0.8762    0.0000   -0.0332    0.5344   -0.0623    0.0000
        9 C2     2py        0.0000   -0.0000    0.0000    0.0000    0.0603    0.0000    0.4832    0.0368    0.9055   -0.0000
       10 C2     2pz       -0.0016   -0.0005   -0.0683    0.4172   -0.0000    0.5880   -0.0000    0.0000    0.0000    0.8819
--
 
 
      Input file to MOLDEN was generated!
 
 
++    Static properties:
      ------------------
 
 
      LoProp Charges per center
 

                   BE1      C2    
      Nuclear      4.0000   6.0000
      Electronic  -3.6046  -6.3954
 
      Total        0.3954  -0.3954
--
 
 
      All orbitals with orbital energies smaller than  E(LUMO)+0.5 are printed
 
++    Molecular orbitals:
      -------------------
 
      Title: UHF orbitals (beta)

      Molecular orbitals for symmetry species 1: a  
 
          Orbital            1         2         3         4         5         6         7         8         9        10    
          Energy          -11.2450   -4.7470   -0.7160   -0.3070   -0.2982    0.0140    0.0399    0.1293    0.2082    0.4058
          Occ. No.          1.0000    1.0000    1.0000    1.0000    1.0000    0.0000    0.0000    0.0000    0.0000    0.0000
 
        1 BE1    1s        -0.0003    0.9999   -0.0312    0.0144   -0.0000    0.0294   -0.0000    0.0000    0.0000    0.0771
        2 BE1    2s        -0.0014    0.0024    0.1714   -0.8162    0.0000    0.4446   -0.0000   -0.0000    0.0000    0.7151
        3 BE1    2px        0.0000    0.0000   -0.0000    0.0000    0.3137    0.0000   -0.0527   -0.9772    0.0469    0.0000
        4 BE1    2py       -0.0000   -0.0000   -0.0000   -0.0000    0.0216    0.0000    0.7667   -0.0672   -0.6823    0.0000
        5 BE1    2pz       -0.0012   -0.0003    0.0997    0.0106    0.0000   -0.6605    0.0000   -0.0000   -0.0000    1.0497
        6 C2     1s         1.0001   -0.0000   -0.0107    0.0304   -0.0000    0.0278   -0.0000    0.0000   -0.0000   -0.0953
        7 C2     2s        -0.0013    0.0008    0.8736    0.4658   -0.0000    0.2132   -0.0000    0.0000   -0.0000   -0.7884
        8 C2     2px       -0.0000    0.0000    0.0000    0.0000    0.8762    0.0000   -0.0332    0.5344   -0.0623    0.0000
        9 C2     2py        0.0000   -0.0000    0.0000    0.0000    0.0603    0.0000    0.4832    0.0368    0.9055   -0.0000
       10 C2     2pz       -0.0016   -0.0005   -0.0683    0.4172   -0.0000    0.5880   -0.0000    0.0000    0.0000    0.8819
--
 
 
++    Molecular charges:
      ------------------
 
      Mulliken charges per centre and basis function type
      ---------------------------------------------------
 
                            BE1                     C2    
                     alpha        beta       alpha        beta
      1s           1.0000      1.0000      1.0001      1.0001
      2s           0.7202      0.7202      0.9428      0.9428
      2px          0.1629      0.1629      0.8323      0.8323
      2pz          0.0530      0.0530      0.2839      0.2839
      2py          0.0008      0.0008      0.0039      0.0039
      Total        1.9369      1.9369      3.0631      3.0631
      Total              3.8739                  6.1261
 
      Charge            0.1261                 -0.1261
 
      Total electronic charge=   10.000000
 
      Total            charge=   -0.000000
--
 
 
      Input file to MOLDEN was generated!
 
 
++    Static properties:
      ------------------
 
 
      LoProp Charges per center
 

                   BE1      C2    
      Nuclear      4.0000   6.0000
      Electronic  -3.6046  -6.3954
 
      Total        0.3954  -0.3954
--
 
 
++    Natural Bond Order analysis
      ---------------------------
      Based on LoProp computed density
      -------------------------------------------------------------------------------------
      Atom A       Atom B       Bond Order
        BE1          C2             0.744
      -------------------------------------------------------------------------------------
      NBO located      1.488 electrons involved in    1 bonds.
      NBO located      0.999 non-bonded electrons on atom BE1       
      The remaining    2.776 electrons are to be considered as diffuse
--
 
 
++    Molecular orbitals:
      -------------------
 
      Title: Natural orbitals

      Molecular orbitals for symmetry species 1: a  
 
          Orbital            1         2         3         4         5         6         7         8         9        10    
          Energy          -11.2450   -4.7470   -0.7160   -0.3070   -0.2982    0.0140    0.0399    0.1293    0.2082    0.4058
          Occ. No.          2.0000    2.0000    2.0000    2.0000    2.0000    0.0000    0.0000    0.0000    0.0000    0.0000
 
        1 BE1    1s        -0.0003    0.9999   -0.0312    0.0144   -0.0000    0.0294   -0.0000    0.0000    0.0000   -0.0771
        2 BE1    2s        -0.0014    0.0024    0.1714   -0.8163    0.0000    0.4444   -0.0000   -0.0000    0.0000   -0.7151
        3 BE1    2px        0.0000   -0.0000   -0.0000    0.0000    0.3134    0.0000   -0.0527   -0.9773    0.0469   -0.0000
        4 BE1    2py       -0.0000   -0.0000   -0.0000    0.0000    0.0216    0.0000    0.7667   -0.0672   -0.6823   -0.0000
        5 BE1    2pz       -0.0012   -0.0003    0.0997    0.0107   -0.0000   -0.6605    0.0000   -0.0000   -0.0000   -1.0497
        6 C2     1s         1.0001   -0.0000   -0.0107    0.0304   -0.0000    0.0278   -0.0000    0.0000   -0.0000    0.0953
        7 C2     2s        -0.0013    0.0008    0.8736    0.4658   -0.0000    0.2134   -0.0000    0.0000   -0.0000    0.7884
        8 C2     2px       -0.0000   -0.0000   -0.0000    0.0000    0.8764    0.0000   -0.0332    0.5341   -0.0623   -0.0000
        9 C2     2py        0.0000   -0.0000   -0.0000    0.0000    0.0603    0.0000    0.4832    0.0367    0.9055    0.0000
       10 C2     2pz       -0.0016   -0.0005   -0.0684    0.4171   -0.0000    0.5881   -0.0000    0.0000    0.0000   -0.8819
--
 
 
++    Molecular properties:
      ---------------------
 
      Charge (e):
                      =   -0.0000
      Dipole Moment (Debye):
      Origin of the operator (Ang)=    0.0000    0.0000    0.0000
                   X=  5.0024E-13               Y= -5.4227E-14               Z= -1.9194E+00           Total=  1.9194E+00
      Quadrupole Moment (Debye*Ang):
      Origin of the operator (Ang)=    0.0000    0.0000    1.0851
                  XX= -1.5634E+01              XY= -3.2604E-01              XZ= -4.7876E-13              YY= -1.0917E+01
                  YZ=  3.0606E-14              ZZ= -1.0325E+01
      In traceless form (Debye*Ang)
                  XX= -5.0125E+00              XY= -4.8906E-01              XZ= -7.1814E-13              YY=  2.0623E+00
                  YZ=  4.5910E-14              ZZ=  2.9502E+00
--
 
 
      Input file to MOLDEN was generated!
 
 ###############################################################################
 ###############################################################################
 ###                                                                         ###
 ###                                                                         ###
 ###    WARNING: RunFile label nBas                                          ###
 ###    was used       87 times                                              ###
 ###                                                                         ###
 ###                                                                         ###
 ###############################################################################
 ###############################################################################
--- Stop Module: scf at Thu Apr 25 13:40:48 2024 /rc=_RC_ALL_IS_WELL_ ---
*** files: 1.90.LprOrb 1.90.LoProp.molden 1.90.scf.molden 1.90.scf.h5 1.90.UhfOrb 1.90.UnaOrb xmldump
    saved to directory /home/grierjones/DDCASPT2/delta_ML/BeC/1.90

*** symbolic link created: INPORB -> 1.90.UnaOrb
--- Start Module: mbpt2 at Thu Apr 25 13:40:48 2024 ---
 
()()()()()()()()()()()()()()()()()()()()()()()()()()()()()()()()()()()()()()()()()()()()()()()()()()

                                               &MBPT2

                                   only a single process is used
                       available to each process: 2.0 GB of memory, 1 thread?
                                             pid: 99544
()()()()()()()()()()()()()()()()()()()()()()()()()()()()()()()()()()()()()()()()()()()()()()()()()()
 
 
 ###############################################################################
 ###############################################################################
 ###                                                                         ###
 ###                                                                         ###
 ###    WARNING: MP2 implementation intended for RHF references only         ###
 ###                                                                         ###
 ###                                                                         ###
 ###############################################################################
 ###############################################################################
MBPT2 WARNING: Reference function according to RunFile:UHF-SCF 
I'll assume you know what you're doing and continue
 
 
WARNING!
Default frozen orbitals as non valence orbitals is overwritten by user input.
Default values:   2
 
 
      Cartesian coordinates in Angstrom:
      -----------------------------------------------------
      No.  Label        X            Y            Z        
      -----------------------------------------------------
       1   BE1        0.00000000   0.00000000   0.00000000
       2   C2         0.00000000   0.00000000   1.90000000
      -----------------------------------------------------
      Nuclear repulsion energy =    6.68434372
 
      Contents of RUNFILE file:
      -------------------------
 
      Symmetry species                           1
                                                 a
      Number of basis functions                 10
      Frozen occupied orbitals                   0
      Active occupied orbitals                   5
      Active external orbitals                   5
      Deleted external orbitals                  0
 
 
      Energies of the active occupied orbitals
 
      symmetry species 1                   -11.245030     -4.747028     -0.715962     -0.306997     -0.298184
 
 
      Energies of the active external orbitals
 
      symmetry species 1                     0.014024      0.039876      0.129327      0.208168      0.405787
 
 
      ********************************************************************************************************
      *                                               Results                                                *
      ********************************************************************************************************
 
 Conventional algorithm used...

       SCF energy                           =      -52.1804976926 a.u.
       Second-order correlation energy      =       -0.0825433038 a.u.

       Total energy                         =      -52.2630409964 a.u.
       Reference weight ( Cref**2 )         =        0.91421
 
::    Total MBPT2 energy                              -52.2630409964
 
 
       Zeroth-order energy (E0)             =      -27.9420602425 a.u.
 
       Shanks-type energy S1(E)             =      -52.2633230558 a.u.
 
 


       Data processing and timing information:

       Section                                              time(sec)
                                                          CPU  Elapsed

      Input data processing                              0.03      0.05
      Transformation of integrals                        0.00      0.00
      MBPT2 calculations (BJAI)                          0.00      0.00
      Total MBPT2 calculations                           0.03      0.05
 
 
--- Stop Module: mbpt2 at Thu Apr 25 13:40:48 2024 /rc=_RC_ALL_IS_WELL_ ---
*** files: xmldump
    saved to directory /home/grierjones/DDCASPT2/delta_ML/BeC/1.90

*** symbolic link created: INPORB -> 1.90.UnaOrb
--- Start Module: rasscf at Thu Apr 25 13:40:48 2024 ---
 
()()()()()()()()()()()()()()()()()()()()()()()()()()()()()()()()()()()()()()()()()()()()()()()()()()

                                              &RASSCF

                                   only a single process is used
                       available to each process: 2.0 GB of memory, 1 thread?
                                             pid: 99548
()()()()()()()()()()()()()()()()()()()()()()()()()()()()()()()()()()()()()()()()()()()()()()()()()()
 
 
      Header of the ONEINT file:
      --------------------------
      
      Integrals generated by Gateway/Seward, Thu Apr 25 13:40:46 2024
 
 
      OrdInt status: non-squared
 
 
      Cartesian coordinates in Angstrom:
      -----------------------------------------------------
      No.  Label        X            Y            Z        
      -----------------------------------------------------
       1   BE1        0.00000000   0.00000000   0.00000000
       2   C2         0.00000000   0.00000000   1.90000000
      -----------------------------------------------------
      Nuclear repulsion energy =    6.68434372
 
++    Wave function specifications:
      -----------------------------
 
      Number of closed shell electrons           8
      Number of electrons in active shells       2
      Max number of holes in RAS1 space          0
      Max nr of electrons in RAS3 space          0
      Number of inactive orbitals                4
      Number of active orbitals                  2
      Number of secondary orbitals               4
      Spin quantum number                      0.0
      State symmetry                             1
--
 
++    Orbital specifications:
      -----------------------
 
      Symmetry species                           1
                                                 a
      Frozen orbitals                            0
      Inactive orbitals                          4
      Active orbitals                            2
      RAS1 orbitals                              0
      RAS2 orbitals                              2
      RAS3 orbitals                              0
      Secondary orbitals                         4
      Deleted orbitals                           0
      Number of basis functions                 10
--
 
++    CI expansion specifications:
      ----------------------------
 
      Number of CSFs                             3
      Number of determinants                     3
      Number of root(s) required                 1
      Root chosen for geometry opt.              1
      CI root used                               1
         
      highest root included in the CI            1
      max. size of the explicit Hamiltonian      3
--
 
++    Optimization specifications:
      ----------------------------
 
      RASSCF algorithm: Conventional
      Maximum number of macro iterations       200
      Maximum number of SX iterations          100
      Threshold for RASSCF energy            1.000E-08
      Threshold for max MO rotation          1.000E-01
      Threshold for max BLB element          1.000E-04
      Level shift parameter                  5.000E-01
      Make Quasi-Newton update
--
 
      The MO-coefficients are taken from the file:
      /home/grierjones/DDCASPT2/delta_ML/BeC/1.80/1.80.RasOrb                                                                                                                                                                                                         
      Title: RASSCF average (pseudo-natural) orbitals                                      
 
      Total molecular charge    0.00
 
      ************************************************************************************************************************
      *                                                                                                                      *
      *                                            Wave function control section                                             *
      *                                                                                                                      *
      ************************************************************************************************************************
 
 
                                         RASSCF iterations: Energy and convergence statistics
                                         ----------------------------------------------------
 
      Iter CI   SX   CI       RASSCF       Energy    max ROT     max BLB   max BLB  Level Ln srch  Step   QN   Walltime
          iter iter root      energy       change     param      element    value   shift minimum  type update hh:mm:ss
 Nr of preliminary CI iterations:   1
        1   1    6    1   -52.19687027    0.00E+00  -1.36E-02    3  10 1 -2.14E-02*  0.22   0.00    SX    NO    0:00:00
        2   1    6    1   -52.19765029   -7.80E-04*  8.73E-03    4   9 1 -1.09E-02*  0.21   0.00    SX    NO    0:00:00
        3   1    6    1   -52.19803442   -3.84E-04* -6.85E-03    4   9 1 -8.26E-03*  0.21   0.00    SX    NO    0:00:00
        4   1    6    1   -52.19828968   -2.55E-04* -6.34E-03    4   9 1 -7.87E-03*  0.20   0.00    SX    NO    0:00:00
        5   1    6    1   -52.19848139   -1.92E-04*  4.25E-02    4   9 1 -6.97E-03*  0.20   2.50    QN   YES    0:00:00
        6   1    6    1   -52.19912782   -6.46E-04*  3.48E-03    3  10 1  3.56E-03*  0.19   1.04    QN   YES    0:00:00
        7   1    6    1   -52.19914820   -2.04E-05*  3.25E-03    3  10 1  2.08E-03*  0.19   1.94    LS   YES    0:00:00
        8   1    6    1   -52.19915456   -6.36E-06*  1.99E-03    4   9 1  7.18E-04*  0.19   1.02    QN   YES    0:00:00
        9   1    5    1   -52.19915771   -3.15E-06*  1.23E-03    3  10 1  8.19E-05   0.19   1.14    QN   YES    0:00:00
       10   1    5    1   -52.19915788   -1.71E-07*  7.47E-04    6   7 1 -5.43E-05   0.19   1.61    LS   YES    0:00:00
       11   1    5    1   -52.19915790   -2.85E-08*  4.79E-04    3  10 1 -8.40E-05   0.19   1.00    QN   YES    0:00:00
       12   1    5    1   -52.19915794   -3.80E-08*  3.12E-04    3  10 1 -3.60E-05   0.19   1.62    QN   YES    0:00:00
       13   1    3    1   -52.19915795   -6.82E-09  -9.07E-06    6   7 1  5.29E-06   0.19   1.02    QN   YES    0:00:00
      Convergence after 13 iterations
       14   1    3    1   -52.19915795   -6.45E-11  -9.07E-06    3   7 1  2.34E-06   0.19   1.02    QN   YES    0:00:00
 
      ************************************************************************************************************************
                                                      Wave function printout:
                       occupation of active orbitals, and spin coupling of open shells (u,d: Spin up or down)
      ************************************************************************************************************************
 
      Note: transformation to natural orbitals
      has been made, which may change the order of the CSFs.
 
      printout of CI-coefficients larger than  0.05 for root  1
      energy=     -52.199158
      conf/sym  11     Coeff  Weight
             1  20  -0.16078 0.02585
             3  02   0.98699 0.97415
 
      Natural orbitals and occupation numbers for root  1
      sym 1:   0.051700   1.948300
 
      ************************************************************************************************************************
      *                                                                                                                      *
      *                                                    Final results                                                     *
      *                                                                                                                      *
      ************************************************************************************************************************
 
 
++    Wave function specifications:
      -----------------------------
 
      Number of closed shell electrons           8
      Number of electrons in active shells       2
      Max number of holes in RAS1 space          0
      Max nr of electrons in RAS3 space          0
      Number of inactive orbitals                4
      Number of active orbitals                  2
      Number of secondary orbitals               4
      Spin quantum number                      0.0
      State symmetry                             1
--
 
++    Orbital specifications:
      -----------------------
 
      Symmetry species                           1
                                                 a
      Frozen orbitals                            0
      Inactive orbitals                          4
      Active orbitals                            2
      RAS1 orbitals                              0
      RAS2 orbitals                              2
      RAS3 orbitals                              0
      Secondary orbitals                         4
      Deleted orbitals                           0
      Number of basis functions                 10
--
 
++    CI expansion specifications:
      ----------------------------
 
      Number of CSFs                             3
      Number of determinants                     3
      Number of root(s) required                 1
      CI root used                               1
      highest root included in the CI            1
      Root passed to geometry opt.               1
--
 
++    Final optimization conditions:
      ------------------------------
 
      Average CI energy                             -52.19915795
      RASSCF energy for state  1                    -52.19915795
      Super-CI energy                                -0.00000000
      RASSCF energy change                           -0.00000000
      Max change in MO coefficients              -1.172E-05
      Max non-diagonal density matrix element    -9.068E-06
      Maximum BLB matrix element                  2.340E-06
      (orbital pair   3,   7 in symmetry   1)
      Norm of electronic gradient            3.663E-06
--
 
 
      Final state energy(ies):
      ------------------------
 
::    RASSCF root number  1 Total energy:    -52.19915795
 
++    Molecular orbitals:
      -------------------
 
      Pseudonatural active orbitals and approximate occupation numbers
 
 
 
 
      Molecular orbitals for symmetry species 1: a  
 
 
      Orbital                 1         2         3         4         5         6         7         8         9        10
      Energy           -11.2419   -4.7464   -0.4009   -0.2960    0.1333    0.0020    0.0154    0.1050    0.1298    0.4070
      Occ. No.           2.0000    2.0000    2.0000    2.0000    0.0517    1.9483    0.0000    0.0000    0.0000    0.0000
 
     1 BE1    1s        -0.0000   -1.0000   -0.0275   -0.0000    0.0000   -0.0201    0.0293    0.0000   -0.0000    0.0771
     2 BE1    2s         0.0013   -0.0025    0.7991   -0.0000   -0.0000   -0.2450    0.4457   -0.0000    0.0000    0.7124
     3 BE1    2px        0.0000   -0.0000    0.0000    0.3185   -0.0023   -0.0000   -0.0000   -0.0397   -0.9774    0.0000
     4 BE1    2py        0.0000   -0.0000   -0.0000   -0.0123   -0.0599    0.0000    0.0000   -1.0262    0.0378    0.0000
     5 BE1    2pz       -0.0022    0.0004    0.0421    0.0000   -0.0000    0.0828   -0.6626   -0.0000    0.0000    1.0491
     6 C2     1s         1.0000    0.0000   -0.0319    0.0000    0.0000    0.0178    0.0279    0.0000   -0.0000   -0.0952
     7 C2     2s        -0.0131   -0.0004    0.0108    0.0000    0.0000    0.9955    0.2090    0.0000   -0.0000   -0.7825
     8 C2     2px        0.0000    0.0000    0.0000    0.8753    0.0392   -0.0000    0.0000    0.0071    0.5391   -0.0000
     9 C2     2py       -0.0000   -0.0000    0.0000   -0.0339    1.0116   -0.0000   -0.0000    0.1827   -0.0209    0.0000
    10 C2     2pz       -0.0032    0.0005   -0.3969    0.0000    0.0000    0.1394    0.5855    0.0000   -0.0000    0.8846
--
 
      Von Neumann Entropy (Root   1) =  0.17313
 

      Mulliken population analysis for root number:  1
      -----------------------------------------------
 
 
++    Molecular charges:
      ------------------
 
      Mulliken charges per centre and basis function type
      ---------------------------------------------------
 
                BE1     C2    
      1s       2.0000  2.0002
      2s       1.4431  1.8475
      2px      0.3337  1.6634
      2pz      0.0940  0.5635
      2py     -0.0001  0.0547
      Total    3.8708  6.1292
 
      N-E      0.1292 -0.1292
 
      Total electronic charge=   10.000000
 
      Total            charge=   -0.000000
--
 
 

      Expectation values of various properties for root number:  1
      -----------------------------------------------------------
 
 
++    Molecular properties:
      ---------------------
 
      Charge (e):
                      =   -0.0000
      Dipole Moment (Debye):
      Origin of the operator (Ang)=    0.0000    0.0000    0.0000
                   X= -1.5472E-12               Y=  2.0072E-13               Z= -1.9386E+00           Total=  1.9386E+00
      Quadrupole Moment (Debye*Ang):
      Origin of the operator (Ang)=    0.0000    0.0000    1.0851
                  XX= -1.5652E+01              XY=  1.8146E-01              XZ=  1.2866E-12              YY= -1.0972E+01
                  YZ= -6.1334E-13              ZZ= -1.0086E+01
      In traceless form (Debye*Ang)
                  XX= -5.1233E+00              XY=  2.7219E-01              XZ=  1.9299E-12              YY=  1.8967E+00
                  YZ= -9.2001E-13              ZZ=  3.2265E+00
--
 

      LoProp population analysis for root number:  1
      -----------------------------------------------
 
 
++    LoProp analysis:
      ----------------
 
 
 
      Input file to MOLDEN was generated!
 
 
++    Static properties:
      ------------------
 
 
      LoProp Charges per center
 

                   BE1      C2    
      Nuclear      4.0000   6.0000
      Electronic  -3.6077  -6.3923
 
      Total        0.3923  -0.3923
--
 
 
      Natural Bond Order analysis for root number:  1
 
++    Natural Bond Order analysis
      ---------------------------
      Based on LoProp computed density
      -------------------------------------------------------------------------------------
      Atom A       Atom B       Bond Order
        BE1          C2             0.736
      -------------------------------------------------------------------------------------
      NBO located      1.472 electrons involved in    1 bonds.
      NBO located      0.998 non-bonded electrons on atom BE1       
      The remaining    2.785 electrons are to be considered as diffuse
--
 
--
 
 
      Input file to MOLDEN was generated!
 
      Average orbitals are written to the RASORB file
      Natural orbitals for root   1 are written to the RASORB.1 file
      Spin density orbitals for root   1 are written to the SPDORB.1 file
 
--- Stop Module: rasscf at Thu Apr 25 13:40:48 2024 /rc=_RC_ALL_IS_WELL_ ---
*** files: 1.90.LprOrb 1.90.rasscf.molden 1.90.LoProp.molden 1.90.RasOrb 1.90.RasOrb.1 1.90.rasscf.h5 1.90.SpdOrb.1 xmldump
    saved to directory /home/grierjones/DDCASPT2/delta_ML/BeC/1.90

*** symbolic link created: INPORB -> 1.90.RasOrb
--- Start Module: caspt2 at Thu Apr 25 13:40:48 2024 ---
 
()()()()()()()()()()()()()()()()()()()()()()()()()()()()()()()()()()()()()()()()()()()()()()()()()()

                                              &CASPT2

                                   only a single process is used
                       available to each process: 2.0 GB of memory, 1 thread?
                                             pid: 99552
()()()()()()()()()()()()()()()()()()()()()()()()()()()()()()()()()()()()()()()()()()()()()()()()()()
 
 ###############################################################################
 ###############################################################################
 ###                                                                         ###
 ###                                                                         ###
 ###    WARNING: User changed nr of frozen orbitals.                         ###
 ###                                                                         ###
 ###                                                                         ###
 ###############################################################################
 ###############################################################################
 
++    Wave function specifications:
      -----------------------------
 
      Number of closed shell electrons           8
      Number of electrons in active shells       2
      Max number of holes in RAS1 space          0
      Max number of electrons in RAS3 space      0
      Number of inactive orbitals                4
      Number of active orbitals                  2
      Number of secondary orbitals               4
      Spin quantum number                      0.0
      State symmetry                             1
      Number of CSFs                             3
      Number of CASSCF root(s) available         1
      CASPT2 state passed to geometry opt.       1
      A file JOBMIX will be created
      This is a CASSCF or RASSCF reference function
--
 
++    Orbital specifications:
      -----------------------
 
      Symmetry species                           1
                                                 a
      Frozen orbitals                            0
      Inactive orbitals                          4
      Active orbitals                            2
      Secondary orbitals                         4
      Deleted orbitals                           0
      Number of basis functions                 10
--
 
++    CASPT2 specifications:
      ----------------------
 
      Type of calculation                        SS-CASPT2
      Fock operator                              state-specific
      IPEA shift                                 0.25
      Real shift                                 0.00
      Imaginary shift                            0.00
      The input orbitals will be transformed to quasi-canonical
--
 
--------------------------------------------------------------------------------
 Estimated memory requirements:
  POLY3 :                   250070
  RHS:                      250492
  SIGMA :                   250512
  PRPCTL:                        0
 Available workspace:    230392690
 
++ CASPT2 computation for group   1
 
********************************************************************************
 Multi-State initialization phase begins for group   1
--------------------------------------------------------------------------------
********************************************************************************
 Compute H0 matrices for state    1
--------------------------------------------------------------------------------
--------------------------------------------------------------------------------
 H0 matrices have been computed.
 
********************************************************************************
  CASPT2 EQUATION SOLUTION
--------------------------------------------------------------------------------
 
  Total nr of CASPT2 parameters:
   Before reduction:         656
   After  reduction:         492
 
 Variance of |WF0>:       0.0692481952
 
 The contributions to the second order correlation energy in atomic units.
-----------------------------------------------------------------------------------------------------------------------------
  IT.      VJTU        VJTI        ATVX        AIVX        VJAI        BVAT        BJAT        BJAI        TOTAL       RNORM  
-----------------------------------------------------------------------------------------------------------------------------
   1     0.000000   -0.000230    0.000000   -0.000546   -0.000352   -0.006220   -0.016497   -0.045259   -0.069104    0.017447
   2     0.000000   -0.000240    0.000000   -0.000528   -0.000367   -0.006839   -0.016673   -0.046978   -0.071625    0.002654
   3     0.000000   -0.000242    0.000000   -0.000524   -0.000374   -0.006847   -0.016664   -0.046903   -0.071554    0.000639
   4     0.000000   -0.000242    0.000000   -0.000522   -0.000375   -0.006846   -0.016648   -0.046872   -0.071505    0.000085
   5     0.000000   -0.000242    0.000000   -0.000522   -0.000376   -0.006845   -0.016648   -0.046873   -0.071506    0.000026
   6     0.000000   -0.000242    0.000000   -0.000521   -0.000376   -0.006845   -0.016649   -0.046874   -0.071507    0.000005
-----------------------------------------------------------------------------------------------------------------------------
 
  FINAL CASPT2 RESULT:
 
      Reference energy:         -52.1991579495
      E2 (Non-variational):      -0.0715067950
      E2 (Variational):          -0.0715067747
      Total energy:             -52.2706647242
      Residual norm:              0.0000009320
      Reference weight:           0.92029
 
      Contributions to the CASPT2 correlation energy
      Active & Virtual Only:         -0.0068451524
      One Inactive Excited:          -0.0171701143
      Two Inactive Excited:          -0.0474915284
 
 
++ Denominators, etc.
--------------------------------------------------------------------------------------------------------------
 Report on small energy denominators, large coefficients, and large energy contributions.
CASE  SYMM ACTIVE-MIX  NON-ACTIVE INDICES          DENOMINATOR     RHS VALUE       COEFFICIENT     CONTRIBUTION
BVATP    1  Mu1.0001  Se1.007 Se1.007               1.34033730      0.06818529     -0.06659620     -0.00454088
BJATP    1  Mu1.0001  In1.003 Se1.007 Se1.007       1.01122190      0.04149167     -0.08703321     -0.00361115
BJATP    1  Mu1.0001  In1.003 Se1.008 Se1.008       1.19038040      0.01411588     -0.02619952     -0.00036983
BJATP    1  Mu1.0001  In1.004 Se1.009 Se1.007       1.02070162     -0.05047984      0.06356152     -0.00320858
BJATP    1  Mu1.0001  In1.003 Se1.009 Se1.009       1.23999949      0.01551569     -0.02578075     -0.00040001
BJATM    1  Mu1.0001  In1.004 Se1.009 Se1.007       1.02070162      0.06119536     -0.07871532     -0.00481701
BJATM    1  Mu1.0001  In1.003 Se1.010 Se1.007       1.40274094     -0.07087542      0.05062450     -0.00358803
BJAIP    1  Se1.007 In1.003 Se1.007 In1.003         0.83268628      0.08445674     -0.12642305     -0.01067728
BJAIP    1  Se1.008 In1.003 Se1.008 In1.003         1.01184478      0.05837487     -0.06637683     -0.00387474
BJAIP    1  Se1.009 In1.003 Se1.009 In1.003         1.06146387      0.04555073     -0.04872063     -0.00221926
BJAIP    1  Se1.010 In1.003 Se1.010 In1.003         1.61572437      0.05490885     -0.03313252     -0.00181927
BJAIP    1  Se1.007 In1.003 Se1.009 In1.004         0.84216600     -0.06058741      0.08470437     -0.00513202
BJAIP    1  Se1.009 In1.003 Se1.010 In1.004         1.23368505     -0.05764457      0.04504768     -0.00259675
BJAIP    1  Se1.009 In1.004 Se1.009 In1.004         0.85164572      0.07950126     -0.09335016     -0.00742146
BJAIM    1  Se1.007 In1.003 Se1.008 In1.004         0.84216600     -0.08145153      0.11252209     -0.00916510
BJAIM    1  Se1.009 In1.003 Se1.009 In1.004         1.23368505      0.05441552     -0.04302170     -0.00234105
--
 
   (Skipping property calculation,
    use PROP keyword to activate)
--
 
  Total CASPT2 energies:
::    CASPT2 Root  1     Total energy:    -52.27066472
 
  A NEW JOBIPH FILE NAMED 'JOBMIX' IS PREPARED.
********************************************************************************
--- Stop Module: caspt2 at Thu Apr 25 13:40:48 2024 /rc=_RC_ALL_IS_WELL_ ---
*** files: xmldump
    saved to directory /home/grierjones/DDCASPT2/delta_ML/BeC/1.90

.##################.
.# Happy landing! #.
.##################.

    Timing: Wall=2.59 User=1.66 System=0.22
************************************
*** WorkDir at /tmp/1.90 removed ***
************************************
