[Molden Format]
[N_Atoms]
                     2
[Atoms] (AU)
N1          1      7           0.00000000      0.00000000      0.00000000
N2          2      7           0.00000000      0.00000000      1.32280829
[Charge] (Mulliken)
 -1.199040866595169E-012
  1.183941833460267E-012
[GTO] (AU)
   1
   s  14
  7.476171500E+04  1.182599996E-04
  1.112365400E+04  5.172899983E-04
  2.512685700E+03  2.266659992E-03
  7.037772900E+02  9.145289970E-03
  2.254787900E+02  3.239342989E-02
  7.961581000E+01  9.770792967E-02
  3.023728300E+01  2.317036792E-01
  1.226362200E+01  3.768898887E-01
  5.265086000E+00  3.177420689E-01
  2.333471000E+00  8.211308973E-02
  9.018560000E-01  3.312089989E-03
  3.583360000E-01  3.720819988E-03
  1.410930000E-01  3.165419989E-03
  4.938300000E-02  4.595799985E-04
   s  14
  7.476171500E+04 -2.707000010E-05
  1.112365400E+04 -1.183700004E-04
  2.512685700E+03 -5.203800020E-04
  7.037772900E+02 -2.102930008E-03
  2.254787900E+02 -7.568200028E-03
  7.961581000E+01 -2.346767009E-02
  3.023728300E+01 -6.042901023E-02
  1.226362200E+01 -1.170549104E-01
  5.265086000E+00 -1.555321506E-01
  2.333471000E+00 -2.468935009E-02
  9.018560000E-01  3.625054514E-01
  3.583360000E-01  5.550845021E-01
  1.410930000E-01  2.148376908E-01
  4.938300000E-02  8.983850034E-03
   p   9
  1.266665700E+02  1.233630000E-03
  2.983738900E+01  9.493409996E-03
  9.394038000E+00  4.293961998E-02
  3.405104000E+00  1.362925399E-01
  1.350000000E+00  2.921362499E-01
  5.576960000E-01  3.887887598E-01
  2.324490000E-01  2.946801399E-01
  9.426400000E-02  8.012875997E-02
  3.299200000E-02  5.405199998E-04
 
   2
   s  14
  7.476171500E+04  1.182599996E-04
  1.112365400E+04  5.172899983E-04
  2.512685700E+03  2.266659992E-03
  7.037772900E+02  9.145289970E-03
  2.254787900E+02  3.239342989E-02
  7.961581000E+01  9.770792967E-02
  3.023728300E+01  2.317036792E-01
  1.226362200E+01  3.768898887E-01
  5.265086000E+00  3.177420689E-01
  2.333471000E+00  8.211308973E-02
  9.018560000E-01  3.312089989E-03
  3.583360000E-01  3.720819988E-03
  1.410930000E-01  3.165419989E-03
  4.938300000E-02  4.595799985E-04
   s  14
  7.476171500E+04 -2.707000010E-05
  1.112365400E+04 -1.183700004E-04
  2.512685700E+03 -5.203800020E-04
  7.037772900E+02 -2.102930008E-03
  2.254787900E+02 -7.568200028E-03
  7.961581000E+01 -2.346767009E-02
  3.023728300E+01 -6.042901023E-02
  1.226362200E+01 -1.170549104E-01
  5.265086000E+00 -1.555321506E-01
  2.333471000E+00 -2.468935009E-02
  9.018560000E-01  3.625054514E-01
  3.583360000E-01  5.550845021E-01
  1.410930000E-01  2.148376908E-01
  4.938300000E-02  8.983850034E-03
   p   9
  1.266665700E+02  1.233630000E-03
  2.983738900E+01  9.493409996E-03
  9.394038000E+00  4.293961998E-02
  3.405104000E+00  1.362925399E-01
  1.350000000E+00  2.921362499E-01
  5.576960000E-01  3.887887598E-01
  2.324490000E-01  2.946801399E-01
  9.426400000E-02  8.012875997E-02
  3.299200000E-02  5.405199998E-04
 
[MO]
Sym=     1a  
Ene=   -16.2370
Spin= Alpha
Occup=    2.00000
   1         0.70223574
   2        -0.00489844
   3         0.00000000
   4         0.00000000
   5         0.01046901
   6         0.70223574
   7        -0.00489844
   8         0.00000000
   9        -0.00000000
  10        -0.01046901
Sym=     2a  
Ene=   -16.1360
Spin= Alpha
Occup=    2.00000
   1        -0.71462933
   2         0.00054609
   3         0.00000000
   4         0.00000000
   5        -0.02089764
   6         0.71462933
   7        -0.00054609
   8         0.00000000
   9         0.00000000
  10        -0.02089764
Sym=     3a  
Ene=    -1.9246
Spin= Alpha
Occup=    2.00000
   1         0.14561232
   2        -0.35540199
   3        -0.00000000
   4         0.00000000
   5        -0.41819533
   6         0.14561232
   7        -0.35540199
   8         0.00000000
   9         0.00000000
  10         0.41819533
Sym=     4a  
Ene=    -1.0302
Spin= Alpha
Occup=    2.00000
   1         0.00000000
   2        -0.00000000
   3         0.56115233
   4         0.03658980
   5         0.00000000
   6        -0.00000000
   7        -0.00000000
   8         0.56115233
   9         0.03658980
  10        -0.00000000
Sym=     5a  
Ene=    -1.0301
Spin= Alpha
Occup=    2.00000
   1         0.00000000
   2         0.00000000
   3        -0.03658980
   4         0.56115233
   5        -0.00000000
   6        -0.00000000
   7         0.00000000
   8        -0.03658980
   9         0.56115233
  10         0.00000000
Sym=     6a  
Ene=    -0.7965
Spin= Alpha
Occup=    2.00000
   1         0.08913203
   2         0.46758674
   3         0.00000000
   4        -0.00000000
   5        -0.68129206
   6         0.08913203
   7         0.46758674
   8         0.00000000
   9        -0.00000000
  10         0.68129206
Sym=     7a  
Ene=    -0.7906
Spin= Alpha
Occup=    1.99433
   1        -0.03463602
   2        -0.64255201
   3         0.00000000
   4        -0.00000000
   5         0.37098027
   6         0.03463602
   7         0.64255201
   8        -0.00000000
   9         0.00000000
  10         0.37098027
Sym=     8a  
Ene=     0.0000
Spin= Alpha
Occup=    0.00567
   1        -0.00000000
   2        -0.00000000
   3        -1.09023701
   4        -0.07108864
   5        -0.00000000
   6         0.00000000
   7         0.00000000
   8         1.09023701
   9         0.07108864
  10         0.00000000
Sym=     9a  
Ene=     0.4312
Spin= Alpha
Occup=    0.00000
   1         0.00000000
   2         0.00000000
   3         0.07108864
   4        -1.09023701
   5         0.00000000
   6        -0.00000000
   7        -0.00000000
   8        -0.07108864
   9         1.09023701
  10         0.00000000
Sym=    10a  
Ene=     2.9346
Spin= Alpha
Occup=    0.00000
   1         1.06788157
   2         3.99920607
   3        -0.00000000
   4         0.00000000
   5         2.13945612
   6        -1.06788157
   7        -3.99920607
   8         0.00000000
   9        -0.00000000
  10         2.13945612
