[Molden Format]
[N_Atoms]
                     2
[Atoms] (AU)
N1          1      7           0.00000000      0.00000000      0.00000000
N2          2      7           0.00000000      0.00000000      1.32280829
[Charge] (Mulliken)
  0.999999999998595     
   1.00000000000140     
[GTO] (AU)
   1
   s  14
  7.476171500E+04  1.182599996E-04
  1.112365400E+04  5.172899983E-04
  2.512685700E+03  2.266659992E-03
  7.037772900E+02  9.145289970E-03
  2.254787900E+02  3.239342989E-02
  7.961581000E+01  9.770792967E-02
  3.023728300E+01  2.317036792E-01
  1.226362200E+01  3.768898887E-01
  5.265086000E+00  3.177420689E-01
  2.333471000E+00  8.211308973E-02
  9.018560000E-01  3.312089989E-03
  3.583360000E-01  3.720819988E-03
  1.410930000E-01  3.165419989E-03
  4.938300000E-02  4.595799985E-04
   s  14
  7.476171500E+04 -2.707000010E-05
  1.112365400E+04 -1.183700004E-04
  2.512685700E+03 -5.203800020E-04
  7.037772900E+02 -2.102930008E-03
  2.254787900E+02 -7.568200028E-03
  7.961581000E+01 -2.346767009E-02
  3.023728300E+01 -6.042901023E-02
  1.226362200E+01 -1.170549104E-01
  5.265086000E+00 -1.555321506E-01
  2.333471000E+00 -2.468935009E-02
  9.018560000E-01  3.625054514E-01
  3.583360000E-01  5.550845021E-01
  1.410930000E-01  2.148376908E-01
  4.938300000E-02  8.983850034E-03
   p   9
  1.266665700E+02  1.233630000E-03
  2.983738900E+01  9.493409996E-03
  9.394038000E+00  4.293961998E-02
  3.405104000E+00  1.362925399E-01
  1.350000000E+00  2.921362499E-01
  5.576960000E-01  3.887887598E-01
  2.324490000E-01  2.946801399E-01
  9.426400000E-02  8.012875997E-02
  3.299200000E-02  5.405199998E-04
 
   2
   s  14
  7.476171500E+04  1.182599996E-04
  1.112365400E+04  5.172899983E-04
  2.512685700E+03  2.266659992E-03
  7.037772900E+02  9.145289970E-03
  2.254787900E+02  3.239342989E-02
  7.961581000E+01  9.770792967E-02
  3.023728300E+01  2.317036792E-01
  1.226362200E+01  3.768898887E-01
  5.265086000E+00  3.177420689E-01
  2.333471000E+00  8.211308973E-02
  9.018560000E-01  3.312089989E-03
  3.583360000E-01  3.720819988E-03
  1.410930000E-01  3.165419989E-03
  4.938300000E-02  4.595799985E-04
   s  14
  7.476171500E+04 -2.707000010E-05
  1.112365400E+04 -1.183700004E-04
  2.512685700E+03 -5.203800020E-04
  7.037772900E+02 -2.102930008E-03
  2.254787900E+02 -7.568200028E-03
  7.961581000E+01 -2.346767009E-02
  3.023728300E+01 -6.042901023E-02
  1.226362200E+01 -1.170549104E-01
  5.265086000E+00 -1.555321506E-01
  2.333471000E+00 -2.468935009E-02
  9.018560000E-01  3.625054514E-01
  3.583360000E-01  5.550845021E-01
  1.410930000E-01  2.148376908E-01
  4.938300000E-02  8.983850034E-03
   p   9
  1.266665700E+02  1.233630000E-03
  2.983738900E+01  9.493409996E-03
  9.394038000E+00  4.293961998E-02
  3.405104000E+00  1.362925399E-01
  1.350000000E+00  2.921362499E-01
  5.576960000E-01  3.887887598E-01
  2.324490000E-01  2.946801399E-01
  9.426400000E-02  8.012875997E-02
  3.299200000E-02  5.405199998E-04
 
[MO]
Sym=     1a  
Ene=   -17.6770
Spin= Alpha
Occup=    2.00000
   1         0.70258074
   2        -0.00589671
   3         0.00000000
   4         0.00000000
   5         0.00956526
   6         0.70258074
   7        -0.00589671
   8         0.00000000
   9        -0.00000000
  10        -0.00956526
Sym=     2a  
Ene=   -17.5870
Spin= Alpha
Occup=    2.00000
   1        -0.71347677
   2        -0.00787011
   3         0.00000000
   4         0.00000000
   5        -0.00867526
   6         0.71347677
   7         0.00787011
   8         0.00000000
   9         0.00000000
  10        -0.00867526
Sym=     3a  
Ene=    -3.0606
Spin= Alpha
Occup=    2.00000
   1         0.14948328
   2        -0.32337477
   3        -0.00000000
   4         0.00000000
   5        -0.46277678
   6         0.14948328
   7        -0.32337477
   8        -0.00000000
   9        -0.00000000
  10         0.46277678
Sym=     4a  
Ene=    -2.0654
Spin= Alpha
Occup=    2.00000
   1        -0.00000000
   2        -0.00000000
   3        -0.47766364
   4         0.29676287
   5         0.00000000
   6        -0.00000000
   7        -0.00000000
   8        -0.47766364
   9         0.29676287
  10        -0.00000000
Sym=     5a  
Ene=    -2.0654
Spin= Alpha
Occup=    2.00000
   1         0.00000000
   2         0.00000000
   3         0.29676287
   4         0.47766364
   5        -0.00000000
   6        -0.00000000
   7         0.00000000
   8         0.29676287
   9         0.47766364
  10         0.00000000
Sym=     6a  
Ene=    -1.6083
Spin= Alpha
Occup=    1.15214
   1         0.07948300
   2         0.49027126
   3        -0.00000000
   4        -0.00000000
   5        -0.65184505
   6         0.07948300
   7         0.49027126
   8        -0.00000000
   9        -0.00000000
  10         0.65184505
Sym=     7a  
Ene=    -0.0086
Spin= Alpha
Occup=    0.84786
   1        -0.00696080
   2        -0.60139993
   3         0.00000000
   4        -0.00000000
   5         0.39325808
   6         0.00696080
   7         0.60139993
   8        -0.00000000
   9         0.00000000
  10         0.39325808
Sym=     8a  
Ene=    -0.6828
Spin= Alpha
Occup=    0.00000
   1        -0.00000000
   2        -0.00000000
   3        -1.07448272
   4         0.19788184
   5        -0.00000000
   6         0.00000000
   7         0.00000000
   8         1.07448272
   9        -0.19788184
  10         0.00000000
Sym=     9a  
Ene=    -0.6828
Spin= Alpha
Occup=    0.00000
   1         0.00000000
   2         0.00000000
   3        -0.19788184
   4        -1.07448272
   5         0.00000000
   6        -0.00000000
   7        -0.00000000
   8         0.19788184
   9         1.07448272
  10         0.00000000
Sym=    10a  
Ene=     1.7621
Spin= Alpha
Occup=    0.00000
   1         1.06919046
   2         4.00559344
   3        -0.00000000
   4         0.00000000
   5         2.13555809
   6        -1.06919046
   7        -4.00559344
   8         0.00000000
   9        -0.00000000
  10         2.13555809
