[Molden Format]
[N_Atoms]
                     2
[Atoms] (AU)
N1          1      7           0.00000000      0.00000000      0.00000000
N2          2      7           0.00000000      0.00000000      1.32280829
[Charge] (Mulliken)
 -8.339995360984176E-013
  8.268941087408166E-013
[GTO] (AU)
   1
   s  14
  7.476171500E+04  1.182599996E-04
  1.112365400E+04  5.172899983E-04
  2.512685700E+03  2.266659992E-03
  7.037772900E+02  9.145289970E-03
  2.254787900E+02  3.239342989E-02
  7.961581000E+01  9.770792967E-02
  3.023728300E+01  2.317036792E-01
  1.226362200E+01  3.768898887E-01
  5.265086000E+00  3.177420689E-01
  2.333471000E+00  8.211308973E-02
  9.018560000E-01  3.312089989E-03
  3.583360000E-01  3.720819988E-03
  1.410930000E-01  3.165419989E-03
  4.938300000E-02  4.595799985E-04
   s  14
  7.476171500E+04 -2.707000010E-05
  1.112365400E+04 -1.183700004E-04
  2.512685700E+03 -5.203800020E-04
  7.037772900E+02 -2.102930008E-03
  2.254787900E+02 -7.568200028E-03
  7.961581000E+01 -2.346767009E-02
  3.023728300E+01 -6.042901023E-02
  1.226362200E+01 -1.170549104E-01
  5.265086000E+00 -1.555321506E-01
  2.333471000E+00 -2.468935009E-02
  9.018560000E-01  3.625054514E-01
  3.583360000E-01  5.550845021E-01
  1.410930000E-01  2.148376908E-01
  4.938300000E-02  8.983850034E-03
   p   9
  1.266665700E+02  1.233630000E-03
  2.983738900E+01  9.493409996E-03
  9.394038000E+00  4.293961998E-02
  3.405104000E+00  1.362925399E-01
  1.350000000E+00  2.921362499E-01
  5.576960000E-01  3.887887598E-01
  2.324490000E-01  2.946801399E-01
  9.426400000E-02  8.012875997E-02
  3.299200000E-02  5.405199998E-04
 
   2
   s  14
  7.476171500E+04  1.182599996E-04
  1.112365400E+04  5.172899983E-04
  2.512685700E+03  2.266659992E-03
  7.037772900E+02  9.145289970E-03
  2.254787900E+02  3.239342989E-02
  7.961581000E+01  9.770792967E-02
  3.023728300E+01  2.317036792E-01
  1.226362200E+01  3.768898887E-01
  5.265086000E+00  3.177420689E-01
  2.333471000E+00  8.211308973E-02
  9.018560000E-01  3.312089989E-03
  3.583360000E-01  3.720819988E-03
  1.410930000E-01  3.165419989E-03
  4.938300000E-02  4.595799985E-04
   s  14
  7.476171500E+04 -2.707000010E-05
  1.112365400E+04 -1.183700004E-04
  2.512685700E+03 -5.203800020E-04
  7.037772900E+02 -2.102930008E-03
  2.254787900E+02 -7.568200028E-03
  7.961581000E+01 -2.346767009E-02
  3.023728300E+01 -6.042901023E-02
  1.226362200E+01 -1.170549104E-01
  5.265086000E+00 -1.555321506E-01
  2.333471000E+00 -2.468935009E-02
  9.018560000E-01  3.625054514E-01
  3.583360000E-01  5.550845021E-01
  1.410930000E-01  2.148376908E-01
  4.938300000E-02  8.983850034E-03
   p   9
  1.266665700E+02  1.233630000E-03
  2.983738900E+01  9.493409996E-03
  9.394038000E+00  4.293961998E-02
  3.405104000E+00  1.362925399E-01
  1.350000000E+00  2.921362499E-01
  5.576960000E-01  3.887887598E-01
  2.324490000E-01  2.946801399E-01
  9.426400000E-02  8.012875997E-02
  3.299200000E-02  5.405199998E-04
 
[MO]
Sym=     1a  
Ene=   -16.2380
Spin= Alpha
Occup=    1.00000
   1         0.70223505
   2        -0.00490016
   3         0.00000000
   4         0.00000000
   5         0.01047311
   6         0.70223505
   7        -0.00490016
   8         0.00000000
   9         0.00000000
  10        -0.01047311
Sym=     1a  
Ene=   -16.2380
Spin= Beta
Occup=    1.00000
   1         0.70223505
   2        -0.00490016
   3         0.00000000
   4         0.00000000
   5         0.01047311
   6         0.70223505
   7        -0.00490016
   8         0.00000000
   9         0.00000000
  10        -0.01047311
Sym=     2a  
Ene=   -16.1460
Spin= Alpha
Occup=    1.00000
   1        -0.71526737
   2        -0.01532468
   3         0.00000000
   4         0.00000000
   5        -0.01173092
   6         0.71526737
   7         0.01532468
   8         0.00000000
   9        -0.00000000
  10        -0.01173092
Sym=     2a  
Ene=   -16.1460
Spin= Beta
Occup=    1.00000
   1        -0.71526737
   2        -0.01532468
   3         0.00000000
   4         0.00000000
   5        -0.01173092
   6         0.71526737
   7         0.01532468
   8         0.00000000
   9        -0.00000000
  10        -0.01173092
Sym=     3a  
Ene=    -1.9254
Spin= Alpha
Occup=    1.00000
   1        -0.14562238
   2         0.35535549
   3        -0.00000000
   4        -0.00000000
   5         0.41826307
   6        -0.14562238
   7         0.35535549
   8         0.00000000
   9        -0.00000000
  10        -0.41826307
Sym=     3a  
Ene=    -1.9254
Spin= Beta
Occup=    1.00000
   1        -0.14562238
   2         0.35535549
   3        -0.00000000
   4        -0.00000000
   5         0.41826307
   6        -0.14562238
   7         0.35535549
   8         0.00000000
   9        -0.00000000
  10        -0.41826307
Sym=     4a  
Ene=    -1.0306
Spin= Alpha
Occup=    1.00000
   1        -0.00000000
   2         0.00000000
   3         0.49490840
   4        -0.26701391
   5        -0.00000000
   6        -0.00000000
   7        -0.00000000
   8         0.49490840
   9        -0.26701391
  10        -0.00000000
Sym=     4a  
Ene=    -1.0306
Spin= Beta
Occup=    1.00000
   1        -0.00000000
   2         0.00000000
   3         0.49490840
   4        -0.26701391
   5        -0.00000000
   6        -0.00000000
   7        -0.00000000
   8         0.49490840
   9        -0.26701391
  10        -0.00000000
Sym=     5a  
Ene=    -1.0306
Spin= Alpha
Occup=    1.00000
   1         0.00000000
   2         0.00000000
   3         0.26701391
   4         0.49490840
   5        -0.00000000
   6         0.00000000
   7        -0.00000000
   8         0.26701391
   9         0.49490840
  10        -0.00000000
Sym=     5a  
Ene=    -1.0306
Spin= Beta
Occup=    1.00000
   1         0.00000000
   2         0.00000000
   3         0.26701391
   4         0.49490840
   5        -0.00000000
   6         0.00000000
   7        -0.00000000
   8         0.26701391
   9         0.49490840
  10        -0.00000000
Sym=     6a  
Ene=    -0.7972
Spin= Alpha
Occup=    1.00000
   1         0.08912104
   2         0.46762206
   3         0.00000000
   4        -0.00000000
   5        -0.68125041
   6         0.08912104
   7         0.46762206
   8        -0.00000000
   9        -0.00000000
  10         0.68125041
Sym=     6a  
Ene=    -0.7972
Spin= Beta
Occup=    1.00000
   1         0.08912104
   2         0.46762206
   3         0.00000000
   4        -0.00000000
   5        -0.68125041
   6         0.08912104
   7         0.46762206
   8        -0.00000000
   9        -0.00000000
  10         0.68125041
Sym=     7a  
Ene=    -0.7826
Spin= Alpha
Occup=    1.00000
   1        -0.01615986
   2        -0.63930838
   3         0.00000000
   4         0.00000000
   5         0.37302062
   6         0.01615986
   7         0.63930838
   8         0.00000000
   9         0.00000000
  10         0.37302062
Sym=     7a  
Ene=    -0.7826
Spin= Beta
Occup=    1.00000
   1        -0.01615986
   2        -0.63930838
   3         0.00000000
   4         0.00000000
   5         0.37302062
   6         0.01615986
   7         0.63930838
   8         0.00000000
   9         0.00000000
  10         0.37302062
Sym=     8a  
Ene=     0.4308
Spin= Alpha
Occup=    0.00000
   1         0.00000000
   2        -0.00000000
   3        -1.07852719
   4         0.17449767
   5        -0.00000000
   6         0.00000000
   7         0.00000000
   8         1.07852719
   9        -0.17449767
  10         0.00000000
Sym=     8a  
Ene=     0.4308
Spin= Beta
Occup=    0.00000
   1         0.00000000
   2        -0.00000000
   3        -1.07852719
   4         0.17449767
   5        -0.00000000
   6         0.00000000
   7         0.00000000
   8         1.07852719
   9        -0.17449767
  10         0.00000000
Sym=     9a  
Ene=     0.4308
Spin= Alpha
Occup=    0.00000
   1         0.00000000
   2         0.00000000
   3        -0.17449767
   4        -1.07852719
   5        -0.00000000
   6        -0.00000000
   7        -0.00000000
   8         0.17449767
   9         1.07852719
  10         0.00000000
Sym=     9a  
Ene=     0.4308
Spin= Beta
Occup=    0.00000
   1         0.00000000
   2         0.00000000
   3        -0.17449767
   4        -1.07852719
   5        -0.00000000
   6        -0.00000000
   7        -0.00000000
   8         0.17449767
   9         1.07852719
  10         0.00000000
Sym=    10a  
Ene=     2.9341
Spin= Alpha
Occup=    0.00000
   1         1.06789383
   2         3.99969656
   3        -0.00000000
   4         0.00000000
   5         2.13917123
   6        -1.06789383
   7        -3.99969656
   8         0.00000000
   9        -0.00000000
  10         2.13917123
Sym=    10a  
Ene=     2.9341
Spin= Beta
Occup=    0.00000
   1         1.06789383
   2         3.99969656
   3        -0.00000000
   4         0.00000000
   5         2.13917123
   6        -1.06789383
   7        -3.99969656
   8         0.00000000
   9        -0.00000000
  10         2.13917123
