[Molden Format]
[N_Atoms]
                     2
[Atoms] (AU)
BE1         1      4           0.00000000      0.00000000      0.00000000
LI2         2      3           0.00000000      0.00000000      1.32280829
[Charge] (Mulliken)
 -0.232814055567091     
  0.232814055567069     
[GTO] (AU)
   1
   s  14
  2.262859900E+04  8.443999941E-05
  3.372318100E+03  4.601499968E-04
  7.603504000E+02  2.285389984E-03
  2.117404800E+02  9.648129932E-03
  6.722346800E+01  3.494469975E-02
  2.337217700E+01  1.061099893E-01
  8.721373000E+00  2.458240383E-01
  3.468091000E+00  3.862428773E-01
  1.452144000E+00  3.105526078E-01
  6.086150000E-01  6.415933955E-02
  2.576860000E-01 -2.265049984E-03
  1.041760000E-01 -5.217499963E-04
  4.242700000E-02 -8.757499938E-04
  1.484900000E-02  1.242199991E-04
   s  14
  2.262859900E+04 -1.586999994E-05
  3.372318100E+03 -8.656999968E-05
  7.603504000E+02 -4.302199984E-04
  2.117404800E+02 -1.825079993E-03
  6.722346800E+01 -6.682749976E-03
  2.337217700E+01 -2.095119992E-02
  8.721373000E+00 -5.200308981E-02
  3.468091000E+00 -9.849176964E-02
  1.452144000E+00 -1.355800695E-01
  6.086150000E-01 -6.429875976E-02
  2.576860000E-01  3.125414989E-01
  1.041760000E-01  6.270468577E-01
  4.242700000E-02  2.110231492E-01
  1.484900000E-02 -4.104669985E-03
   p   9
  3.371018400E+01  1.069960000E-03
  8.057649500E+00  6.828550001E-03
  2.836471400E+00  2.119065000E-02
  1.099965700E+00  5.843696001E-02
  4.433964000E-01  2.020920800E-01
  1.822264000E-01  4.582953101E-01
  7.572410000E-02  3.691239601E-01
  3.168540000E-02  6.611471001E-02
  1.108990000E-02  1.405160000E-03
 
   2
   s  14
  9.497934400E+03  9.668999974E-05
  1.416811200E+03  6.087099984E-04
  3.214599400E+02  3.101519992E-03
  9.112416300E+01  1.266904997E-02
  2.999989100E+01  4.248012989E-02
  1.101763100E+01  1.150183297E-01
  4.372801000E+00  2.398650094E-01
  1.831256000E+00  3.584300090E-01
  8.022610000E-01  3.048527792E-01
  3.626480000E-01  8.824261976E-02
  1.139950000E-01 -8.445899977E-04
  5.123700000E-02 -7.943959979E-03
  2.246800000E-02 -3.764419990E-03
  7.860000000E-03 -8.868999976E-05
   s  14
  9.497934400E+03 -1.244999993E-05
  1.416811200E+03 -7.838999954E-05
  3.214599400E+02 -4.007099976E-04
  9.112416300E+01 -1.645249990E-03
  2.999989100E+01 -5.634599967E-03
  1.101763100E+01 -1.590780991E-02
  4.372801000E+00 -3.612581979E-02
  1.831256000E+00 -6.459927962E-02
  8.022610000E-01 -1.008321794E-01
  3.626480000E-01 -9.757613942E-02
  1.139950000E-01  2.301215886E-01
  5.123700000E-02  6.102389764E-01
  2.246800000E-02  2.849406083E-01
  7.860000000E-03  4.026899976E-03
   p   9
  1.311950400E+01  1.524940000E-03
  3.077424200E+00  8.314830000E-03
  1.098800500E+00  1.933203000E-02
  4.357784000E-01  4.934293000E-02
  1.802432000E-01  1.623554000E-01
  7.613330000E-02  3.847505400E-01
  3.254650000E-02  4.336100400E-01
  1.401820000E-02  1.287005900E-01
  4.906400000E-03 -1.018520000E-03
 
[MO]
Sym=     1a  
Ene=    -5.2689
Spin= Alpha
Occup=    1.00000
   1         0.96768754
   2        -0.03977922
   3        -0.00000000
   4         0.00000000
   5         0.00225481
   6         0.11981893
   7         0.02639180
   8        -0.00000000
   9         0.00000000
  10        -0.01539177
Sym=     1a  
Ene=    -5.2648
Spin= Beta
Occup=    1.00000
   1         0.96757988
   2        -0.04007749
   3        -0.00000000
   4         0.00000000
   5         0.00254385
   6         0.12001292
   7         0.02645276
   8        -0.00000000
   9        -0.00000000
  10        -0.01567544
Sym=     2a  
Ene=    -3.0735
Spin= Alpha
Occup=    1.00000
   1        -0.30559463
   2        -0.08351049
   3        -0.00000000
   4        -0.00000000
   5         0.00706892
   6         1.03468397
   7         0.05727745
   8         0.00000000
   9         0.00000000
  10        -0.03186625
Sym=     2a  
Ene=    -3.0666
Spin= Beta
Occup=    1.00000
   1        -0.30572067
   2        -0.08281724
   3         0.00000000
   4        -0.00000000
   5         0.00791055
   6         1.03412250
   7         0.05628016
   8         0.00000000
   9        -0.00000000
  10        -0.03257878
Sym=     3a  
Ene=    -0.4264
Spin= Alpha
Occup=    1.00000
   1         0.06797119
   2         1.05806920
   3         0.00000000
   4        -0.00000000
   5        -0.22468040
   6        -0.20594411
   7         0.00315960
   8        -0.00000000
   9         0.00000000
  10         0.15063838
Sym=     3a  
Ene=    -0.3852
Spin= Beta
Occup=    1.00000
   1         0.05073083
   2         1.01471787
   3        -0.00000000
   4         0.00000000
   5        -0.14419791
   6        -0.22220708
   7         0.01528369
   8         0.00000000
   9        -0.00000000
  10         0.02134761
Sym=     4a  
Ene=    -0.2141
Spin= Alpha
Occup=    1.00000
   1         0.03067127
   2        -0.30390527
   3        -0.00000000
   4         0.00000000
   5         0.32374301
   6        -0.04481445
   7         0.66121362
   8        -0.00000000
   9         0.00000000
  10         0.55063978
Sym=     4a  
Ene=    -0.0802
Spin= Beta
Occup=    0.00000
   1         0.00000000
   2         0.00000000
   3         0.69506505
   4         0.45345344
   5        -0.00000000
   6         0.00000000
   7        -0.00000000
   8         0.17398053
   9         0.11350315
  10        -0.00000000
Sym=     5a  
Ene=    -0.0900
Spin= Alpha
Occup=    0.00000
   1        -0.00000000
   2         0.00000000
   3         0.54502324
   4         0.55637372
   5        -0.00000000
   6         0.00000000
   7        -0.00000000
   8         0.18632036
   9         0.19020060
  10        -0.00000000
Sym=     5a  
Ene=    -0.0802
Spin= Beta
Occup=    0.00000
   1         0.00000000
   2         0.00000000
   3        -0.45345344
   4         0.69506505
   5        -0.00000000
   6         0.00000000
   7        -0.00000000
   8        -0.11350315
   9         0.17398053
  10        -0.00000000
Sym=     6a  
Ene=    -0.0900
Spin= Alpha
Occup=    0.00000
   1        -0.00000000
   2         0.00000000
   3        -0.55637372
   4         0.54502324
   5        -0.00000000
   6         0.00000000
   7        -0.00000000
   8        -0.19020060
   9         0.18632036
  10        -0.00000000
Sym=     6a  
Ene=     0.0383
Spin= Beta
Occup=    0.00000
   1         0.04283621
   2        -0.22256271
   3        -0.00000000
   4         0.00000000
   5         0.24058803
   6        -0.03612945
   7         0.63985560
   8         0.00000000
   9        -0.00000000
  10         0.62760148
Sym=     7a  
Ene=     0.1281
Spin= Alpha
Occup=    0.00000
   1         0.00000000
   2         0.00000000
   3        -0.08645006
   4        -1.38400019
   5        -0.00000000
   6        -0.00000000
   7        -0.00000000
   8         0.09775322
   9         1.56495526
  10         0.00000000
Sym=     7a  
Ene=     0.1507
Spin= Beta
Occup=    0.00000
   1        -0.00000000
   2        -0.00000000
   3        -0.00756467
   4        -1.35673856
   5         0.00000000
   6         0.00000000
   7         0.00000000
   8         0.00879166
   9         1.57680142
  10        -0.00000000
Sym=     8a  
Ene=     0.1281
Spin= Alpha
Occup=    0.00000
   1        -0.00000000
   2        -0.00000000
   3        -1.38400019
   4         0.08645006
   5         0.00000000
   6         0.00000000
   7         0.00000000
   8         1.56495526
   9        -0.09775322
  10        -0.00000000
Sym=     8a  
Ene=     0.1507
Spin= Beta
Occup=    0.00000
   1         0.00000000
   2         0.00000000
   3        -1.35673856
   4         0.00756467
   5        -0.00000000
   6        -0.00000000
   7        -0.00000000
   8         1.57680142
   9        -0.00879166
  10         0.00000000
Sym=     9a  
Ene=     0.1609
Spin= Alpha
Occup=    0.00000
   1         0.46177256
   2         1.98629234
   3        -0.00000000
   4         0.00000000
   5        -0.80501351
   6        -0.32095024
   7        -1.81045756
   8         0.00000000
   9        -0.00000000
  10         1.58565080
Sym=     9a  
Ene=     0.1800
Spin= Beta
Occup=    0.00000
   1         0.48093057
   2         2.14921459
   3         0.00000000
   4        -0.00000000
   5        -0.72818993
   6        -0.39889080
   7        -1.93554687
   8        -0.00000000
   9         0.00000000
  10         1.53687350
Sym=    10a  
Ene=     0.3662
Spin= Alpha
Occup=    0.00000
   1        -0.24760308
   2        -1.40453519
   3        -0.00000000
   4         0.00000000
   5        -1.25164469
   6         0.92188848
   7         1.42847810
   8         0.00000000
   9        -0.00000000
  10         0.36776058
Sym=    10a  
Ene=     0.3939
Spin= Beta
Occup=    0.00000
   1        -0.21102255
   2        -1.19654788
   3         0.00000000
   4        -0.00000000
   5        -1.32702742
   6         0.88804763
   7         1.26476846
   8        -0.00000000
   9         0.00000000
  10         0.46803651
