   This run of MOLCAS is using the pymolcas driver

                             OPE
                             OPE          NMOL  CASOP  ENMOLC A   SO
                 OPE        NMOLC        AS  OP EN  MO LC     AS  OP
                OPENM       OL CA        SO  PE NM  OL CA     SOP EN
                OP EN      MO   LC       AS  OP ENMOL  CASO   PENMOL
                OP  EN     MO   LC       AS  OP EN     MO     LC ASO
               OP   E  NMOL  C  AS       OP  EN MO     LC     AS  OP
               OP  E   NMO   LC AS        OPEN  MO     LCASOP EN   M
               O  PEN   MO  LCA  SO
            OPE   NMO   L   CAS    OP
        OPENMOL  CASOP     ENMOL   CASOPE
     OPENMOLCA   SOPENMOLCASOPEN   MOLCASOPE
    OPENMOLCAS   OP           EN   MOL    CAS
    OPENMOLCAS       OP  ENM        O     LCA
    OPENMOLCAS    OPEN  MOLCASO     P  E  NMO
    OPENMOLCAS     OP               E  N  MOL
    OPENMOLCA   SO           PENM   O  L  CAS    OPEN    MO    LCAS
    OPENMOLCA   SOP           ENM   O  L  CAS   OP  EN  MOLC  AS   O
    OPENMOLCA   SOPE           NM      O  LCA   S      OP  EN MO
    OPENMOLC                AS         O  PEN   M      OL  CA  SOPE
    OPENMO        LCASOPE  NMOL        C  ASO   P      ENMOLC     AS
    OPE     NMO      LCA  SO     P     E   NM   OL  CA SO  PE N   MO
          OPENMOLCA            SOPE   NMO        LCAS  O    P  ENMO
     OPENMOLCASOPENMOLCASOPENMOLCASOPENMOLCA
        OPENMOLCASOPENMOLCASOPENMOLCASOPE
            OPENMOLCASOPENMOLCASOPENM
               OPENMOLCASOPENMOLCA        version: ea724fe96-dirty
                   OPENMOLCASO
                       OPE                tag:

 OpenMolcas is free software; you can redistribute it and/or modify it
 under the terms of the GNU Lesser General Public License version 2.1.
 OpenMolcas is distributed in the hope that it will be useful, but it
 is provided "as is" and without any express or implied warranties.
 For more details see the full text of the license in the file
 LICENSE or in <http://www.gnu.org/licenses/>.

                 Copyright (C) The OpenMolcas Authors
           For the author list and the recommended citation,
                   consult the file CONTRIBUTORS.md

           *************************************************
           * pymolcas version py2.28                       *
           *   build c4a6d18ded8cb6cad61d2372a9abd97c      *
           *   (after the EMIL interpreter by V. Veryazov) *
           *************************************************

configuration info
------------------
C Compiler ID: Intel
C flags: -std=gnu99
Fortran Compiler ID: Intel
Fortran flags: -fpp -i8 -r8 -heap-arrays
Definitions: _MOLCAS_;_I8_;_LINUX_
Parallel: OFF (GA=OFF)


   -------------------------------------------------------------------------------
  |
  |              Project: 3.48
  |       Submitted from: /home/grierjones/DDCASPT2/iron_oxo_DDCASPT2/cluster/3.48
  |         Scratch area: /tmp/3.48
  |      Save outputs to: /home/grierjones/DDCASPT2/iron_oxo_DDCASPT2/cluster/3.48
  |               Molcas: /home/grierjones/Test/build
  |
  | Scratch area is empty
  |
  |       MOLCAS_DRIVER = /usr/local/pymolcas
  | MOLCAS_KEEP_WORKDIR = NO
  |  MOLCAS_NEW_WORKDIR = YES
  |       MOLCAS_NPROCS = 1
  |        MOLCAS_PRINT = NORMAL
  |       MOLCAS_SOURCE = /home/grierjones/Test/build
  |    MOLCAS_STRUCTURE = 0
  |
   -------------------------------------------------------------------------------

++ ---------   Input file   ---------

&GATEWAY
coord=3.48.xyz
Basis = ANO-RCC-VDZP
Group = nosymm
Expert
End of Input

&SEWARD
End of Input

&SCF
UHF
charge
2
spin
5
FileOrb
/home/grierjones/DDCASPT2/iron_oxo_DDCASPT2/cluster/3.46/3.46.UhfOrb

>>> COPY $WorkDir/3.48.scf.h5 $CurrDir/

&RASSCF
Title= RASSCF
FileOrb
/home/grierjones/DDCASPT2/iron_oxo_DDCASPT2/cluster/3.46/3.46.RasOrb
NACTEL
10 0 0
RAS2
14
Symmetry
1
Spin
5
charge
2
orblisting
all
ITERation
300 200

>>> COPY $WorkDir/3.48.rasscf.h5 $CurrDir/

>>> COPY $WorkDir/GMJ_Fock_MO.csv $CurrDir/3.48.GMJ_Fock_MO.csv

>>> COPY $WorkDir/GMJ_PT2_Fock_MO.csv $CurrDir/3.48.GMJ_PT2_Fock_MO.csv

&MOTRA
Frozen=0
LUMORB

>>> COPY $WorkDir/GMJ_one_int_indx.csv $CurrDir/3.48.GMJ_one_int_indx.csv

>>> COPY $WorkDir/GMJ_one_int.csv $CurrDir/3.48.GMJ_one_int.csv

>>> COPY $WorkDir/GMJ_two_int_indx.csv $CurrDir/3.48.GMJ_two_int_indx.csv

>>> COPY $WorkDir/GMJ_two_int.csv $CurrDir/3.48.GMJ_two_int.csv

&CASPT2
Frozen
0
MAXITER
50

>>> FOREACH i IN (B,E,F,G,H)

  >>> FOREACH j IN (P,M)

    >>> IF (-FILE GMJ_e2_${i}_${j}.csv)

      >>> COPY $WorkDir/GMJ_RHS_${i}_${j}.csv $CurrDir/GMJ_RHS_${i}_${j}.csv

      >>> COPY $WorkDir/GMJ_IVECW_${i}_${j}.csv $CurrDir/GMJ_IVECW_${i}_${j}.csv

      >>> COPY $WorkDir/GMJ_IVECX_${i}_${j}.csv $CurrDir/GMJ_IVECX_${i}_${j}.csv

      >>> COPY $WorkDir/GMJ_IVECC2_${i}_${j}.csv $CurrDir/GMJ_IVECC2_${i}_${j}.csv

      >>> COPY $WorkDir/GMJ_e2_${i}_${j}.csv $CurrDir/GMJ_e2_${i}_${j}.csv

    >>> END IF

  >>> END FOREACH

>>> END FOREACH

>>> FOREACH i IN (A,C,D)

  >>> IF (-FILE GMJ_e2_$i.csv)

    >>> COPY $WorkDir/GMJ_RHS_$i.csv $CurrDir/GMJ_RHS_$i.csv

    >>> COPY $WorkDir/GMJ_IVECW_$i.csv $CurrDir/GMJ_IVECW_$i.csv

    >>> COPY $WorkDir/GMJ_IVECX_$i.csv $CurrDir/GMJ_IVECX_$i.csv

    >>> COPY $WorkDir/GMJ_IVECC2_$i.csv $CurrDir/GMJ_IVECC2_$i.csv

    >>> COPY $WorkDir/GMJ_e2_$i.csv $CurrDir/GMJ_e2_$i.csv

  >>> END IF

>>> END FOREACH

-- ----------------------------------

--- Start Module: gateway at Tue Dec 24 13:51:59 2024 ---
 
()()()()()()()()()()()()()()()()()()()()()()()()()()()()()()()()()()()()()()()()()()()()()()()()()()

                                              &GATEWAY

                                   only a single process is used
                       available to each process: 2.0 GB of memory, 1 thread?
()()()()()()()()()()()()()()()()()()()()()()()()()()()()()()()()()()()()()()()()()()()()()()()()()()
 
 ###############################################################################
 ###############################################################################
 ###                                                                         ###
 ###                                                                         ###
 ###                                                                         ###
 ###    WARNING: EXPERT option is ON!                                        ###
 ###                                                                         ###
 ###                                                                         ###
 ###############################################################################
 ###############################################################################
 
++    Symmetry information:
      ---------------------
 
                    Character Table for C1 
 
                             E  
                    a        1  x, y, xy, Rz, z, xz, Ry, yz, Rx, I
--
 
 
++    Basis set information:
      ----------------------
 
 
      Basis set label: O.ANO-RCC...3S2P1D.
 
      Electronic valence basis set:
      ------------------
      Associated Effective Charge   8.000000 au
      Associated Actual Charge      8.000000 au
      Nuclear Model: Point charge
 
      Shell  nPrim  nBasis  Cartesian Spherical Contaminant
         s      14       3        X                  
         p       9       2        X                  
         d       4       1                 X         
 
 
      Basis set label: FE.ANO-RCC...5S4P2D1F.
 
      Electronic valence basis set:
      ------------------
      Associated Effective Charge  26.000000 au
      Associated Actual Charge     26.000000 au
      Nuclear Model: Point charge
 
      Shell  nPrim  nBasis  Cartesian Spherical Contaminant
         s      21       5        X                  
         p      15       4        X                  
         d      10       2                 X         
         f       6       1                 X         
--
 
 
++    Molecular structure info:
      -------------------------
 
                    ************************************************ 
                    **** Cartesian Coordinates / Bohr, Angstrom **** 
                    ************************************************ 
 
     Center  Label                x              y              z                     x              y              z
        1      O1               0.000000       0.000000       4.796654              0.000000       0.000000       2.538280
        2      FE2              0.000000       0.000000      -1.773092              0.000000       0.000000      -0.938280
--
 
 
            Nuclear Potential Energy             31.66027907 au
 
 ###############################################################################
 ###############################################################################
 ###                                                                         ###
 ###                                                                         ###
 ###    There were warnings during the execution                             ###
 ###    Please, check the output with care!                                  ###
 ###                                                                         ###
 ###                                                                         ###
 ###############################################################################
 ###############################################################################
--- Stop Module: gateway at Tue Dec 24 13:51:59 2024 /rc=_RC_ALL_IS_WELL_ ---
*** files: xmldump
    saved to directory /home/grierjones/DDCASPT2/iron_oxo_DDCASPT2/cluster/3.48

--- Start Module: seward at Tue Dec 24 13:51:59 2024 ---
 
()()()()()()()()()()()()()()()()()()()()()()()()()()()()()()()()()()()()()()()()()()()()()()()()()()

                                              &SEWARD

                                   only a single process is used
                       available to each process: 2.0 GB of memory, 1 thread?
()()()()()()()()()()()()()()()()()()()()()()()()()()()()()()()()()()()()()()()()()()()()()()()()()()
 
 ###############################################################################
 ###############################################################################
 ###                                                                         ###
 ###                                                                         ###
 ###                                                                         ###
 ###    WARNING: EXPERT option is ON!                                        ###
 ###                                                                         ###
 ###                                                                         ###
 ###############################################################################
 ###############################################################################
               SEWARD will generate:
                  Multipole Moment integrals up to order  2
                  Kinetic Energy integrals
                  Nuclear Attraction integrals (point charge)
                  One-Electron Hamiltonian integrals
                  Velocity integrals
                  Relativistic Douglas-Kroll-Hess integrals:
                    - Parametrization         : EXP
                    - DKH order of Hamiltonian: 2
                    - DKH order of Properties : 0
                         - multipole moment operators
                         - electric potential operators
                         - contact operators
                  Atomic mean-field integrals
                  Two-Electron Repulsion integrals
 
                   Integrals are discarded if absolute value <: 0.10E-13
                   Integral cutoff threshold is set to       <: 0.10E-15
 
            Nuclear Potential Energy             31.66027907 au
 
 
      Basis set specifications :
      Symmetry species         a  
      Basis functions           48
 
 
  Input file to MOLDEN was generated!
 
 ###############################################################################
 ###############################################################################
 ###                                                                         ###
 ###                                                                         ###
 ###    There were warnings during the execution                             ###
 ###    Please, check the output with care!                                  ###
 ###                                                                         ###
 ###                                                                         ###
 ###############################################################################
 ###############################################################################
--- Stop Module: seward at Tue Dec 24 13:52:00 2024 /rc=_RC_ALL_IS_WELL_ ---
*** files: 3.48.GssOrb 3.48.guessorb.h5 3.48.guessorb.molden xmldump
    saved to directory /home/grierjones/DDCASPT2/iron_oxo_DDCASPT2/cluster/3.48

*** symbolic link created: INPORB -> 3.48.GssOrb
--- Start Module: scf at Tue Dec 24 13:52:00 2024 ---
 
()()()()()()()()()()()()()()()()()()()()()()()()()()()()()()()()()()()()()()()()()()()()()()()()()()

                                                &SCF

                                   only a single process is used
                       available to each process: 2.0 GB of memory, 1 thread?
()()()()()()()()()()()()()()()()()()()()()()()()()()()()()()()()()()()()()()()()()()()()()()()()()()
 
 *** Possible bug in opening file
 *** isFreeUnit resets the unit number
++    Input section:
      --------------
 
      Header of the integral files:
      
       Integrals generated by seward 4.2.0  , Tue Dec 24 13:51:59 2024
 
 
      Cartesian coordinates in Angstrom:
      -----------------------------------------------------
      No.  Label        X            Y            Z        
      -----------------------------------------------------
       1   O1         0.00000000   0.00000000   2.53828000
       2   FE2        0.00000000   0.00000000  -0.93828000
      -----------------------------------------------------
      Nuclear repulsion energy =   31.66027907
--
 
++    Orbital specifications:
      -----------------------
 
      Symmetry species               1
                                     a
      Frozen orbitals                0
      Occupied orbitals alpha       18
      Occupied orbitals beta        14
      Secondary orbitals alpha      30
      Secondary orbitals beta       34
      Deleted orbitals               0
      Total number of orbitals      48
      Number of basis functions     48
--
 
      Molecular charge                           2.000
 
++    Optimization specifications:
      ----------------------------
 
      SCF Algorithm: Conventional USCF
      D(i)-D(i-1) density differences are used
      Number of density matrices in core                5
      Maximum number of NDDO SCF iterations           400
      Maximum number of HF SCF iterations             400
      Threshold for SCF energy change            0.10E-08
      Threshold for density matrix               0.10E-03
      Threshold for Fock matrix                  0.15E-03
      Threshold for linear dependence            0.10E-08
      Threshold at which DIIS is turned on       0.15E+00
      Threshold at which QNR/C2DIIS is turned on 0.75E-01
      Threshold for Norm(delta) (QNR/C2DIIS)     0.20E-04
      DIIS extrapolation of the SCF procedure
      All orbitals punched on: UHFORB
--
 
      Input vectors read from INPORB
      Orbital file label: * UHF orbitals
 
 
++ Convergence information
                               UHF SCF        iterations: Energy and convergence statistics
 
Iter     Tot. SCF        One-elec.       Two-elec.     Energy      Max Dij or  Max Fij      DNorm      TNorm      AccCon     Time
         Energy          Energy          Energy        Change      Delta Norm                                                in Sec.
 
 The total and one-electron energies are shifted by a value of      1000. a.u.
 
   1  -345.210658006  -909.666863545   532.795926465   0.00E+00    0.11E-02*   0.16E-03*    0.80E+01   0.18E+03   None         0.
   2  -345.210658440  -909.670032223   532.799094708  -0.43E-06*   0.71E-03*   0.80E-04     0.27E-02   0.18E+03   EDIIS        0.
   3  -345.210658593  -909.668788674   532.797851007  -0.15E-06*   0.25E-03*   0.18E-03*    0.16E-02   0.18E+03   c2DIIS       0.
   4  -345.210658702  -909.677893320   532.806955544  -0.11E-06*   0.51E-03*   0.12E-03     0.90E-03   0.18E+03   QNRc2DIIS    0.
   5  -345.210658712  -909.666236170   532.795298383  -0.11E-07*   0.26E-03*   0.12E-03     0.71E-03   0.18E+03   QNRc2DIIS    0.
   6  -345.210658755  -909.671884682   532.800946852  -0.42E-07*   0.48E-03*   0.11E-04     0.36E-03   0.18E+03   QNRc2DIIS    0.
   7  -345.210658760  -909.672305620   532.801367785  -0.59E-08*   0.15E-03*   0.43E-05     0.67E-03   0.18E+03   QNRc2DIIS    0.
   8  -345.210658761  -909.672420109   532.801482273  -0.72E-09    0.19E-03*   0.37E-05     0.22E-03   0.18E+03   QNRc2DIIS    0.
   9  -345.210658762  -909.672503278   532.801565441  -0.73E-09    0.49E-04*   0.25E-05     0.27E-03   0.18E+03   QNRc2DIIS    0.
  10  -345.210658762  -909.672529817   532.801591981  -0.11E-09    0.11E-04    0.27E-05     0.69E-04   0.18E+03   QNRc2DIIS    0.
 
       Convergence after 10 Macro Iterations
--
 
 *****************************************************************************************************************************
 *                                                                                                                           *
 *                                             SCF/KS-DFT Program, Final results                                             *
 *                                                                                                                           *
 *                                                                                                                           *
 *                                                                                                                           *
 *                                                       Final Results                                                       *
 *                                                                                                                           *
 *****************************************************************************************************************************
 
::    Total SCF energy                              -1345.2106587620
      One-electron energy                           -1909.6725298174
      Two-electron energy                             532.8015919808
      Nuclear repulsion energy                         31.6602790745
      Kinetic energy (interpolated)                  1399.3866546729
      Virial theorem                                    0.9612858993
      Total spin, S(S+1)                                7.0166337664
      Total spin, S                                     2.1956694468
      Max non-diagonal density matrix element           0.0000058663
      Max non-diagonal Fock matrix element              0.0000008153
 
 
      All orbitals with orbital energies smaller than  E(LUMO)+0.5 are printed
 
++    Molecular orbitals:
      -------------------
 
      Title: UHF orbitals (alpha)

      Molecular orbitals for symmetry species 1: a  
 
          Orbital            1         2         3         4         5         6         7         8         9        10    
          Energy         -263.9354  -32.7129  -27.7961  -27.7961  -27.7661  -21.5398   -4.6268   -3.2040   -3.2040   -3.1323
          Occ. No.          1.0000    1.0000    1.0000    1.0000    1.0000    1.0000    1.0000    1.0000    1.0000    1.0000
 
        1 O1     1s        -0.0000   -0.0000    0.0000   -0.0000   -0.0000    1.0000    0.0000   -0.0000    0.0000   -0.0000
        2 O1     2s        -0.0000   -0.0000    0.0000   -0.0000   -0.0000    0.0003   -0.0000   -0.0000    0.0000   -0.0000
        3 O1     3s        -0.0000   -0.0001    0.0000   -0.0000   -0.0000   -0.0010   -0.0001   -0.0000    0.0000   -0.0001
        4 O1     2px        0.0000    0.0000   -0.0000   -0.0000    0.0000   -0.0000    0.0000    0.0000    0.0000   -0.0000
        5 O1     3px        0.0000    0.0000   -0.0000   -0.0000    0.0000    0.0000    0.0000    0.0000    0.0002    0.0000
        6 O1     2py       -0.0000   -0.0000   -0.0000    0.0000   -0.0000    0.0000   -0.0000    0.0000   -0.0000    0.0000
        7 O1     3py       -0.0000   -0.0000   -0.0000    0.0000   -0.0000   -0.0000   -0.0000    0.0002   -0.0000   -0.0000
        8 O1     2pz       -0.0000    0.0000   -0.0000    0.0000    0.0000   -0.0000    0.0002    0.0000   -0.0000    0.0000
        9 O1     3pz       -0.0000    0.0001   -0.0000    0.0000    0.0000    0.0001    0.0006    0.0000   -0.0000    0.0004
       10 O1     3d2-      -0.0000    0.0000   -0.0000    0.0000    0.0000    0.0000    0.0000   -0.0000    0.0000    0.0000
       11 O1     3d1-       0.0000    0.0000    0.0000   -0.0000    0.0000    0.0000    0.0000   -0.0000    0.0000    0.0000
       12 O1     3d0        0.0000   -0.0000   -0.0000    0.0000   -0.0000   -0.0015   -0.0001   -0.0000    0.0000   -0.0000
       13 O1     3d1+      -0.0000   -0.0000    0.0000    0.0000   -0.0000   -0.0000   -0.0000   -0.0000   -0.0000   -0.0000
       14 O1     3d2+      -0.0000   -0.0000    0.0000    0.0000    0.0000    0.0000   -0.0000    0.0000    0.0000    0.0000
       15 FE2    1s         1.0000    0.0000    0.0000   -0.0000   -0.0000    0.0000   -0.0000    0.0000   -0.0000    0.0000
       16 FE2    2s        -0.0000    1.0000    0.0000   -0.0000   -0.0008    0.0000   -0.0023    0.0000   -0.0000   -0.0000
       17 FE2    3s         0.0000    0.0023   -0.0000    0.0000   -0.0000    0.0000    0.9999    0.0000   -0.0000   -0.0034
       18 FE2    4s        -0.0000   -0.0001   -0.0000    0.0000    0.0000    0.0001    0.0064   -0.0000    0.0000    0.0021
       19 FE2    5s         0.0000    0.0002   -0.0000    0.0000    0.0000    0.0000   -0.0041    0.0000   -0.0000   -0.0010
       20 FE2    2px       -0.0000    0.0000    0.2238    0.9746   -0.0000   -0.0000   -0.0000   -0.0005   -0.0020    0.0000
       21 FE2    3px       -0.0000    0.0000    0.0005    0.0020   -0.0000   -0.0000    0.0000    0.2435    0.9698   -0.0000
       22 FE2    4px       -0.0000   -0.0000   -0.0001   -0.0002    0.0000   -0.0000   -0.0000    0.0006    0.0025   -0.0000
       23 FE2    5px        0.0000    0.0000    0.0001    0.0006   -0.0000   -0.0000    0.0000   -0.0009   -0.0037    0.0000
       24 FE2    2py        0.0000   -0.0000    0.9746   -0.2238    0.0001    0.0000    0.0000   -0.0020    0.0005   -0.0000
       25 FE2    3py        0.0000   -0.0000    0.0020   -0.0005    0.0000    0.0000   -0.0000    0.9698   -0.2435    0.0001
       26 FE2    4py        0.0000    0.0000   -0.0002    0.0001   -0.0000    0.0000    0.0000    0.0025   -0.0006    0.0000
       27 FE2    5py       -0.0000   -0.0000    0.0006   -0.0001    0.0000    0.0000   -0.0000   -0.0037    0.0009   -0.0000
       28 FE2    2pz        0.0000    0.0008   -0.0001    0.0000    1.0000    0.0000    0.0000    0.0000   -0.0000   -0.0016
       29 FE2    3pz       -0.0000    0.0000   -0.0000    0.0000    0.0016    0.0000    0.0035   -0.0001    0.0000    1.0000
       30 FE2    4pz       -0.0000    0.0000    0.0000   -0.0000   -0.0001    0.0001    0.0006   -0.0000    0.0000    0.0064
       31 FE2    5pz       -0.0000    0.0000   -0.0000    0.0000    0.0003    0.0001   -0.0002    0.0000   -0.0000   -0.0058
       32 FE2    3d2-       0.0000    0.0000   -0.0000    0.0000    0.0000    0.0000    0.0000   -0.0000    0.0000    0.0000
       33 FE2    4d2-      -0.0000   -0.0000    0.0000   -0.0000   -0.0000   -0.0000   -0.0000    0.0000   -0.0000   -0.0000
       34 FE2    3d1-      -0.0000   -0.0000    0.0001   -0.0000    0.0000    0.0000   -0.0000    0.0018   -0.0005    0.0000
       35 FE2    4d1-       0.0000    0.0000   -0.0000    0.0000   -0.0000    0.0000    0.0000    0.0001   -0.0000    0.0000
       36 FE2    3d0       -0.0000   -0.0004   -0.0000    0.0000    0.0001    0.0000   -0.0127   -0.0000    0.0000    0.0017
       37 FE2    4d0        0.0000    0.0004    0.0000   -0.0000   -0.0000    0.0001    0.0047   -0.0000    0.0000    0.0010
       38 FE2    3d1+       0.0000    0.0000    0.0000    0.0001   -0.0000   -0.0000    0.0000    0.0005    0.0018   -0.0000
       39 FE2    4d1+      -0.0000   -0.0000   -0.0000   -0.0000    0.0000   -0.0000   -0.0000    0.0000    0.0001   -0.0000
       40 FE2    3d2+      -0.0000   -0.0000    0.0000    0.0000   -0.0000   -0.0000   -0.0000    0.0000    0.0000   -0.0000
       41 FE2    4d2+       0.0000    0.0000   -0.0000   -0.0000    0.0000   -0.0000    0.0000   -0.0000   -0.0000   -0.0000
       42 FE2    4f3-       0.0000    0.0000   -0.0000    0.0000   -0.0000    0.0000    0.0000   -0.0000    0.0000   -0.0000
       43 FE2    4f2-      -0.0000    0.0000    0.0000   -0.0000   -0.0000   -0.0000    0.0000    0.0000   -0.0000   -0.0000
       44 FE2    4f1-       0.0000   -0.0000   -0.0003    0.0001   -0.0000    0.0000   -0.0000   -0.0076    0.0019   -0.0000
       45 FE2    4f0        0.0000   -0.0000    0.0000   -0.0000   -0.0001    0.0000   -0.0001    0.0000   -0.0000   -0.0017
       46 FE2    4f1+      -0.0000    0.0000   -0.0001   -0.0003    0.0000   -0.0000    0.0000   -0.0019   -0.0076    0.0000
       47 FE2    4f2+       0.0000   -0.0000    0.0000   -0.0000    0.0000   -0.0000   -0.0000    0.0000   -0.0000    0.0000
       48 FE2    4f3+       0.0000    0.0000   -0.0000    0.0000   -0.0000    0.0000    0.0000   -0.0000    0.0000   -0.0000
 
          Orbital           11        12        13        14        15        16        17        18        19        20    
          Energy           -2.0521   -1.4368   -1.4368   -0.9369   -0.9369   -0.8965   -0.8644   -0.8644   -0.6018   -0.3810
          Occ. No.          1.0000    1.0000    1.0000    1.0000    1.0000    1.0000    1.0000    1.0000    0.0000    0.0000
 
        1 O1     1s        -0.0004   -0.0000    0.0000   -0.0000    0.0000   -0.0013    0.0000   -0.0000    0.0003   -0.0071
        2 O1     2s         0.9969   -0.0000    0.0000   -0.0000    0.0000   -0.0171    0.0000   -0.0000    0.0165   -0.0713
        3 O1     3s        -0.0697    0.0000   -0.0000   -0.0000    0.0000   -0.0025    0.0000   -0.0000   -0.0120    0.0147
        4 O1     2px       -0.0000    0.9828   -0.1162    0.0000    0.0000   -0.0000   -0.0004   -0.0059    0.0000    0.0000
        5 O1     3px        0.0000   -0.1422    0.0168    0.0000    0.0000    0.0000   -0.0002   -0.0023    0.0000    0.0000
        6 O1     2py        0.0000    0.1162    0.9828    0.0000   -0.0000    0.0000   -0.0059    0.0004   -0.0001   -0.0000
        7 O1     3py       -0.0000   -0.0168   -0.1422    0.0000   -0.0000   -0.0000   -0.0023    0.0002   -0.0000   -0.0000
        8 O1     2pz       -0.0156   -0.0000    0.0001   -0.0000    0.0000   -0.0372    0.0000   -0.0000    0.9858    0.1664
        9 O1     3pz       -0.0019    0.0000   -0.0000    0.0000   -0.0000    0.0003    0.0000   -0.0000    0.1071    0.0000
       10 O1     3d2-       0.0000    0.0000   -0.0000   -0.0000    0.0000   -0.0000   -0.0000   -0.0000    0.0000   -0.0000
       11 O1     3d1-       0.0000   -0.0005   -0.0043   -0.0000   -0.0000   -0.0000   -0.0003    0.0000    0.0000   -0.0000
       12 O1     3d0       -0.0500    0.0000   -0.0000    0.0000   -0.0000    0.0017   -0.0000    0.0000   -0.0074    0.0055
       13 O1     3d1+      -0.0000   -0.0043    0.0005   -0.0000    0.0000    0.0000   -0.0000   -0.0003   -0.0000    0.0000
       14 O1     3d2+       0.0000   -0.0000   -0.0000    0.0000    0.0000   -0.0000    0.0000    0.0000    0.0000   -0.0000
       15 FE2    1s        -0.0000    0.0000   -0.0000    0.0000   -0.0000   -0.0000    0.0000   -0.0000    0.0002    0.0000
       16 FE2    2s        -0.0000    0.0000   -0.0000    0.0000   -0.0000    0.0004   -0.0000    0.0000    0.0017    0.0003
       17 FE2    3s        -0.0002    0.0000   -0.0000    0.0000   -0.0000    0.0123   -0.0000    0.0000    0.0104   -0.0054
       18 FE2    4s        -0.0018    0.0000   -0.0000    0.0000   -0.0000    0.0199    0.0000   -0.0000   -0.0294    0.9842
       19 FE2    5s        -0.0024    0.0000   -0.0000   -0.0000    0.0000    0.0002   -0.0000    0.0000    0.0051    0.0329
       20 FE2    2px       -0.0000    0.0000   -0.0000   -0.0000    0.0000    0.0000   -0.0000   -0.0001   -0.0000   -0.0000
       21 FE2    3px       -0.0000    0.0001   -0.0000   -0.0000    0.0000    0.0000   -0.0001   -0.0019   -0.0000    0.0000
       22 FE2    4px       -0.0000    0.0027   -0.0003   -0.0000   -0.0000   -0.0000    0.0015    0.0215    0.0000   -0.0000
       23 FE2    5px       -0.0000    0.0008   -0.0001    0.0000   -0.0000   -0.0000    0.0001    0.0008   -0.0000   -0.0000
       24 FE2    2py        0.0000    0.0000    0.0000   -0.0000   -0.0000   -0.0000   -0.0001    0.0000    0.0000    0.0000
       25 FE2    3py        0.0000    0.0000    0.0001   -0.0000   -0.0000   -0.0000   -0.0019    0.0001    0.0000   -0.0000
       26 FE2    4py        0.0000    0.0003    0.0027   -0.0000    0.0000    0.0000    0.0215   -0.0015   -0.0000    0.0000
       27 FE2    5py        0.0000    0.0001    0.0008    0.0000    0.0000    0.0000    0.0008   -0.0001    0.0000    0.0000
       28 FE2    2pz       -0.0000   -0.0000    0.0000   -0.0000    0.0000   -0.0001    0.0000   -0.0000    0.0003    0.0000
       29 FE2    3pz       -0.0005   -0.0000    0.0000   -0.0000    0.0000   -0.0020    0.0000   -0.0000    0.0076   -0.0021
       30 FE2    4pz       -0.0022    0.0000   -0.0000    0.0000   -0.0000    0.0366   -0.0000    0.0000   -0.0247    0.1870
       31 FE2    5pz       -0.0011    0.0000   -0.0000    0.0000   -0.0000    0.0016   -0.0000    0.0000   -0.0026    0.0247
       32 FE2    3d2-       0.0000   -0.0000    0.0000   -0.2658    0.9640   -0.0000   -0.0001    0.0001    0.0000    0.0000
       33 FE2    4d2-       0.0000   -0.0000    0.0000    0.0003   -0.0012   -0.0000   -0.0000    0.0000    0.0000   -0.0000
       34 FE2    3d1-       0.0000    0.0001    0.0011   -0.0000    0.0001    0.0001    0.9971   -0.0705    0.0000   -0.0000
       35 FE2    4d1-       0.0000    0.0001    0.0009   -0.0000   -0.0000    0.0000    0.0255   -0.0018   -0.0000   -0.0000
       36 FE2    3d0        0.0006    0.0000   -0.0000    0.0000   -0.0000    0.9975   -0.0001    0.0000    0.0700   -0.0182
       37 FE2    4d0       -0.0010    0.0000   -0.0000    0.0000    0.0000    0.0181   -0.0000    0.0000   -0.0035   -0.0010
       38 FE2    3d1+      -0.0000    0.0011   -0.0001   -0.0000   -0.0001   -0.0000    0.0705    0.9971   -0.0000    0.0000
       39 FE2    4d1+      -0.0000    0.0009   -0.0001   -0.0000    0.0000   -0.0000    0.0018    0.0255    0.0000    0.0000
       40 FE2    3d2+       0.0000   -0.0000    0.0000    0.9640    0.2658   -0.0000   -0.0000    0.0000    0.0000    0.0000
       41 FE2    4d2+      -0.0000    0.0000    0.0000   -0.0012   -0.0003   -0.0000   -0.0000    0.0000   -0.0000    0.0000
       42 FE2    4f3-       0.0000    0.0000   -0.0000    0.0000   -0.0000   -0.0000    0.0000    0.0000   -0.0000   -0.0000
       43 FE2    4f2-       0.0000    0.0000   -0.0000   -0.0004    0.0015   -0.0000   -0.0000    0.0000    0.0000   -0.0000
       44 FE2    4f1-       0.0000    0.0000    0.0000    0.0000    0.0000    0.0000    0.0021   -0.0001   -0.0000    0.0000
       45 FE2    4f0        0.0000    0.0000   -0.0000    0.0000   -0.0000    0.0024   -0.0000    0.0000   -0.0006    0.0004
       46 FE2    4f1+      -0.0000    0.0000   -0.0000   -0.0000   -0.0000   -0.0000    0.0001    0.0021    0.0000   -0.0000
       47 FE2    4f2+      -0.0000    0.0000    0.0000    0.0015    0.0004   -0.0000   -0.0000    0.0000   -0.0000    0.0000
       48 FE2    4f3+       0.0000   -0.0000   -0.0000   -0.0000   -0.0000   -0.0000    0.0000   -0.0000   -0.0000   -0.0000
 
          Orbital           21        22        23        24    
          Energy           -0.2303   -0.2303   -0.2245   -0.1292
          Occ. No.          0.0000    0.0000    0.0000    0.0000
 
        1 O1     1s         0.0000    0.0000   -0.0081   -0.0127
        2 O1     2s         0.0000    0.0000   -0.0777   -0.1098
        3 O1     3s        -0.0000   -0.0000    0.0562    0.0355
        4 O1     2px        0.0040   -0.0042    0.0000   -0.0000
        5 O1     3px       -0.0637    0.0667    0.0000   -0.0000
        6 O1     2py       -0.0042   -0.0040   -0.0000    0.0000
        7 O1     3py        0.0667    0.0637   -0.0000    0.0000
        8 O1     2pz       -0.0000   -0.0000    0.1446    0.0274
        9 O1     3pz        0.0000    0.0000   -0.0474    0.0558
       10 O1     3d2-       0.0000   -0.0000   -0.0000   -0.0000
       11 O1     3d1-      -0.0041   -0.0039   -0.0000   -0.0000
       12 O1     3d0       -0.0000   -0.0000    0.0099   -0.0035
       13 O1     3d1+       0.0039   -0.0041    0.0000    0.0000
       14 O1     3d2+       0.0000    0.0000   -0.0000   -0.0000
       15 FE2    1s         0.0000    0.0000   -0.0000    0.0001
       16 FE2    2s         0.0000    0.0000   -0.0003    0.0003
       17 FE2    3s         0.0000    0.0000   -0.0008    0.0065
       18 FE2    4s         0.0000    0.0000   -0.2019   -0.0037
       19 FE2    5s        -0.0000   -0.0000    0.0387    1.0025
       20 FE2    2px       -0.0001    0.0001   -0.0000   -0.0000
       21 FE2    3px        0.0018   -0.0019    0.0000   -0.0000
       22 FE2    4px       -0.6742    0.7059   -0.0000    0.0000
       23 FE2    5px       -0.0761    0.0797   -0.0000   -0.0000
       24 FE2    2py        0.0001    0.0001    0.0000    0.0000
       25 FE2    3py       -0.0019   -0.0018   -0.0000    0.0000
       26 FE2    4py        0.7059    0.6742    0.0001   -0.0000
       27 FE2    5py        0.0797    0.0761    0.0000    0.0000
       28 FE2    2pz       -0.0000   -0.0000    0.0000    0.0001
       29 FE2    3pz        0.0000    0.0000   -0.0057    0.0028
       30 FE2    4pz       -0.0000   -0.0000    0.9545   -0.0311
       31 FE2    5pz       -0.0000   -0.0000    0.1126    0.0049
       32 FE2    3d2-       0.0000   -0.0000   -0.0000   -0.0000
       33 FE2    4d2-       0.0000    0.0000   -0.0000   -0.0000
       34 FE2    3d1-      -0.0174   -0.0166   -0.0000    0.0000
       35 FE2    4d1-       0.0154    0.0147    0.0000    0.0000
       36 FE2    3d0        0.0000    0.0000   -0.0289    0.0063
       37 FE2    4d0       -0.0000   -0.0000    0.0256    0.0114
       38 FE2    3d1+       0.0166   -0.0174    0.0000   -0.0000
       39 FE2    4d1+      -0.0147    0.0154   -0.0000   -0.0000
       40 FE2    3d2+       0.0000    0.0000    0.0000   -0.0000
       41 FE2    4d2+      -0.0000   -0.0000   -0.0000    0.0000
       42 FE2    4f3-       0.0000   -0.0000    0.0000    0.0000
       43 FE2    4f2-      -0.0000    0.0000   -0.0000    0.0000
       44 FE2    4f1-       0.0005    0.0005    0.0000   -0.0000
       45 FE2    4f0       -0.0000   -0.0000    0.0004   -0.0004
       46 FE2    4f1+      -0.0005    0.0005   -0.0000    0.0000
       47 FE2    4f2+      -0.0000   -0.0000   -0.0000   -0.0000
       48 FE2    4f3+       0.0000    0.0000    0.0000    0.0000
--
 
 
  Input file to MOLDEN was generated!
 
 
++    Static properties:
      ------------------
 
 
      LoProp Charges per center
 

                   O1       FE2   
      Nuclear      8.0000  26.0000
      Electronic  -7.0116 -24.9884
 
      Total        0.9884   1.0116
--
 
 
      All orbitals with orbital energies smaller than  E(LUMO)+0.5 are printed
 
++    Molecular orbitals:
      -------------------
 
      Title: UHF orbitals (beta)

      Molecular orbitals for symmetry species 1: a  
 
          Orbital            1         2         3         4         5         6         7         8         9        10    
          Energy         -263.9341  -32.6272  -27.7013  -27.7007  -27.7007  -21.4928   -4.3736   -2.9080   -2.8564   -2.8564
          Occ. No.          1.0000    1.0000    1.0000    1.0000    1.0000    1.0000    1.0000    1.0000    1.0000    1.0000
 
        1 O1     1s        -0.0000    0.0000    0.0000    0.0000    0.0000    1.0000    0.0000    0.0000   -0.0000    0.0000
        2 O1     2s        -0.0000    0.0000    0.0001    0.0000    0.0000   -0.0018    0.0003    0.0002   -0.0000    0.0000
        3 O1     3s         0.0000    0.0000    0.0001    0.0000    0.0000    0.0003    0.0002   -0.0000   -0.0000    0.0000
        4 O1     2px        0.0000    0.0000    0.0000    0.0000   -0.0000    0.0000   -0.0000    0.0000    0.0003    0.0001
        5 O1     3px        0.0000    0.0000    0.0000    0.0000   -0.0000   -0.0000   -0.0000   -0.0000    0.0000    0.0000
        6 O1     2py       -0.0000   -0.0000   -0.0000    0.0000    0.0000   -0.0000    0.0000   -0.0000   -0.0001    0.0003
        7 O1     3py       -0.0000   -0.0000   -0.0000    0.0000    0.0000    0.0000    0.0000    0.0000   -0.0000    0.0000
        8 O1     2pz       -0.0000    0.0000   -0.0000   -0.0000   -0.0000   -0.0001    0.0001    0.0002    0.0000   -0.0000
        9 O1     3pz       -0.0000    0.0000   -0.0001   -0.0000   -0.0000   -0.0001    0.0005    0.0006    0.0000   -0.0000
       10 O1     3d2-      -0.0000    0.0000   -0.0000   -0.0000    0.0000   -0.0000   -0.0000   -0.0000    0.0000   -0.0000
       11 O1     3d1-      -0.0000    0.0000    0.0000   -0.0000   -0.0000   -0.0000   -0.0000   -0.0000    0.0000   -0.0000
       12 O1     3d0        0.0000   -0.0000    0.0000    0.0000    0.0000    0.0015   -0.0002   -0.0001   -0.0000    0.0000
       13 O1     3d1+       0.0000   -0.0000   -0.0000   -0.0000    0.0000    0.0000    0.0000    0.0000   -0.0000   -0.0000
       14 O1     3d2+      -0.0000   -0.0000   -0.0000   -0.0000    0.0000   -0.0000   -0.0000   -0.0000    0.0000    0.0000
       15 FE2    1s         1.0000    0.0000   -0.0000   -0.0000   -0.0000   -0.0000   -0.0000    0.0000    0.0000   -0.0000
       16 FE2    2s        -0.0000    1.0000   -0.0008   -0.0000   -0.0000   -0.0000    0.0002   -0.0000    0.0000   -0.0000
       17 FE2    3s         0.0000   -0.0002    0.0000    0.0000    0.0000   -0.0000    1.0000   -0.0042   -0.0000    0.0000
       18 FE2    4s        -0.0000    0.0001   -0.0000   -0.0000   -0.0000   -0.0002    0.0076    0.0021    0.0000   -0.0000
       19 FE2    5s         0.0000   -0.0002   -0.0000   -0.0000   -0.0000   -0.0001   -0.0056   -0.0009   -0.0000    0.0000
       20 FE2    2px        0.0000    0.0000    0.0001    0.8868   -0.4621    0.0000    0.0000   -0.0000    0.0018    0.0006
       21 FE2    3px        0.0000   -0.0000   -0.0000   -0.0017    0.0009    0.0000   -0.0000   -0.0000    0.9426    0.3336
       22 FE2    4px       -0.0000    0.0000    0.0000    0.0003   -0.0001    0.0000    0.0000   -0.0000    0.0074    0.0026
       23 FE2    5px        0.0000   -0.0000   -0.0000   -0.0007    0.0004    0.0000    0.0000    0.0000   -0.0083   -0.0029
       24 FE2    2py       -0.0000   -0.0000   -0.0003    0.4621    0.8868   -0.0000   -0.0000    0.0000   -0.0006    0.0018
       25 FE2    3py       -0.0000    0.0000    0.0000   -0.0009   -0.0017   -0.0000    0.0000    0.0001   -0.3336    0.9426
       26 FE2    4py        0.0000   -0.0000   -0.0000    0.0001    0.0003   -0.0000   -0.0000    0.0000   -0.0026    0.0074
       27 FE2    5py       -0.0000    0.0000    0.0000   -0.0004   -0.0007   -0.0000   -0.0000   -0.0000    0.0029   -0.0083
       28 FE2    2pz        0.0000    0.0008    1.0000    0.0001    0.0003   -0.0000   -0.0000    0.0010    0.0000   -0.0000
       29 FE2    3pz       -0.0000    0.0000   -0.0010   -0.0000   -0.0000   -0.0000    0.0042    0.9997    0.0000   -0.0001
       30 FE2    4pz       -0.0000    0.0000    0.0002    0.0000    0.0000   -0.0002    0.0005    0.0108    0.0000   -0.0000
       31 FE2    5pz       -0.0000    0.0000   -0.0007   -0.0000   -0.0000   -0.0001   -0.0002   -0.0096   -0.0000    0.0000
       32 FE2    3d2-       0.0000    0.0000    0.0000    0.0000    0.0000    0.0000   -0.0000   -0.0000   -0.0000    0.0000
       33 FE2    4d2-      -0.0000   -0.0000    0.0000    0.0000   -0.0000    0.0000    0.0000    0.0000    0.0000   -0.0000
       34 FE2    3d1-       0.0000    0.0000   -0.0000    0.0000    0.0000   -0.0000    0.0000    0.0000   -0.0004    0.0012
       35 FE2    4d1-       0.0000    0.0000    0.0000   -0.0000   -0.0000   -0.0000   -0.0000   -0.0000   -0.0003    0.0008
       36 FE2    3d0        0.0000    0.0001    0.0001    0.0000    0.0000   -0.0000    0.0016    0.0035    0.0000   -0.0000
       37 FE2    4d0       -0.0000    0.0000   -0.0001   -0.0000   -0.0000   -0.0001    0.0003   -0.0004    0.0000   -0.0000
       38 FE2    3d1+      -0.0000   -0.0000    0.0000    0.0000   -0.0000    0.0000   -0.0000   -0.0000    0.0012    0.0004
       39 FE2    4d1+      -0.0000   -0.0000   -0.0000   -0.0000    0.0000    0.0000    0.0000    0.0000    0.0008    0.0003
       40 FE2    3d2+       0.0000    0.0000    0.0000   -0.0000   -0.0000    0.0000   -0.0000   -0.0000   -0.0000   -0.0000
       41 FE2    4d2+       0.0000   -0.0000   -0.0000    0.0000    0.0000    0.0000    0.0000   -0.0000    0.0000    0.0000
       42 FE2    4f3-       0.0000   -0.0000    0.0000    0.0000    0.0000    0.0000   -0.0000    0.0000    0.0000    0.0000
       43 FE2    4f2-       0.0000   -0.0000    0.0000    0.0000   -0.0000    0.0000   -0.0000    0.0000    0.0000   -0.0000
       44 FE2    4f1-      -0.0000    0.0000   -0.0000    0.0004    0.0007   -0.0000    0.0000   -0.0000   -0.0043    0.0122
       45 FE2    4f0       -0.0000    0.0000   -0.0011   -0.0000   -0.0000   -0.0000    0.0001   -0.0206    0.0000   -0.0000
       46 FE2    4f1+       0.0000   -0.0000    0.0000    0.0007   -0.0004    0.0000   -0.0000    0.0000    0.0122    0.0043
       47 FE2    4f2+      -0.0000    0.0000   -0.0000    0.0000   -0.0000   -0.0000    0.0000    0.0000    0.0000    0.0000
       48 FE2    4f3+       0.0000   -0.0000    0.0000   -0.0000    0.0000    0.0000   -0.0000    0.0000   -0.0000    0.0000
 
          Orbital           11        12        13        14        15        16        17        18        19        20    
          Energy           -1.8733   -1.3939   -0.7564   -0.7564   -0.5645   -0.5645   -0.3670   -0.2180   -0.2082   -0.2082
          Occ. No.          1.0000    1.0000    1.0000    1.0000    0.0000    0.0000    0.0000    0.0000    0.0000    0.0000
 
        1 O1     1s         0.0019    0.0001   -0.0000    0.0000    0.0000   -0.0000   -0.0084   -0.0072   -0.0000   -0.0000
        2 O1     2s         0.9986    0.0110   -0.0000    0.0000    0.0000   -0.0000   -0.0918   -0.0784   -0.0000   -0.0000
        3 O1     3s        -0.0443   -0.0076    0.0000   -0.0000   -0.0000    0.0000    0.0132    0.0487    0.0000    0.0000
        4 O1     2px        0.0000    0.0000    0.0644   -0.0106   -0.1738    0.9737   -0.0000   -0.0000   -0.0464    0.0480
        5 O1     3px       -0.0000   -0.0000    0.0067   -0.0011   -0.0229    0.1283   -0.0000   -0.0000    0.0347   -0.0359
        6 O1     2py       -0.0000   -0.0001    0.0106    0.0644    0.9737    0.1738    0.0000    0.0000   -0.0480   -0.0464
        7 O1     3py        0.0000    0.0000    0.0011    0.0067    0.1283    0.0229    0.0000    0.0000    0.0359    0.0347
        8 O1     2pz       -0.0122    0.9914   -0.0000    0.0000    0.0001   -0.0000    0.0583    0.0449   -0.0000   -0.0000
        9 O1     3pz       -0.0066   -0.1265   -0.0000    0.0000    0.0000   -0.0000   -0.0478   -0.1294   -0.0000   -0.0000
       10 O1     3d2-      -0.0000   -0.0000    0.0000   -0.0000    0.0000   -0.0000    0.0000    0.0000    0.0000   -0.0000
       11 O1     3d1-      -0.0000    0.0000   -0.0003   -0.0015   -0.0037   -0.0007    0.0000    0.0000   -0.0042   -0.0041
       12 O1     3d0        0.0561   -0.0032    0.0000   -0.0000   -0.0000    0.0000    0.0030    0.0060    0.0000    0.0000
       13 O1     3d1+       0.0000   -0.0000   -0.0015    0.0003    0.0007   -0.0037   -0.0000   -0.0000   -0.0041    0.0042
       14 O1     3d2+      -0.0000   -0.0000    0.0000   -0.0000    0.0000    0.0000    0.0000    0.0000   -0.0000   -0.0000
       15 FE2    1s        -0.0000   -0.0000   -0.0000    0.0000    0.0000   -0.0000   -0.0000   -0.0001   -0.0000   -0.0000
       16 FE2    2s        -0.0001   -0.0001   -0.0000    0.0000    0.0000   -0.0000   -0.0004   -0.0010   -0.0000   -0.0000
       17 FE2    3s        -0.0007   -0.0001    0.0000   -0.0000    0.0000   -0.0000   -0.0084   -0.0038   -0.0000   -0.0000
       18 FE2    4s        -0.0039   -0.0048    0.0000   -0.0000   -0.0000    0.0000    0.9600   -0.2660   -0.0000   -0.0000
       19 FE2    5s        -0.0028   -0.0002   -0.0000    0.0000   -0.0000    0.0000    0.0982   -0.0201   -0.0000   -0.0000
       20 FE2    2px        0.0000    0.0000   -0.0001    0.0000    0.0000   -0.0001    0.0000   -0.0000   -0.0002    0.0002
       21 FE2    3px       -0.0000    0.0000   -0.0018    0.0003    0.0003   -0.0018   -0.0000   -0.0000   -0.0048    0.0049
       22 FE2    4px        0.0000    0.0000    0.0357   -0.0059   -0.0003    0.0018   -0.0000    0.0000    0.6835   -0.7063
       23 FE2    5px        0.0000    0.0000    0.0019   -0.0003    0.0000   -0.0000   -0.0000    0.0000    0.0876   -0.0906
       24 FE2    2py       -0.0000   -0.0000   -0.0000   -0.0001   -0.0001   -0.0000   -0.0000    0.0000   -0.0002   -0.0002
       25 FE2    3py        0.0000   -0.0000   -0.0003   -0.0018   -0.0018   -0.0003    0.0000    0.0000   -0.0049   -0.0048
       26 FE2    4py       -0.0000   -0.0000    0.0059    0.0357    0.0018    0.0003    0.0000   -0.0000    0.7063    0.6835
       27 FE2    5py       -0.0000   -0.0000    0.0003    0.0019   -0.0000   -0.0000    0.0000   -0.0000    0.0906    0.0876
       28 FE2    2pz       -0.0000    0.0000   -0.0000    0.0000    0.0000   -0.0000   -0.0001   -0.0003   -0.0000   -0.0000
       29 FE2    3pz       -0.0010    0.0014   -0.0000    0.0000    0.0000   -0.0000   -0.0048   -0.0117   -0.0000   -0.0000
       30 FE2    4pz       -0.0044   -0.0028    0.0000   -0.0000   -0.0000    0.0000    0.2147    0.9134    0.0000    0.0000
       31 FE2    5pz       -0.0016   -0.0004    0.0000   -0.0000   -0.0000    0.0000    0.0304    0.1165    0.0000    0.0000
       32 FE2    3d2-       0.0000   -0.0000    0.0001   -0.0001    0.0000   -0.0000   -0.0000   -0.0000   -0.0000    0.0000
       33 FE2    4d2-       0.0000   -0.0000    0.0000   -0.0000    0.0000   -0.0000   -0.0000   -0.0000   -0.0000    0.0000
       34 FE2    3d1-      -0.0000    0.0000    0.1609    0.9803   -0.0811   -0.0145    0.0000    0.0000   -0.0273   -0.0264
       35 FE2    4d1-      -0.0000   -0.0000    0.0119    0.0726   -0.0046   -0.0008    0.0000    0.0000    0.0121    0.0117
       36 FE2    3d0       -0.0007   -0.0008    0.0000   -0.0001    0.0000   -0.0000    0.0192    0.0722    0.0000    0.0000
       37 FE2    4d0       -0.0017   -0.0004    0.0000   -0.0000    0.0000   -0.0000    0.0121    0.0423    0.0000    0.0000
       38 FE2    3d1+       0.0000   -0.0000    0.9803   -0.1609    0.0145   -0.0811   -0.0000   -0.0000   -0.0264    0.0273
       39 FE2    4d1+       0.0000    0.0000    0.0726   -0.0119    0.0008   -0.0046   -0.0000   -0.0000    0.0117   -0.0121
       40 FE2    3d2+      -0.0000   -0.0000    0.0001    0.0000   -0.0000   -0.0000    0.0000    0.0000   -0.0000    0.0000
       41 FE2    4d2+      -0.0000    0.0000    0.0000    0.0000   -0.0000   -0.0000    0.0000    0.0000   -0.0000    0.0000
       42 FE2    4f3-       0.0000   -0.0000    0.0000   -0.0000   -0.0000    0.0000    0.0000    0.0000    0.0000   -0.0000
       43 FE2    4f2-       0.0000   -0.0000    0.0000   -0.0000   -0.0000   -0.0000    0.0000    0.0000   -0.0000   -0.0000
       44 FE2    4f1-      -0.0000    0.0000    0.0004    0.0023    0.0003    0.0000   -0.0000   -0.0000    0.0011    0.0011
       45 FE2    4f0       -0.0001   -0.0001    0.0000   -0.0000   -0.0000    0.0000   -0.0004   -0.0008   -0.0000   -0.0000
       46 FE2    4f1+       0.0000   -0.0000    0.0023   -0.0004   -0.0000    0.0003    0.0000    0.0000    0.0011   -0.0011
       47 FE2    4f2+      -0.0000    0.0000    0.0000    0.0000    0.0000    0.0000   -0.0000   -0.0000    0.0000    0.0000
       48 FE2    4f3+       0.0000   -0.0000   -0.0000   -0.0000   -0.0000    0.0000    0.0000    0.0000   -0.0000    0.0000
 
          Orbital           21        22        23    
          Energy           -0.1100   -0.0765   -0.0765
          Occ. No.          0.0000    0.0000    0.0000
 
        1 O1     1s        -0.0128    0.0000   -0.0000
        2 O1     2s        -0.1119    0.0000   -0.0000
        3 O1     3s         0.0309   -0.0000    0.0000
        4 O1     2px        0.0000    0.0000    0.0000
        5 O1     3px        0.0000   -0.0000   -0.0000
        6 O1     2py       -0.0000   -0.0000    0.0000
        7 O1     3py       -0.0000    0.0000   -0.0000
        8 O1     2pz        0.0365   -0.0000    0.0000
        9 O1     3pz        0.0804    0.0000   -0.0000
       10 O1     3d2-       0.0000    0.0010   -0.0003
       11 O1     3d1-       0.0000   -0.0000    0.0000
       12 O1     3d0       -0.0103   -0.0000    0.0000
       13 O1     3d1+      -0.0000    0.0000    0.0000
       14 O1     3d2+       0.0000    0.0003    0.0010
       15 FE2    1s         0.0001    0.0000   -0.0000
       16 FE2    2s         0.0008    0.0000   -0.0000
       17 FE2    3s         0.0095    0.0000   -0.0000
       18 FE2    4s        -0.0699    0.0000   -0.0000
       19 FE2    5s         0.9998   -0.0000    0.0000
       20 FE2    2px        0.0000    0.0000    0.0000
       21 FE2    3px        0.0000    0.0000    0.0000
       22 FE2    4px       -0.0000    0.0000    0.0000
       23 FE2    5px       -0.0000    0.0000    0.0000
       24 FE2    2py       -0.0000   -0.0000    0.0000
       25 FE2    3py       -0.0000   -0.0000    0.0000
       26 FE2    4py        0.0000   -0.0000    0.0000
       27 FE2    5py        0.0000   -0.0000    0.0000
       28 FE2    2pz        0.0001    0.0000   -0.0000
       29 FE2    3pz        0.0033    0.0000   -0.0000
       30 FE2    4pz        0.0245    0.0000   -0.0000
       31 FE2    5pz        0.0108    0.0000   -0.0000
       32 FE2    3d2-       0.0000    0.9203   -0.2545
       33 FE2    4d2-       0.0000    0.2862   -0.0791
       34 FE2    3d1-      -0.0000    0.0001   -0.0000
       35 FE2    4d1-      -0.0000    0.0000   -0.0000
       36 FE2    3d0       -0.0284   -0.0000    0.0000
       37 FE2    4d0       -0.0073   -0.0000    0.0000
       38 FE2    3d1+       0.0000   -0.0001   -0.0000
       39 FE2    4d1+       0.0000   -0.0000   -0.0000
       40 FE2    3d2+      -0.0000    0.2545    0.9203
       41 FE2    4d2+      -0.0000    0.0791    0.2862
       42 FE2    4f3-      -0.0000   -0.0000    0.0000
       43 FE2    4f2-      -0.0000    0.0017   -0.0005
       44 FE2    4f1-       0.0000    0.0000   -0.0000
       45 FE2    4f0       -0.0001   -0.0000    0.0000
       46 FE2    4f1+      -0.0000   -0.0000   -0.0000
       47 FE2    4f2+       0.0000    0.0005    0.0017
       48 FE2    4f3+      -0.0000   -0.0000   -0.0000
--
 
 
++    Molecular charges:
      ------------------
 
      Mulliken charges per centre and basis function type
      ---------------------------------------------------
 
                            O1                      FE2   
                     alpha        beta       alpha        beta
      1s           1.0000      1.0000      1.0000      1.0000
      2s           0.9930      0.9960      1.0000      1.0000
      2px          0.9794      0.0050      1.0000      1.0000
      2pz          0.0025      0.9838      1.0000      1.0000
      2py          0.9794      0.0050      1.0000      1.0000
      3s           0.0049      0.0021      0.9999      0.9999
      3px          0.0204      0.0003      0.9999      0.9997
      3pz         -0.0001      0.0157      0.9999      0.9994
      3py          0.0204      0.0003      0.9999      0.9997
      4s           0.0000      0.0000      0.0004      0.0000
      3d2+         0.0000      0.0000      1.0000      0.0000
      3d1+         0.0000      0.0000      0.9990      0.9875
      3d0          0.0025      0.0031      0.9956      0.0000
      3d1-         0.0000      0.0000      0.9990      0.9875
      3d2-         0.0000      0.0000      1.0000      0.0000
      4px          0.0000      0.0000      0.0005      0.0015
      4pz          0.0000      0.0000      0.0013     -0.0001
      4py          0.0000      0.0000      0.0005      0.0015
      5s           0.0000      0.0000     -0.0003     -0.0003
      4d2+         0.0000      0.0000      0.0000      0.0000
      4d1+         0.0000      0.0000      0.0007      0.0057
      4d0          0.0000      0.0000      0.0003     -0.0001
      4d1-         0.0000      0.0000      0.0007      0.0057
      4d2-         0.0000      0.0000      0.0000      0.0000
      5px          0.0000      0.0000      0.0000      0.0001
      5pz          0.0000      0.0000     -0.0001     -0.0000
      5py          0.0000      0.0000      0.0000      0.0001
      4f3+         0.0000      0.0000      0.0000      0.0000
      4f2+         0.0000      0.0000      0.0000      0.0000
      4f1+         0.0000      0.0000      0.0001      0.0002
      4f0          0.0000      0.0000      0.0000      0.0004
      4f1-         0.0000      0.0000      0.0001      0.0002
      4f2-         0.0000      0.0000      0.0000      0.0000
      4f3-         0.0000      0.0000      0.0000      0.0000
      Total        4.0025      3.0115     13.9975     10.9885
      Total              7.0140                 24.9860
 
      Charge            0.9860                  1.0140
 
      Total electronic charge=   32.000000
 
      Total            charge=    2.000000
--
 
 
  Input file to MOLDEN was generated!
 
 
++    Static properties:
      ------------------
 
 
      LoProp Charges per center
 

                   O1       FE2   
      Nuclear      8.0000  26.0000
      Electronic  -7.0116 -24.9884
 
      Total        0.9884   1.0116
--
 
 
++    Natural Bond Order analysis
      ---------------------------
      Based on LoProp computed density
      -------------------------------------------------------------------------------------
      Atom A       Atom B       Bond Order
      -------------------------------------------------------------------------------------
      NBO located     19.999 core electrons.
      NBO located      5.983 lone pair electrons.
      NBO located      1.002 non-bonded electrons on atom O1        
      NBO located      1.004 non-bonded electrons on atom O1        
      NBO located      1.004 non-bonded electrons on atom O1        
      NBO located      0.998 non-bonded electrons on atom FE2       
      NBO located      1.000 non-bonded electrons on atom FE2       
      NBO located      1.000 non-bonded electrons on atom FE2       
      The remaining    0.010 electrons are to be considered as diffuse
--
 
 
++    Molecular orbitals:
      -------------------
 
      Title: Natural orbitals

      Molecular orbitals for symmetry species 1: a  
 
          Orbital            1         2         3         4         5         6         7         8         9        10    
          Energy         -263.9347  -32.4094  -21.7536  -27.3708  -27.6420  -27.6419   -4.7697   -3.1187   -3.1314   -3.1315
          Occ. No.          2.0000    2.0000    2.0000    2.0000    2.0000    2.0000    2.0000    1.9998    1.9998    1.9998
 
        1 O1     1s        -0.0000    0.0148   -0.9774    0.2069   -0.0000    0.0000    0.0259    0.0004   -0.0000    0.0000
        2 O1     2s         0.0000   -0.0007    0.0296   -0.0063    0.0000   -0.0000    0.0021    0.0018   -0.0000    0.0000
        3 O1     3s        -0.0000   -0.0000   -0.0013    0.0003    0.0000    0.0000   -0.0001   -0.0002    0.0000   -0.0000
        4 O1     2px        0.0000   -0.0000   -0.0000    0.0000   -0.0000   -0.0000   -0.0000   -0.0000   -0.0006   -0.0024
        5 O1     3px       -0.0000    0.0000    0.0000   -0.0000    0.0000    0.0000    0.0000    0.0000    0.0001    0.0002
        6 O1     2py       -0.0000    0.0000    0.0000   -0.0000   -0.0000    0.0000    0.0000    0.0000   -0.0024    0.0006
        7 O1     3py        0.0000   -0.0000   -0.0000    0.0000    0.0000   -0.0000   -0.0000   -0.0000    0.0002   -0.0001
        8 O1     2pz       -0.0000    0.0001   -0.0004    0.0001   -0.0000    0.0000   -0.0005   -0.0001   -0.0000    0.0000
        9 O1     3pz       -0.0000   -0.0000   -0.0001   -0.0000   -0.0000   -0.0000    0.0006    0.0005   -0.0000    0.0000
       10 O1     3d2-       0.0000   -0.0000   -0.0000    0.0000    0.0000   -0.0000   -0.0000   -0.0000   -0.0000    0.0000
       11 O1     3d1-       0.0000   -0.0000   -0.0000    0.0000   -0.0000    0.0000   -0.0000   -0.0000    0.0000   -0.0000
       12 O1     3d0        0.0000    0.0000    0.0000   -0.0000    0.0000   -0.0000   -0.0001   -0.0000    0.0000   -0.0000
       13 O1     3d1+      -0.0000    0.0000    0.0000   -0.0000   -0.0000   -0.0000    0.0000    0.0000    0.0000    0.0000
       14 O1     3d2+       0.0000    0.0000    0.0000    0.0000   -0.0000   -0.0000   -0.0000   -0.0000    0.0000    0.0000
       15 FE2    1s         1.0000   -0.0001   -0.0000   -0.0000    0.0000   -0.0000    0.0002    0.0000   -0.0000    0.0000
       16 FE2    2s         0.0001    0.9953    0.0198    0.0105    0.0000   -0.0000    0.0939   -0.0001    0.0000   -0.0000
       17 FE2    3s        -0.0002   -0.0945    0.0265    0.0076    0.0000   -0.0000    0.9951   -0.0054    0.0000   -0.0000
       18 FE2    4s        -0.0000   -0.0007    0.0001   -0.0001    0.0000   -0.0000    0.0071    0.0021    0.0000   -0.0000
       19 FE2    5s         0.0000    0.0005   -0.0002    0.0000   -0.0000    0.0000   -0.0048   -0.0010    0.0000   -0.0000
       20 FE2    2px        0.0000    0.0000   -0.0000   -0.0000    0.2234    0.9725    0.0000   -0.0000    0.0158    0.0636
       21 FE2    3px       -0.0000    0.0000    0.0000    0.0000   -0.0147   -0.0639    0.0000   -0.0000    0.2403    0.9675
       22 FE2    4px        0.0000   -0.0000   -0.0000    0.0000   -0.0001   -0.0003   -0.0000   -0.0000    0.0009    0.0038
       23 FE2    5px        0.0000   -0.0000   -0.0000   -0.0000    0.0001    0.0003   -0.0000    0.0000   -0.0015   -0.0062
       24 FE2    2py       -0.0000   -0.0000   -0.0000   -0.0000    0.9725   -0.2234   -0.0000    0.0000    0.0635   -0.0158
       25 FE2    3py        0.0000   -0.0000    0.0000    0.0000   -0.0639    0.0147   -0.0000    0.0002    0.9675   -0.2403
       26 FE2    4py       -0.0000    0.0000    0.0000   -0.0000   -0.0003    0.0001    0.0000    0.0000    0.0038   -0.0009
       27 FE2    5py       -0.0000    0.0000    0.0000   -0.0000    0.0003   -0.0001    0.0000   -0.0000   -0.0062    0.0015
       28 FE2    2pz        0.0000   -0.0131    0.2061    0.9763    0.0000    0.0000   -0.0138    0.0631   -0.0000    0.0000
       29 FE2    3pz       -0.0000    0.0004   -0.0126   -0.0617    0.0000   -0.0000    0.0062    0.9979   -0.0002    0.0001
       30 FE2    4pz       -0.0000   -0.0000   -0.0001   -0.0005    0.0000   -0.0000    0.0008    0.0086   -0.0000    0.0000
       31 FE2    5pz       -0.0000    0.0001    0.0000    0.0003   -0.0000    0.0000   -0.0002   -0.0077    0.0000   -0.0000
       32 FE2    3d2-       0.0000   -0.0000   -0.0000    0.0000   -0.0000    0.0000   -0.0000   -0.0000    0.0000   -0.0000
       33 FE2    4d2-       0.0000   -0.0000   -0.0000    0.0000    0.0000   -0.0000   -0.0000   -0.0000    0.0000   -0.0000
       34 FE2    3d1-      -0.0000    0.0000    0.0000   -0.0000   -0.0000    0.0000    0.0000    0.0000   -0.0409    0.0102
       35 FE2    4d1-      -0.0000    0.0000    0.0000   -0.0000   -0.0001    0.0000    0.0000    0.0000   -0.0017    0.0004
       36 FE2    3d0       -0.0000   -0.0001    0.0000   -0.0001   -0.0000    0.0000    0.0015    0.0036    0.0000   -0.0000
       37 FE2    4d0       -0.0000   -0.0000    0.0000   -0.0001    0.0000   -0.0000    0.0026    0.0003    0.0000   -0.0000
       38 FE2    3d1+       0.0000   -0.0000   -0.0000    0.0000   -0.0000   -0.0000   -0.0000   -0.0000   -0.0102   -0.0409
       39 FE2    4d1+       0.0000   -0.0000   -0.0000    0.0000   -0.0000   -0.0001   -0.0000   -0.0000   -0.0004   -0.0017
       40 FE2    3d2+       0.0000   -0.0000   -0.0000    0.0000    0.0000    0.0000   -0.0000   -0.0000    0.0000   -0.0000
       41 FE2    4d2+       0.0000   -0.0000   -0.0000    0.0000    0.0000   -0.0000   -0.0000   -0.0000    0.0000   -0.0000
       42 FE2    4f3-      -0.0000   -0.0000    0.0000    0.0000    0.0000   -0.0000   -0.0000    0.0000   -0.0000    0.0000
       43 FE2    4f2-       0.0000    0.0000   -0.0000   -0.0000    0.0000    0.0000    0.0000   -0.0000   -0.0000    0.0000
       44 FE2    4f1-      -0.0000    0.0000    0.0000    0.0000    0.0001   -0.0000    0.0000   -0.0000    0.0024   -0.0006
       45 FE2    4f0        0.0000   -0.0000    0.0000    0.0001   -0.0000    0.0000    0.0000   -0.0112    0.0000   -0.0000
       46 FE2    4f1+       0.0000   -0.0000   -0.0000   -0.0000    0.0000    0.0001   -0.0000    0.0000    0.0006    0.0024
       47 FE2    4f2+      -0.0000   -0.0000    0.0000    0.0000   -0.0000   -0.0000   -0.0000    0.0000    0.0000    0.0000
       48 FE2    4f3+      -0.0000   -0.0000    0.0000    0.0000    0.0000    0.0000   -0.0000    0.0000   -0.0000   -0.0000
 
          Orbital           11        12        13        14        15        16        17        18        19        20    
          Energy           -0.8154   -0.8154   -1.9697   -0.7257   -0.9735   -0.9735   -0.4662   -0.4662   -0.6770    1.3875
          Occ. No.          1.9984    1.9984    1.9941    1.0548    1.0000    1.0000    1.0000    1.0000    0.9452    0.0059
 
        1 O1     1s        -0.0000   -0.0000    0.0303   -0.0010    0.0000   -0.0000    0.0000    0.0000   -0.0009    0.0005
        2 O1     2s        -0.0000   -0.0000    0.9988   -0.0230   -0.0000    0.0000    0.0000    0.0000   -0.0027    0.0155
        3 O1     3s         0.0000    0.0000   -0.0571    0.0037    0.0000   -0.0000    0.0000    0.0000   -0.0074    0.2336
        4 O1     2px        0.0629    0.0162    0.0000   -0.0000    0.9807   -0.1159   -0.0000    0.0000    0.0000    0.0000
        5 O1     3px       -0.0027   -0.0007   -0.0000    0.0000   -0.1417    0.0168    0.0000    0.0000   -0.0000    0.0000
        6 O1     2py        0.0162   -0.0629   -0.0000    0.0000    0.1159    0.9807   -0.0000   -0.0000   -0.0001   -0.0000
        7 O1     3py       -0.0007    0.0027    0.0000   -0.0000   -0.0168   -0.1417    0.0000   -0.0000    0.0000   -0.0000
        8 O1     2pz       -0.0000   -0.0000   -0.0159   -0.7081   -0.0000    0.0001   -0.0000   -0.0000    0.6940   -0.0031
        9 O1     3pz        0.0000    0.0000   -0.0040    0.0873    0.0000   -0.0000   -0.0000   -0.0000   -0.0918   -0.0387
       10 O1     3d2-       0.0000    0.0000   -0.0000    0.0000    0.0000   -0.0000   -0.0000    0.0000   -0.0000   -0.0000
       11 O1     3d1-      -0.0003    0.0011   -0.0000   -0.0000   -0.0005   -0.0043    0.0000   -0.0000    0.0000   -0.0001
       12 O1     3d0        0.0000    0.0000    0.0031    0.0033    0.0000   -0.0000   -0.0000   -0.0000   -0.0009    0.9755
       13 O1     3d1+      -0.0011   -0.0003    0.0000    0.0000   -0.0043    0.0005    0.0000    0.0000   -0.0000    0.0000
       14 O1     3d2+       0.0000    0.0000   -0.0000    0.0000   -0.0000   -0.0000    0.0000    0.0000   -0.0000   -0.0000
       15 FE2    1s        -0.0000   -0.0000   -0.0000    0.0000    0.0000   -0.0000   -0.0000   -0.0000   -0.0000   -0.0001
       16 FE2    2s         0.0000    0.0000   -0.0001   -0.0000    0.0000   -0.0000   -0.0000   -0.0000   -0.0001   -0.0007
       17 FE2    3s         0.0000    0.0000   -0.0033   -0.0018    0.0000   -0.0000   -0.0000   -0.0000   -0.0009   -0.0044
       18 FE2    4s         0.0000    0.0000   -0.0028    0.0170    0.0000   -0.0000   -0.0000   -0.0000    0.0109   -0.0191
       19 FE2    5s        -0.0000   -0.0000   -0.0026    0.0003   -0.0000    0.0000   -0.0000    0.0000    0.0000   -0.0034
       20 FE2    2px        0.0027    0.0007    0.0000    0.0000    0.0000   -0.0000    0.0000    0.0000    0.0000    0.0000
       21 FE2    3px        0.0407    0.0105    0.0000    0.0000   -0.0001    0.0000    0.0000    0.0000    0.0000    0.0000
       22 FE2    4px        0.0282    0.0073    0.0000   -0.0000    0.0011   -0.0001   -0.0000   -0.0000   -0.0000    0.0000
       23 FE2    5px        0.0010    0.0003    0.0000   -0.0000    0.0007   -0.0001    0.0000   -0.0000    0.0000    0.0000
       24 FE2    2py        0.0007   -0.0027   -0.0000   -0.0000    0.0000    0.0000    0.0000   -0.0000   -0.0000   -0.0000
       25 FE2    3py        0.0105   -0.0407   -0.0000   -0.0000   -0.0000   -0.0001    0.0000   -0.0000   -0.0000   -0.0000
       26 FE2    4py        0.0073   -0.0282   -0.0000    0.0000    0.0001    0.0011   -0.0000    0.0000    0.0000   -0.0000
       27 FE2    5py        0.0003   -0.0010   -0.0000    0.0000    0.0001    0.0007    0.0000    0.0000   -0.0000   -0.0000
       28 FE2    2pz        0.0000    0.0000   -0.0000   -0.0001    0.0000   -0.0000   -0.0000    0.0000   -0.0000   -0.0002
       29 FE2    3pz        0.0000    0.0000   -0.0025   -0.0039   -0.0000    0.0000    0.0000    0.0000   -0.0017   -0.0046
       30 FE2    4pz        0.0000    0.0000   -0.0033    0.0271   -0.0000    0.0000    0.0000   -0.0000    0.0245   -0.0207
       31 FE2    5pz        0.0000    0.0000   -0.0014    0.0014   -0.0000    0.0000   -0.0000   -0.0000    0.0008   -0.0045
       32 FE2    3d2-       0.0001    0.0001    0.0000   -0.0000   -0.0000    0.0000   -0.2659    0.9640   -0.0000   -0.0000
       33 FE2    4d2-       0.0000    0.0000    0.0000   -0.0000   -0.0000    0.0000    0.0003   -0.0012    0.0000    0.0000
       34 FE2    3d1-       0.2481   -0.9633   -0.0000    0.0001   -0.0082   -0.0693   -0.0000    0.0001    0.0001    0.0000
       35 FE2    4d1-       0.0124   -0.0480   -0.0000    0.0000   -0.0001   -0.0009   -0.0000    0.0000    0.0000   -0.0000
       36 FE2    3d0        0.0000    0.0001    0.0007    0.6874   -0.0000    0.0000   -0.0000   -0.0000    0.7250   -0.0257
       37 FE2    4d0        0.0000    0.0000   -0.0014    0.0127   -0.0000    0.0000   -0.0000    0.0000    0.0128   -0.0070
       38 FE2    3d1+       0.9633    0.2481    0.0000   -0.0000   -0.0693    0.0082   -0.0000   -0.0001   -0.0000   -0.0000
       39 FE2    4d1+       0.0480    0.0124    0.0000   -0.0000   -0.0009    0.0001   -0.0000   -0.0000   -0.0000    0.0000
       40 FE2    3d2+       0.0000    0.0000    0.0000   -0.0000   -0.0000    0.0000    0.9640    0.2659   -0.0000   -0.0000
       41 FE2    4d2+       0.0000    0.0000    0.0000   -0.0000    0.0000    0.0000   -0.0012   -0.0003   -0.0000    0.0000
       42 FE2    4f3-       0.0000    0.0000   -0.0000   -0.0000   -0.0000   -0.0000    0.0000   -0.0000   -0.0000   -0.0000
       43 FE2    4f2-       0.0000    0.0000    0.0000   -0.0000   -0.0000    0.0000   -0.0004    0.0015   -0.0000    0.0000
       44 FE2    4f1-       0.0006   -0.0023   -0.0000    0.0000   -0.0000   -0.0001    0.0000    0.0000    0.0000   -0.0000
       45 FE2    4f0        0.0000    0.0000   -0.0000    0.0017   -0.0000    0.0000   -0.0000   -0.0000    0.0017   -0.0005
       46 FE2    4f1+       0.0023    0.0006    0.0000   -0.0000   -0.0001    0.0000    0.0000   -0.0000   -0.0000    0.0000
       47 FE2    4f2+       0.0000    0.0000    0.0000   -0.0000   -0.0000    0.0000    0.0015    0.0004   -0.0000   -0.0000
       48 FE2    4f3+      -0.0000    0.0000   -0.0000   -0.0000    0.0000   -0.0000   -0.0000   -0.0000   -0.0000   -0.0000
 
          Orbital           21        22        23        24        25        26        27        28        29        30    
          Energy            0.4155    0.4155    3.4238    3.4238    3.4576    0.6012    1.9818    1.9818    2.0549    0.3860
          Occ. No.          0.0016    0.0016    0.0002    0.0002    0.0002    0.0000    0.0000    0.0000    0.0000    0.0000
 
        1 O1     1s         0.0000   -0.0000   -0.0000    0.0000   -0.0009    0.0111    0.0000   -0.0000   -0.0119   -0.0092
        2 O1     2s         0.0000   -0.0000   -0.0000    0.0000   -0.0096    0.1130    0.0000   -0.0000   -0.1299   -0.1482
        3 O1     3s         0.0000   -0.0000    0.0000   -0.0000   -0.0053    0.0936    0.0000   -0.0000   -0.2689   -0.9134
        4 O1     2px       -0.0051    0.0207   -0.0012   -0.0065    0.0000   -0.0000   -0.0042   -0.0245   -0.0000   -0.0000
        5 O1     3px       -0.0805    0.3295   -0.0078   -0.0416    0.0000   -0.0000   -0.0121   -0.0696   -0.0000   -0.0000
        6 O1     2py        0.0207    0.0051   -0.0065    0.0012   -0.0000    0.0000   -0.0245    0.0042    0.0000    0.0000
        7 O1     3py        0.3295    0.0805   -0.0416    0.0078   -0.0000    0.0001   -0.0696    0.0121    0.0000    0.0001
        8 O1     2pz       -0.0000    0.0000   -0.0000    0.0000    0.0035   -0.0651   -0.0000    0.0000    0.0764    0.0934
        9 O1     3pz        0.0000   -0.0000   -0.0000    0.0000   -0.0104    0.0007   -0.0000    0.0000    0.1690    0.2014
       10 O1     3d2-      -0.0000    0.0000   -0.0000    0.0000    0.0000   -0.0000   -0.0000    0.0000   -0.0000   -0.0000
       11 O1     3d1-      -0.0155   -0.0038    0.0020   -0.0004    0.0000   -0.0000    0.0069   -0.0012   -0.0000   -0.0000
       12 O1     3d0        0.0000   -0.0000   -0.0000    0.0000   -0.0069    0.0528    0.0000   -0.0000    0.0038    0.1318
       13 O1     3d1+       0.0038   -0.0155    0.0004    0.0020   -0.0000    0.0000    0.0012    0.0069    0.0000    0.0000
       14 O1     3d2+      -0.0000   -0.0000    0.0000    0.0000    0.0000   -0.0000    0.0000    0.0000   -0.0000   -0.0000
       15 FE2    1s         0.0000   -0.0000   -0.0000    0.0000   -0.0000   -0.0000   -0.0000    0.0000    0.0002    0.0003
       16 FE2    2s         0.0000   -0.0000   -0.0000    0.0000   -0.0001    0.0000   -0.0000    0.0000    0.0016    0.0023
       17 FE2    3s         0.0000   -0.0000   -0.0000    0.0000   -0.0005   -0.0015   -0.0000    0.0000    0.0087    0.0092
       18 FE2    4s        -0.0004    0.0000    0.0000   -0.0000    0.0011    0.2037   -0.0000    0.0000    0.0934    0.5033
       19 FE2    5s         0.0001   -0.0000   -0.0000    0.0000   -0.0040   -0.3123    0.0000   -0.0000    0.1038    0.0191
       20 FE2    2px        0.0000   -0.0001   -0.0001   -0.0003   -0.0000    0.0000    0.0000    0.0000   -0.0000    0.0000
       21 FE2    3px        0.0009   -0.0036   -0.0009   -0.0046   -0.0000    0.0000    0.0011    0.0065   -0.0000    0.0000
       22 FE2    4px       -0.0613    0.2509    0.0393    0.2098    0.0000   -0.0000   -0.0302   -0.1741    0.0000   -0.0000
       23 FE2    5px       -0.0035    0.0142   -0.0429   -0.2289   -0.0000   -0.0000    0.1620    0.9337   -0.0000   -0.0000
       24 FE2    2py       -0.0001   -0.0000   -0.0003    0.0001    0.0000   -0.0000    0.0000   -0.0000    0.0000   -0.0000
       25 FE2    3py       -0.0036   -0.0009   -0.0046    0.0009    0.0000   -0.0000    0.0065   -0.0011    0.0000   -0.0000
       26 FE2    4py        0.2509    0.0613    0.2098   -0.0393   -0.0000    0.0000   -0.1741    0.0302   -0.0000    0.0001
       27 FE2    5py        0.0142    0.0035   -0.2289    0.0429    0.0000    0.0000    0.9337   -0.1620    0.0000    0.0000
       28 FE2    2pz        0.0000   -0.0000    0.0000   -0.0000    0.0006   -0.0001    0.0000   -0.0000    0.0003    0.0004
       29 FE2    3pz        0.0000   -0.0000    0.0000   -0.0000    0.0138   -0.0001   -0.0000    0.0000    0.0116    0.0061
       30 FE2    4pz       -0.0001    0.0000   -0.0000    0.0000   -0.2168   -0.1361   -0.0000    0.0000    0.0046    0.5569
       31 FE2    5pz       -0.0000    0.0000    0.0000   -0.0000    0.1948   -0.0076   -0.0000    0.0000    1.0053    0.0143
       32 FE2    3d2-       0.0000   -0.0000    0.0000   -0.0000   -0.0000    0.0000    0.0000   -0.0000   -0.0000    0.0000
       33 FE2    4d2-      -0.0001    0.0001    0.0000   -0.0000    0.0000   -0.0000   -0.0000    0.0000    0.0000   -0.0000
       34 FE2    3d1-      -0.0636   -0.0155   -0.0030    0.0006    0.0000   -0.0000    0.0041   -0.0007    0.0000   -0.0000
       35 FE2    4d1-       0.8204    0.2005   -0.0611    0.0114   -0.0000   -0.0000    0.0390   -0.0068   -0.0000    0.0002
       36 FE2    3d0        0.0000   -0.0000    0.0000   -0.0000    0.0041    0.0102    0.0000   -0.0000    0.0205    0.0126
       37 FE2    4d0       -0.0001    0.0000    0.0000   -0.0000    0.0680   -0.9412   -0.0000    0.0000    0.0598    0.1817
       38 FE2    3d1+       0.0155   -0.0636   -0.0006   -0.0030   -0.0000    0.0000    0.0007    0.0041   -0.0000    0.0000
       39 FE2    4d1+      -0.2005    0.8204   -0.0114   -0.0611    0.0000    0.0000    0.0068    0.0390    0.0000   -0.0000
       40 FE2    3d2+       0.0000   -0.0000    0.0000   -0.0000   -0.0000    0.0000   -0.0000   -0.0000   -0.0000    0.0000
       41 FE2    4d2+      -0.0000    0.0000    0.0000   -0.0000   -0.0000    0.0000    0.0000    0.0000    0.0000   -0.0000
       42 FE2    4f3-      -0.0000    0.0000   -0.0000    0.0000   -0.0001   -0.0000    0.0000    0.0000    0.0000   -0.0000
       43 FE2    4f2-      -0.0000    0.0000   -0.0001    0.0002    0.0000    0.0000   -0.0000    0.0000    0.0000   -0.0000
       44 FE2    4f1-       0.0192    0.0047    0.9300   -0.1742    0.0000   -0.0000    0.2729   -0.0474   -0.0001    0.0000
       45 FE2    4f0        0.0000   -0.0000   -0.0000    0.0000    0.9542    0.0347   -0.0000    0.0000   -0.2061    0.1142
       46 FE2    4f1+      -0.0047    0.0192    0.1742    0.9300   -0.0000    0.0000    0.0474    0.2729    0.0000   -0.0000
       47 FE2    4f2+      -0.0000    0.0000    0.0000    0.0001   -0.0000    0.0000    0.0000    0.0000    0.0000   -0.0000
       48 FE2    4f3+      -0.0000   -0.0000   -0.0000   -0.0000   -0.0001   -0.0000    0.0000   -0.0000    0.0000   -0.0000
 
          Orbital           31        32        33        34        35        36        37        38        39        40    
          Energy           -0.0132   -0.2404    0.0098    0.0079    0.0086    0.1472    0.2316    0.2297    0.6726    0.6726
          Occ. No.          0.0000    0.0000    0.0000    0.0000    0.0000    0.0000    0.0000    0.0000    0.0000    0.0000
 
        1 O1     1s         0.0054    0.0121    0.0000    0.0000   -0.0001   -0.0083   -0.0000   -0.0000    0.0000   -0.0000
        2 O1     2s         0.0598    0.1066    0.0000    0.0000    0.0033   -0.0740   -0.0000   -0.0000    0.0000   -0.0000
        3 O1     3s         0.3420   -0.1611   -0.0000   -0.0001    0.1672    0.2129    0.0001    0.0000   -0.0000    0.0000
        4 O1     2px        0.0000   -0.0000    0.0124    0.0149   -0.0000   -0.0000    0.1481   -0.0357    0.0001   -0.0000
        5 O1     3px       -0.0000   -0.0000    0.0292    0.0423   -0.0001   -0.0002    0.9234   -0.2222    0.0005   -0.0001
        6 O1     2py       -0.0000   -0.0000   -0.0124    0.0130    0.0000   -0.0000    0.0355    0.1483    0.0000   -0.0000
        7 O1     3py        0.0001   -0.0001   -0.0268    0.0330    0.0000   -0.0002    0.2216    0.9240    0.0001   -0.0000
        8 O1     2pz       -0.0005   -0.0469   -0.0000   -0.0000   -0.0755    0.1805    0.0000    0.0000   -0.0000    0.0000
        9 O1     3pz       -0.1358    0.0470    0.0000    0.0000   -0.6689    0.8629    0.0002    0.0001   -0.0000    0.0000
       10 O1     3d2-       0.0000    0.0000   -0.0000   -0.0000   -0.0000   -0.0000    0.0002    0.0000   -0.0021    0.0106
       11 O1     3d1-       0.0000    0.0000    0.0003   -0.0002    0.0000    0.0001    0.0014    0.0052   -0.0000    0.0000
       12 O1     3d0       -0.1025    0.0934    0.0000    0.0000   -0.0648   -0.1071   -0.0000   -0.0000   -0.0000    0.0000
       13 O1     3d1+      -0.0000   -0.0000   -0.0002   -0.0002   -0.0000   -0.0001    0.0053   -0.0012    0.0001    0.0000
       14 O1     3d2+       0.0000    0.0000   -0.0001   -0.0002   -0.0000   -0.0000    0.0012   -0.0000    0.0079    0.0045
       15 FE2    1s        -0.0002    0.0001    0.0000    0.0000   -0.0007    0.0009    0.0000    0.0000   -0.0000    0.0000
       16 FE2    2s        -0.0014    0.0004    0.0000    0.0000   -0.0053    0.0066    0.0000    0.0000   -0.0000    0.0000
       17 FE2    3s        -0.0147    0.0038    0.0000    0.0000   -0.0259    0.0335    0.0000    0.0000   -0.0000    0.0000
       18 FE2    4s         0.4676   -0.6863   -0.0002    0.0000   -0.3785    0.1432   -0.0000    0.0000   -0.0000    0.0000
       19 FE2    5s        -0.7370   -0.6440   -0.0002    0.0000   -0.0919   -0.0145   -0.0000   -0.0000   -0.0000    0.0000
       20 FE2    2px       -0.0000    0.0000   -0.0000   -0.0000    0.0000    0.0000   -0.0003    0.0001   -0.0000    0.0000
       21 FE2    3px        0.0000   -0.0000    0.0017    0.0017    0.0000    0.0000   -0.0051    0.0012   -0.0000    0.0000
       22 FE2    4px       -0.0000    0.0002   -0.6319   -0.6624   -0.0002   -0.0001   -0.1822    0.0490   -0.0000   -0.0000
       23 FE2    5px       -0.0000    0.0001   -0.1657   -0.1736   -0.0000   -0.0000   -0.0445    0.0121    0.0000   -0.0000
       24 FE2    2py        0.0000    0.0000    0.0000   -0.0000   -0.0000    0.0000   -0.0001   -0.0003   -0.0000    0.0000
       25 FE2    3py       -0.0000    0.0000   -0.0017    0.0016    0.0000    0.0000   -0.0012   -0.0050   -0.0000    0.0000
       26 FE2    4py        0.0001   -0.0002    0.6593   -0.6327   -0.0001   -0.0001   -0.0384   -0.1933   -0.0000    0.0000
       27 FE2    5py        0.0000   -0.0000    0.1729   -0.1659   -0.0000   -0.0000   -0.0093   -0.0474   -0.0000    0.0000
       28 FE2    2pz       -0.0002    0.0001    0.0000    0.0000   -0.0007    0.0010    0.0000    0.0000   -0.0000    0.0000
       29 FE2    3pz       -0.0065    0.0025    0.0000    0.0000   -0.0197    0.0180    0.0000    0.0000   -0.0000    0.0000
       30 FE2    4pz       -0.0827   -0.0743   -0.0000   -0.0002    0.5111    0.7460    0.0002    0.0001   -0.0000    0.0000
       31 FE2    5pz        0.0375   -0.0119    0.0000   -0.0001    0.1092    0.1314    0.0000    0.0000   -0.0000    0.0000
       32 FE2    3d2-       0.0000   -0.0000   -0.0000   -0.0000   -0.0000   -0.0000    0.0000   -0.0000   -0.0003    0.0012
       33 FE2    4d2-      -0.0000    0.0000   -0.0000   -0.0000   -0.0000   -0.0000    0.0002    0.0000   -0.2650    0.9641
       34 FE2    3d1-      -0.0000    0.0000   -0.0075    0.0070    0.0000    0.0000   -0.0033   -0.0134   -0.0000    0.0000
       35 FE2    4d1-       0.0004   -0.0001   -0.2161    0.2033    0.0001    0.0001   -0.1092   -0.4438   -0.0001    0.0001
       36 FE2    3d0       -0.0321    0.0196    0.0000    0.0000   -0.0585    0.0254    0.0000    0.0000   -0.0000   -0.0000
       37 FE2    4d0        0.2977    0.0538    0.0001    0.0000   -0.2348    0.0818   -0.0000    0.0001   -0.0000   -0.0000
[...]
 ###                                                                         ###
 ###                                                                         ###
 ###############################################################################
 ###############################################################################
 
++    Wave function specifications:
      -----------------------------
 
      Number of closed shell electrons          22
      Number of electrons in active shells      10
      Max number of holes in RAS1 space          0
      Max number of electrons in RAS3 space      0
      Number of inactive orbitals               11
      Number of active orbitals                 14
      Number of secondary orbitals              23
      Spin quantum number                      2.0
      State symmetry                             1
      Number of CSFs                        975975
      Number of root(s) available                1
      Root passed to geometry opt.               1
      A file JOBMIX will be created.
      This is a CASSCF or RASSCF reference function
--
 
++    Orbital specifications:
      -----------------------
 
      Symmetry species                           1
                                                 a
      Frozen orbitals                            0
      Inactive orbitals                         11
      Active orbitals                           14
      Secondary orbitals                        23
      Deleted orbitals                           0
      Number of basis functions                 48
--
 
      Type of Fock operator: STANDARD
      Type of 0-order Hamiltonian: STANDARD WITH DEFAULT IPEA
        "IP-EA" denominator shift =      0.25
      The input orbitals and the CI vector will be transformed.
 
--------------------------------------------------------------------------------
 Estimated memory requirements:
  POLY3 :                227658189
  RHS:                     4146972
  SIGMA :                   646704
  PRPCTL:                        0
 Available workspace:    229020647
 
++ CASPT2 computation for group   1
 
********************************************************************************
 Multi-State initialization phase begins for group   1
--------------------------------------------------------------------------------
********************************************************************************
 Compute H0 matrices for state    1
--------------------------------------------------------------------------------
--------------------------------------------------------------------------------
 H0 matrices have been computed.
 
********************************************************************************
  CASPT2 EQUATION SOLUTION
--------------------------------------------------------------------------------
 
  Total nr of CASPT2 parameters:
   Before reduction:      408969
   After  reduction:      408969
 
 The contributions to the second order correlation energy in atomic units.
-----------------------------------------------------------------------------------------------------------------------------
  IT.      VJTU        VJTI        ATVX        AIVX        VJAI        BVAT        BJAT        BJAI        TOTAL       RNORM  
-----------------------------------------------------------------------------------------------------------------------------
   1    -0.002131   -0.029239   -0.015860   -0.177019   -0.017224   -0.077156   -0.018988   -0.044814   -0.382432    0.018845
   2    -0.002141   -0.029258   -0.016448   -0.177439   -0.017289   -0.077308   -0.019220   -0.044920   -0.384023    0.005718
   3    -0.002139   -0.029261   -0.016626   -0.177586   -0.017283   -0.077297   -0.019238   -0.044929   -0.384360    0.001860
   4    -0.002137   -0.029262   -0.016612   -0.177566   -0.017275   -0.077269   -0.019213   -0.044919   -0.384253    0.000682
   5    -0.002137   -0.029262   -0.016600   -0.177550   -0.017275   -0.077271   -0.019211   -0.044917   -0.384223    0.000197
   6    -0.002138   -0.029262   -0.016597   -0.177555   -0.017276   -0.077276   -0.019213   -0.044919   -0.384235    0.000059
   7    -0.002138   -0.029262   -0.016597   -0.177557   -0.017276   -0.077277   -0.019213   -0.044919   -0.384238    0.000020
   8    -0.002138   -0.029262   -0.016597   -0.177556   -0.017276   -0.077276   -0.019213   -0.044919   -0.384237    0.000005
   9    -0.002138   -0.029262   -0.016597   -0.177556   -0.017276   -0.077276   -0.019213   -0.044919   -0.384237    0.000001
-------------------------------------------------------------------------------------------------------------------
 
  FINAL CASPT2 RESULT:
 
  Correlation energy /Case, /Symm, and sums:
 VJTU     -0.00213753 -0.00213753
 VJTIP    -0.00976182 -0.00976182
 VJTIM    -0.01950014 -0.01950014
 ATVX     -0.01659706 -0.01659706
 AIVX     -0.17755610 -0.17755610
 VJAIP    -0.01397714 -0.01397714
 VJAIM    -0.00329868 -0.00329868
 BVATP    -0.02192817 -0.02192817
 BVATM    -0.05534827 -0.05534827
 BJATP    -0.01172630 -0.01172630
 BJATM    -0.00748683 -0.00748683
 BJAIP    -0.03034465 -0.03034465
 BJAIM    -0.01457419 -0.01457419
 Summed:  -0.38423690 -0.38423690
 
      Reference energy:       -1345.4594031980
      E2 (Non-variational):      -0.3842368971
      E2 (Variational):          -0.3842369004
      Total energy:           -1345.8436400985
      Residual norm:              0.0000003377
      Reference weight:           0.93713
 
      Contributions to the CASPT2 correlation energy
      Active & Virtual Only:         -0.0938734964
      One Inactive Excited:          -0.1989067697
      Two Inactive Excited:          -0.0914566311
 
 
++ Denominators, etc.
----------------------------------------------------------------------------------------------------
 Report on small energy denominators, large coefficients, and large energy contributions.
CASE  SYMM ACTIVE-MIX  NON-ACTIVE INDICES          DENOMINATOR     RHS VALUE       COEFFICIENT     CONTRIBUTION
ATVX     1  Mu1.0001  Se1.026                       0.02946771      0.00000000     -0.00000000     -0.00000000
ATVX     1  Mu1.0002  Se1.026                       0.02946771      0.00000000      0.00000000      0.00000000
ATVX     1  Mu1.0003  Se1.026                       0.04528998     -0.00000000      0.00000005     -0.00000000
ATVX     1  Mu1.0004  Se1.026                       0.06053471     -0.00000000      0.00000003     -0.00000000
ATVX     1  Mu1.0005  Se1.026                       0.06053472     -0.00000000      0.00000001     -0.00000000
ATVX     1  Mu1.0006  Se1.026                       0.11230215     -0.00000000      0.00000000     -0.00000000
ATVX     1  Mu1.0007  Se1.026                       0.25759502     -0.00001248      0.00005079     -0.00000000
ATVX     1  Mu1.0008  Se1.026                       0.25917582      0.00000000     -0.00000000     -0.00000000
ATVX     1  Mu1.0009  Se1.026                       0.25968826      0.00000651     -0.00002572     -0.00000000
ATVX     1  Mu1.0010  Se1.026                       0.26133543      0.00000001     -0.00000005     -0.00000000
ATVX     1  Mu1.0011  Se1.026                       0.26133544      0.00000001     -0.00000002     -0.00000000
ATVX     1  Mu1.0012  Se1.026                       0.26482386      0.00000000     -0.00000000     -0.00000000
ATVX     1  Mu1.0013  Se1.026                       0.26967910     -0.00000000      0.00000000     -0.00000000
ATVX     1  Mu1.0014  Se1.026                       0.29784091     -0.00000001      0.00000003     -0.00000000
ATVX     1  Mu1.0015  Se1.026                       0.29784091      0.00000000     -0.00000002     -0.00000000
ATVX     1  Mu1.0001  Se1.027                       0.13028277      0.00001361     -0.00030832     -0.00000000
ATVX     1  Mu1.0002  Se1.027                       0.13028277     -0.00000020      0.00000469     -0.00000000
ATVX     1  Mu1.0003  Se1.027                       0.14610505     -0.00000000     -0.00000001      0.00000000
ATVX     1  Mu1.0004  Se1.027                       0.16134977      0.00011796     -0.00001093     -0.00000000
ATVX     1  Mu1.0005  Se1.027                       0.16134978     -0.00022496      0.00001918     -0.00000000
ATVX     1  Mu1.0006  Se1.027                       0.21311721     -0.00000000      0.00000000     -0.00000000
ATVX     1  Mu1.0001  Se1.028                       0.13028277     -0.00000020      0.00000469     -0.00000000
ATVX     1  Mu1.0002  Se1.028                       0.13028277     -0.00001361      0.00030832     -0.00000000
ATVX     1  Mu1.0003  Se1.028                       0.14610505      0.00000000      0.00000000      0.00000000
ATVX     1  Mu1.0004  Se1.028                       0.16134977      0.00022496     -0.00001918     -0.00000000
ATVX     1  Mu1.0005  Se1.028                       0.16134978      0.00011796     -0.00001093     -0.00000000
ATVX     1  Mu1.0006  Se1.028                       0.21311721     -0.00000000      0.00000000     -0.00000000
ATVX     1  Mu1.0001  Se1.029                       0.27520406     -0.00000000      0.00000000     -0.00000000
ATVX     1  Mu1.0002  Se1.029                       0.27520406      0.00000000     -0.00000000     -0.00000000
ATVX     1  Mu1.0003  Se1.029                       0.29102634      0.00000000     -0.00000001     -0.00000000
ATVX     1  Mu1.0211  Se1.031                       1.99571053     -0.08100905      0.04099413     -0.00332090
ATVX     1  Mu1.0230  Se1.031                       2.08851028     -0.05565711      0.02629437     -0.00146347
ATVX     1  Mu1.0212  Se1.032                       1.99571053      0.08100905     -0.04099413     -0.00332090
ATVX     1  Mu1.0229  Se1.032                       2.08851028      0.05565711     -0.02629437     -0.00146347
AIVX     1  Mu1.0086  In1.011 Se1.033               3.15525426      0.10694477     -0.03351807     -0.00358458
AIVX     1  Mu1.0089  In1.011 Se1.033               3.16485325      0.09247090     -0.03082057     -0.00285001
AIVX     1  Mu1.0169  In1.009 Se1.034               6.57229447      0.17809695     -0.02709653     -0.00482581
AIVX     1  Mu1.0169  In1.010 Se1.035               6.57229447      0.17809695     -0.02709653     -0.00482581
AIVX     1  Mu1.0059  In1.011 Se1.037               3.78909546     -0.14459033      0.03731611     -0.00539555
AIVX     1  Mu1.0027  In1.011 Se1.038               3.53915567      0.14458907     -0.03990898     -0.00577040
AIVX     1  Mu1.0031  In1.011 Se1.041               3.61287433     -0.10324437      0.02792418     -0.00288301
BVATM    1  Mu1.0001  Se1.032 Se1.031               2.03145842      0.06953696     -0.03444701     -0.00239534
BVATM    1  Mu1.0001  Se1.038 Se1.037               5.01729977     -0.12994348      0.02589938     -0.00336546
BJAIP    1  Se1.033 In1.011 Se1.033 In1.011         4.23581477      0.10552808     -0.02630482     -0.00277590
--
 
   (Skipping property calculation,
    use PROP keyword to activate)
--
 
  Total CASPT2 energies:
::    CASPT2 Root  1     Total energy:  -1345.84364010
 
  A NEW JOBIPH FILE NAMED 'JOBMIX' IS PREPARED.
********************************************************************************
--- Stop Module: caspt2 at Tue Dec 24 14:01:31 2024 /rc=_RC_ALL_IS_WELL_ ---
*** files: xmldump
    saved to directory /home/grierjones/DDCASPT2/iron_oxo_DDCASPT2/cluster/3.48
--- Module caspt2 spent 5 minutes 28 seconds ---

>>> EXPORT i = B

>>> EXPORT j = P

>>> IF (-FILE GMJ_e2_${i}_${j}.csv)

>>> COPY /tmp/3.48/GMJ_RHS_B_P.csv /home/grierjones/DDCASPT2/iron_oxo_DDCASPT2/cluster/3.48/GMJ_RHS_B_P.csv

>>> COPY /tmp/3.48/GMJ_IVECW_B_P.csv /home/grierjones/DDCASPT2/iron_oxo_DDCASPT2/cluster/3.48/GMJ_IVECW_B_P.csv

>>> COPY /tmp/3.48/GMJ_IVECX_B_P.csv /home/grierjones/DDCASPT2/iron_oxo_DDCASPT2/cluster/3.48/GMJ_IVECX_B_P.csv

>>> COPY /tmp/3.48/GMJ_IVECC2_B_P.csv /home/grierjones/DDCASPT2/iron_oxo_DDCASPT2/cluster/3.48/GMJ_IVECC2_B_P.csv

>>> COPY /tmp/3.48/GMJ_e2_B_P.csv /home/grierjones/DDCASPT2/iron_oxo_DDCASPT2/cluster/3.48/GMJ_e2_B_P.csv

>>> END FOREACH

>>> EXPORT j = M

>>> IF (-FILE GMJ_e2_${i}_${j}.csv)

>>> COPY /tmp/3.48/GMJ_RHS_B_M.csv /home/grierjones/DDCASPT2/iron_oxo_DDCASPT2/cluster/3.48/GMJ_RHS_B_M.csv

>>> COPY /tmp/3.48/GMJ_IVECW_B_M.csv /home/grierjones/DDCASPT2/iron_oxo_DDCASPT2/cluster/3.48/GMJ_IVECW_B_M.csv

>>> COPY /tmp/3.48/GMJ_IVECX_B_M.csv /home/grierjones/DDCASPT2/iron_oxo_DDCASPT2/cluster/3.48/GMJ_IVECX_B_M.csv

>>> COPY /tmp/3.48/GMJ_IVECC2_B_M.csv /home/grierjones/DDCASPT2/iron_oxo_DDCASPT2/cluster/3.48/GMJ_IVECC2_B_M.csv

>>> COPY /tmp/3.48/GMJ_e2_B_M.csv /home/grierjones/DDCASPT2/iron_oxo_DDCASPT2/cluster/3.48/GMJ_e2_B_M.csv

>>> END FOREACH

>>> END FOREACH

>>> EXPORT i = E

>>> EXPORT j = P

>>> IF (-FILE GMJ_e2_${i}_${j}.csv)

>>> COPY /tmp/3.48/GMJ_RHS_E_P.csv /home/grierjones/DDCASPT2/iron_oxo_DDCASPT2/cluster/3.48/GMJ_RHS_E_P.csv

>>> COPY /tmp/3.48/GMJ_IVECW_E_P.csv /home/grierjones/DDCASPT2/iron_oxo_DDCASPT2/cluster/3.48/GMJ_IVECW_E_P.csv

>>> COPY /tmp/3.48/GMJ_IVECX_E_P.csv /home/grierjones/DDCASPT2/iron_oxo_DDCASPT2/cluster/3.48/GMJ_IVECX_E_P.csv

>>> COPY /tmp/3.48/GMJ_IVECC2_E_P.csv /home/grierjones/DDCASPT2/iron_oxo_DDCASPT2/cluster/3.48/GMJ_IVECC2_E_P.csv

>>> COPY /tmp/3.48/GMJ_e2_E_P.csv /home/grierjones/DDCASPT2/iron_oxo_DDCASPT2/cluster/3.48/GMJ_e2_E_P.csv

>>> END FOREACH

>>> EXPORT j = M

>>> IF (-FILE GMJ_e2_${i}_${j}.csv)

>>> COPY /tmp/3.48/GMJ_RHS_E_M.csv /home/grierjones/DDCASPT2/iron_oxo_DDCASPT2/cluster/3.48/GMJ_RHS_E_M.csv

>>> COPY /tmp/3.48/GMJ_IVECW_E_M.csv /home/grierjones/DDCASPT2/iron_oxo_DDCASPT2/cluster/3.48/GMJ_IVECW_E_M.csv

>>> COPY /tmp/3.48/GMJ_IVECX_E_M.csv /home/grierjones/DDCASPT2/iron_oxo_DDCASPT2/cluster/3.48/GMJ_IVECX_E_M.csv

>>> COPY /tmp/3.48/GMJ_IVECC2_E_M.csv /home/grierjones/DDCASPT2/iron_oxo_DDCASPT2/cluster/3.48/GMJ_IVECC2_E_M.csv

>>> COPY /tmp/3.48/GMJ_e2_E_M.csv /home/grierjones/DDCASPT2/iron_oxo_DDCASPT2/cluster/3.48/GMJ_e2_E_M.csv

>>> END FOREACH

>>> END FOREACH

>>> EXPORT i = F

>>> EXPORT j = P

>>> IF (-FILE GMJ_e2_${i}_${j}.csv)

>>> COPY /tmp/3.48/GMJ_RHS_F_P.csv /home/grierjones/DDCASPT2/iron_oxo_DDCASPT2/cluster/3.48/GMJ_RHS_F_P.csv

>>> COPY /tmp/3.48/GMJ_IVECW_F_P.csv /home/grierjones/DDCASPT2/iron_oxo_DDCASPT2/cluster/3.48/GMJ_IVECW_F_P.csv

>>> COPY /tmp/3.48/GMJ_IVECX_F_P.csv /home/grierjones/DDCASPT2/iron_oxo_DDCASPT2/cluster/3.48/GMJ_IVECX_F_P.csv

>>> COPY /tmp/3.48/GMJ_IVECC2_F_P.csv /home/grierjones/DDCASPT2/iron_oxo_DDCASPT2/cluster/3.48/GMJ_IVECC2_F_P.csv

>>> COPY /tmp/3.48/GMJ_e2_F_P.csv /home/grierjones/DDCASPT2/iron_oxo_DDCASPT2/cluster/3.48/GMJ_e2_F_P.csv

>>> END FOREACH

>>> EXPORT j = M

>>> IF (-FILE GMJ_e2_${i}_${j}.csv)

>>> COPY /tmp/3.48/GMJ_RHS_F_M.csv /home/grierjones/DDCASPT2/iron_oxo_DDCASPT2/cluster/3.48/GMJ_RHS_F_M.csv

>>> COPY /tmp/3.48/GMJ_IVECW_F_M.csv /home/grierjones/DDCASPT2/iron_oxo_DDCASPT2/cluster/3.48/GMJ_IVECW_F_M.csv

>>> COPY /tmp/3.48/GMJ_IVECX_F_M.csv /home/grierjones/DDCASPT2/iron_oxo_DDCASPT2/cluster/3.48/GMJ_IVECX_F_M.csv

>>> COPY /tmp/3.48/GMJ_IVECC2_F_M.csv /home/grierjones/DDCASPT2/iron_oxo_DDCASPT2/cluster/3.48/GMJ_IVECC2_F_M.csv

>>> COPY /tmp/3.48/GMJ_e2_F_M.csv /home/grierjones/DDCASPT2/iron_oxo_DDCASPT2/cluster/3.48/GMJ_e2_F_M.csv

>>> END FOREACH

>>> END FOREACH

>>> EXPORT i = G

>>> EXPORT j = P

>>> IF (-FILE GMJ_e2_${i}_${j}.csv)

>>> COPY /tmp/3.48/GMJ_RHS_G_P.csv /home/grierjones/DDCASPT2/iron_oxo_DDCASPT2/cluster/3.48/GMJ_RHS_G_P.csv

>>> COPY /tmp/3.48/GMJ_IVECW_G_P.csv /home/grierjones/DDCASPT2/iron_oxo_DDCASPT2/cluster/3.48/GMJ_IVECW_G_P.csv

>>> COPY /tmp/3.48/GMJ_IVECX_G_P.csv /home/grierjones/DDCASPT2/iron_oxo_DDCASPT2/cluster/3.48/GMJ_IVECX_G_P.csv

>>> COPY /tmp/3.48/GMJ_IVECC2_G_P.csv /home/grierjones/DDCASPT2/iron_oxo_DDCASPT2/cluster/3.48/GMJ_IVECC2_G_P.csv

>>> COPY /tmp/3.48/GMJ_e2_G_P.csv /home/grierjones/DDCASPT2/iron_oxo_DDCASPT2/cluster/3.48/GMJ_e2_G_P.csv

>>> END FOREACH

>>> EXPORT j = M

>>> IF (-FILE GMJ_e2_${i}_${j}.csv)

>>> COPY /tmp/3.48/GMJ_RHS_G_M.csv /home/grierjones/DDCASPT2/iron_oxo_DDCASPT2/cluster/3.48/GMJ_RHS_G_M.csv

>>> COPY /tmp/3.48/GMJ_IVECW_G_M.csv /home/grierjones/DDCASPT2/iron_oxo_DDCASPT2/cluster/3.48/GMJ_IVECW_G_M.csv

>>> COPY /tmp/3.48/GMJ_IVECX_G_M.csv /home/grierjones/DDCASPT2/iron_oxo_DDCASPT2/cluster/3.48/GMJ_IVECX_G_M.csv

>>> COPY /tmp/3.48/GMJ_IVECC2_G_M.csv /home/grierjones/DDCASPT2/iron_oxo_DDCASPT2/cluster/3.48/GMJ_IVECC2_G_M.csv

>>> COPY /tmp/3.48/GMJ_e2_G_M.csv /home/grierjones/DDCASPT2/iron_oxo_DDCASPT2/cluster/3.48/GMJ_e2_G_M.csv

>>> END FOREACH

>>> END FOREACH

>>> EXPORT i = H

>>> EXPORT j = P

>>> IF (-FILE GMJ_e2_${i}_${j}.csv)

>>> COPY /tmp/3.48/GMJ_RHS_H_P.csv /home/grierjones/DDCASPT2/iron_oxo_DDCASPT2/cluster/3.48/GMJ_RHS_H_P.csv

>>> COPY /tmp/3.48/GMJ_IVECW_H_P.csv /home/grierjones/DDCASPT2/iron_oxo_DDCASPT2/cluster/3.48/GMJ_IVECW_H_P.csv

>>> COPY /tmp/3.48/GMJ_IVECX_H_P.csv /home/grierjones/DDCASPT2/iron_oxo_DDCASPT2/cluster/3.48/GMJ_IVECX_H_P.csv

>>> COPY /tmp/3.48/GMJ_IVECC2_H_P.csv /home/grierjones/DDCASPT2/iron_oxo_DDCASPT2/cluster/3.48/GMJ_IVECC2_H_P.csv

>>> COPY /tmp/3.48/GMJ_e2_H_P.csv /home/grierjones/DDCASPT2/iron_oxo_DDCASPT2/cluster/3.48/GMJ_e2_H_P.csv

>>> END FOREACH

>>> EXPORT j = M

>>> IF (-FILE GMJ_e2_${i}_${j}.csv)

>>> COPY /tmp/3.48/GMJ_RHS_H_M.csv /home/grierjones/DDCASPT2/iron_oxo_DDCASPT2/cluster/3.48/GMJ_RHS_H_M.csv

>>> COPY /tmp/3.48/GMJ_IVECW_H_M.csv /home/grierjones/DDCASPT2/iron_oxo_DDCASPT2/cluster/3.48/GMJ_IVECW_H_M.csv

>>> COPY /tmp/3.48/GMJ_IVECX_H_M.csv /home/grierjones/DDCASPT2/iron_oxo_DDCASPT2/cluster/3.48/GMJ_IVECX_H_M.csv

>>> COPY /tmp/3.48/GMJ_IVECC2_H_M.csv /home/grierjones/DDCASPT2/iron_oxo_DDCASPT2/cluster/3.48/GMJ_IVECC2_H_M.csv

>>> COPY /tmp/3.48/GMJ_e2_H_M.csv /home/grierjones/DDCASPT2/iron_oxo_DDCASPT2/cluster/3.48/GMJ_e2_H_M.csv

>>> END FOREACH

>>> END FOREACH

>>> EXPORT i = A

>>> IF (-FILE GMJ_e2_$i.csv)

>>> COPY /tmp/3.48/GMJ_RHS_A.csv /home/grierjones/DDCASPT2/iron_oxo_DDCASPT2/cluster/3.48/GMJ_RHS_A.csv

>>> COPY /tmp/3.48/GMJ_IVECW_A.csv /home/grierjones/DDCASPT2/iron_oxo_DDCASPT2/cluster/3.48/GMJ_IVECW_A.csv

>>> COPY /tmp/3.48/GMJ_IVECX_A.csv /home/grierjones/DDCASPT2/iron_oxo_DDCASPT2/cluster/3.48/GMJ_IVECX_A.csv

>>> COPY /tmp/3.48/GMJ_IVECC2_A.csv /home/grierjones/DDCASPT2/iron_oxo_DDCASPT2/cluster/3.48/GMJ_IVECC2_A.csv

>>> COPY /tmp/3.48/GMJ_e2_A.csv /home/grierjones/DDCASPT2/iron_oxo_DDCASPT2/cluster/3.48/GMJ_e2_A.csv

>>> END FOREACH

>>> EXPORT i = C

>>> IF (-FILE GMJ_e2_$i.csv)

>>> COPY /tmp/3.48/GMJ_RHS_C.csv /home/grierjones/DDCASPT2/iron_oxo_DDCASPT2/cluster/3.48/GMJ_RHS_C.csv

>>> COPY /tmp/3.48/GMJ_IVECW_C.csv /home/grierjones/DDCASPT2/iron_oxo_DDCASPT2/cluster/3.48/GMJ_IVECW_C.csv

>>> COPY /tmp/3.48/GMJ_IVECX_C.csv /home/grierjones/DDCASPT2/iron_oxo_DDCASPT2/cluster/3.48/GMJ_IVECX_C.csv

>>> COPY /tmp/3.48/GMJ_IVECC2_C.csv /home/grierjones/DDCASPT2/iron_oxo_DDCASPT2/cluster/3.48/GMJ_IVECC2_C.csv

>>> COPY /tmp/3.48/GMJ_e2_C.csv /home/grierjones/DDCASPT2/iron_oxo_DDCASPT2/cluster/3.48/GMJ_e2_C.csv

>>> END FOREACH

>>> EXPORT i = D

>>> IF (-FILE GMJ_e2_$i.csv)

>>> COPY /tmp/3.48/GMJ_RHS_D.csv /home/grierjones/DDCASPT2/iron_oxo_DDCASPT2/cluster/3.48/GMJ_RHS_D.csv

>>> COPY /tmp/3.48/GMJ_IVECW_D.csv /home/grierjones/DDCASPT2/iron_oxo_DDCASPT2/cluster/3.48/GMJ_IVECW_D.csv

>>> COPY /tmp/3.48/GMJ_IVECX_D.csv /home/grierjones/DDCASPT2/iron_oxo_DDCASPT2/cluster/3.48/GMJ_IVECX_D.csv

>>> COPY /tmp/3.48/GMJ_IVECC2_D.csv /home/grierjones/DDCASPT2/iron_oxo_DDCASPT2/cluster/3.48/GMJ_IVECC2_D.csv

>>> COPY /tmp/3.48/GMJ_e2_D.csv /home/grierjones/DDCASPT2/iron_oxo_DDCASPT2/cluster/3.48/GMJ_e2_D.csv

>>> END FOREACH

.########################.
.# Non-zero return code #.
.########################.

    Timing: Wall=571.66 User=567.30 System=4.18
************************************
*** WorkDir at /tmp/3.48 cleaned ***
************************************
