[Molden Format]
[N_Atoms]
                     2
[Atoms] (AU)
B1          1      5           0.00000000      0.00000000      0.00000000
B2          2      5           0.00000000      0.00000000      4.91328792
[Charge] (Mulliken)
  0.999999999998552     
   1.00000000000145     
[GTO] (AU)
   1
   s  14
  3.336021700E+04  1.039699991E-04
  4.972095200E+03  5.254399956E-04
  1.125641700E+03  2.509059979E-03
  3.164913600E+02  1.031887991E-02
  1.020072600E+02  3.636632969E-02
  3.629587300E+01  1.064607991E-01
  1.397141000E+01  2.403999880E-01
  5.741156000E+00  3.748581168E-01
  2.494268000E+00  3.100066974E-01
  1.114202000E+00  7.922455933E-02
  4.215490000E-01 -4.947589958E-03
  1.696330000E-01 -7.737119935E-03
  6.853500000E-02 -1.501079987E-03
  2.398700000E-02 -1.333299989E-04
   s  14
  3.336021700E+04 -2.030000008E-05
  4.972095200E+03 -1.025700004E-04
  1.125641700E+03 -4.911300020E-04
  3.164913600E+02 -2.026570008E-03
  1.020072600E+02 -7.261010030E-03
  3.629587300E+01 -2.197722009E-02
  1.397141000E+01 -5.408428022E-02
  5.741156000E+00 -1.022402604E-01
  2.494268000E+00 -1.423595206E-01
  1.114202000E+00 -4.658690019E-02
  4.215490000E-01  3.799402916E-01
  1.696330000E-01  5.890463624E-01
  6.853500000E-02  1.749075107E-01
  2.398700000E-02 -1.142030005E-03
   p   9
  5.500000000E+01  1.229800005E-03
  1.336610100E+01  8.827380035E-03
  4.135394000E+00  3.843340015E-02
  1.481256000E+00  1.150031805E-01
  6.021360000E-01  2.733674011E-01
  2.556360000E-01  4.061972116E-01
  1.111510000E-01  3.014967912E-01
  4.764800000E-02  7.684809030E-02
  1.667700000E-02 -8.170000032E-06
 
   2
   s  14
  3.336021700E+04  1.039699991E-04
  4.972095200E+03  5.254399956E-04
  1.125641700E+03  2.509059979E-03
  3.164913600E+02  1.031887991E-02
  1.020072600E+02  3.636632969E-02
  3.629587300E+01  1.064607991E-01
  1.397141000E+01  2.403999880E-01
  5.741156000E+00  3.748581168E-01
  2.494268000E+00  3.100066974E-01
  1.114202000E+00  7.922455933E-02
  4.215490000E-01 -4.947589958E-03
  1.696330000E-01 -7.737119935E-03
  6.853500000E-02 -1.501079987E-03
  2.398700000E-02 -1.333299989E-04
   s  14
  3.336021700E+04 -2.030000008E-05
  4.972095200E+03 -1.025700004E-04
  1.125641700E+03 -4.911300020E-04
  3.164913600E+02 -2.026570008E-03
  1.020072600E+02 -7.261010030E-03
  3.629587300E+01 -2.197722009E-02
  1.397141000E+01 -5.408428022E-02
  5.741156000E+00 -1.022402604E-01
  2.494268000E+00 -1.423595206E-01
  1.114202000E+00 -4.658690019E-02
  4.215490000E-01  3.799402916E-01
  1.696330000E-01  5.890463624E-01
  6.853500000E-02  1.749075107E-01
  2.398700000E-02 -1.142030005E-03
   p   9
  5.500000000E+01  1.229800005E-03
  1.336610100E+01  8.827380035E-03
  4.135394000E+00  3.843340015E-02
  1.481256000E+00  1.150031805E-01
  6.021360000E-01  2.733674011E-01
  2.556360000E-01  4.061972116E-01
  1.111510000E-01  3.014967912E-01
  4.764800000E-02  7.684809030E-02
  1.667700000E-02 -8.170000032E-06
 
[MO]
Sym=     1a  
Ene=    -8.5043
Spin= Alpha
Occup=    2.00000
   1         0.70703948
   2         0.00950123
   3         0.00000000
   4        -0.00000000
   5        -0.00046340
   6         0.70703960
   7         0.00950123
   8        -0.00000000
   9        -0.00000000
  10         0.00046340
Sym=     2a  
Ene=    -8.5043
Spin= Alpha
Occup=    2.00000
   1        -0.70704289
   2        -0.00926425
   3         0.00000000
   4        -0.00000000
   5         0.00066622
   6         0.70704277
   7         0.00926424
   8        -0.00000000
   9         0.00000000
  10         0.00066622
Sym=     3a  
Ene=    -1.0718
Spin= Alpha
Occup=    2.00000
   1        -0.01624856
   2         0.61200031
   3         0.00000000
   4         0.00000000
   5         0.15203134
   6        -0.01624856
   7         0.61200031
   8        -0.00000000
   9         0.00000000
  10        -0.15203134
Sym=     4a  
Ene=    -0.6393
Spin= Alpha
Occup=    1.00000
   1         0.00000000
   2         0.00000000
   3         0.41159547
   4         0.53116939
   5        -0.00000000
   6         0.00000000
   7        -0.00000000
   8         0.41159547
   9         0.53116939
  10         0.00000000
Sym=     5a  
Ene=    -0.0000
Spin= Alpha
Occup=    1.00000
   1        -0.00000000
   2         0.00000000
   3         0.53116939
   4        -0.41159547
   5        -0.00000000
   6         0.00000000
   7        -0.00000000
   8         0.53116939
   9        -0.41159547
  10        -0.00000000
Sym=     6a  
Ene=    -0.7537
Spin= Alpha
Occup=    0.00000
   1         0.00513969
   2        -0.74914984
   3         0.00000000
   4        -0.00000000
   5         0.05369505
   6        -0.00513969
   7         0.74914984
   8         0.00000000
   9        -0.00000000
  10         0.05369505
Sym=     7a  
Ene=    -0.5396
Spin= Alpha
Occup=    0.00000
   1         0.00708436
   2         0.27966836
   3        -0.00000000
   4         0.00000000
   5        -0.62885457
   6         0.00708436
   7         0.27966836
   8        -0.00000000
   9        -0.00000000
  10         0.62885457
Sym=     8a  
Ene=    -0.4924
Spin= Alpha
Occup=    0.00000
   1        -0.00000000
   2        -0.00000000
   3         0.61952312
   4        -0.41986327
   5        -0.00000000
   6         0.00000000
   7         0.00000000
   8        -0.61952312
   9         0.41986327
  10        -0.00000000
Sym=     9a  
Ene=    -0.4924
Spin= Alpha
Occup=    0.00000
   1         0.00000000
   2         0.00000000
   3        -0.41986327
   4        -0.61952312
   5        -0.00000000
   6         0.00000000
   7         0.00000000
   8         0.41986327
   9         0.61952312
  10         0.00000000
Sym=    10a  
Ene=    -0.3815
Spin= Alpha
Occup=    0.00000
   1        -0.01731544
   2        -0.27269063
   3        -0.00000000
   4         0.00000000
   5        -0.84366777
   6         0.01731544
   7         0.27269063
   8         0.00000000
   9         0.00000000
  10        -0.84366777
