[Molden Format]
[N_Atoms]
                     2
[Atoms] (AU)
B1          1      5           0.00000000      0.00000000      0.00000000
B2          2      5           0.00000000      0.00000000      4.91328792
[Charge] (Mulliken)
  3.977592595443724E-003
 -3.977592595457935E-003
[GTO] (AU)
   1
   s  14
  3.336021700E+04  1.039699991E-04
  4.972095200E+03  5.254399956E-04
  1.125641700E+03  2.509059979E-03
  3.164913600E+02  1.031887991E-02
  1.020072600E+02  3.636632969E-02
  3.629587300E+01  1.064607991E-01
  1.397141000E+01  2.403999880E-01
  5.741156000E+00  3.748581168E-01
  2.494268000E+00  3.100066974E-01
  1.114202000E+00  7.922455933E-02
  4.215490000E-01 -4.947589958E-03
  1.696330000E-01 -7.737119935E-03
  6.853500000E-02 -1.501079987E-03
  2.398700000E-02 -1.333299989E-04
   s  14
  3.336021700E+04 -2.030000008E-05
  4.972095200E+03 -1.025700004E-04
  1.125641700E+03 -4.911300020E-04
  3.164913600E+02 -2.026570008E-03
  1.020072600E+02 -7.261010030E-03
  3.629587300E+01 -2.197722009E-02
  1.397141000E+01 -5.408428022E-02
  5.741156000E+00 -1.022402604E-01
  2.494268000E+00 -1.423595206E-01
  1.114202000E+00 -4.658690019E-02
  4.215490000E-01  3.799402916E-01
  1.696330000E-01  5.890463624E-01
  6.853500000E-02  1.749075107E-01
  2.398700000E-02 -1.142030005E-03
   p   9
  5.500000000E+01  1.229800005E-03
  1.336610100E+01  8.827380035E-03
  4.135394000E+00  3.843340015E-02
  1.481256000E+00  1.150031805E-01
  6.021360000E-01  2.733674011E-01
  2.556360000E-01  4.061972116E-01
  1.111510000E-01  3.014967912E-01
  4.764800000E-02  7.684809030E-02
  1.667700000E-02 -8.170000032E-06
 
   2
   s  14
  3.336021700E+04  1.039699991E-04
  4.972095200E+03  5.254399956E-04
  1.125641700E+03  2.509059979E-03
  3.164913600E+02  1.031887991E-02
  1.020072600E+02  3.636632969E-02
  3.629587300E+01  1.064607991E-01
  1.397141000E+01  2.403999880E-01
  5.741156000E+00  3.748581168E-01
  2.494268000E+00  3.100066974E-01
  1.114202000E+00  7.922455933E-02
  4.215490000E-01 -4.947589958E-03
  1.696330000E-01 -7.737119935E-03
  6.853500000E-02 -1.501079987E-03
  2.398700000E-02 -1.333299989E-04
   s  14
  3.336021700E+04 -2.030000008E-05
  4.972095200E+03 -1.025700004E-04
  1.125641700E+03 -4.911300020E-04
  3.164913600E+02 -2.026570008E-03
  1.020072600E+02 -7.261010030E-03
  3.629587300E+01 -2.197722009E-02
  1.397141000E+01 -5.408428022E-02
  5.741156000E+00 -1.022402604E-01
  2.494268000E+00 -1.423595206E-01
  1.114202000E+00 -4.658690019E-02
  4.215490000E-01  3.799402916E-01
  1.696330000E-01  5.890463624E-01
  6.853500000E-02  1.749075107E-01
  2.398700000E-02 -1.142030005E-03
   p   9
  5.500000000E+01  1.229800005E-03
  1.336610100E+01  8.827380035E-03
  4.135394000E+00  3.843340015E-02
  1.481256000E+00  1.150031805E-01
  6.021360000E-01  2.733674011E-01
  2.556360000E-01  4.061972116E-01
  1.111510000E-01  3.014967912E-01
  4.764800000E-02  7.684809030E-02
  1.667700000E-02 -8.170000032E-06
 
[MO]
Sym=     1a  
Ene=    -7.6578
Spin= Alpha
Occup=    2.00000
   1         0.99998176
   2         0.00327636
   3         0.00000000
   4         0.00000000
   5         0.00040115
   6         0.00657205
   7         0.00144858
   8         0.00000000
   9         0.00000000
  10         0.00099265
Sym=     2a  
Ene=    -7.6535
Spin= Alpha
Occup=    2.00000
   1        -0.00656344
   2        -0.00021817
   3        -0.00000000
   4         0.00000000
   5        -0.00022004
   6         0.99988425
   7         0.01416422
   8        -0.00000000
   9        -0.00000000
  10        -0.00019715
Sym=     3a  
Ene=    -0.4944
Spin= Alpha
Occup=    2.00000
   1        -0.00792268
   2         0.00738571
   3         0.00000000
   4         0.00000000
   5         0.07696666
   6        -0.01551619
   7         0.97859703
   8        -0.00000000
   9         0.00000000
  10         0.00171222
Sym=     4a  
Ene=    -0.1868
Spin= Alpha
Occup=    2.00000
   1         0.00000000
   2         0.00000000
   3        -0.08396717
   4         0.66202811
   5        -0.00000000
   6         0.00000000
   7        -0.00000000
   8        -0.08513266
   9         0.67121721
  10         0.00000000
Sym=     5a  
Ene=     0.0970
Spin= Alpha
Occup=    0.06805
   1        -0.00000000
   2        -0.00000000
   3         0.99376072
   4         0.12604190
   5        -0.00000000
   6         0.00000000
   7         0.00000000
   8        -0.01731384
   9        -0.00219597
  10         0.00000000
Sym=     6a  
Ene=    -0.0003
Spin= Alpha
Occup=    1.93195
   1         0.00331312
   2        -0.99214625
   3         0.00000000
   4         0.00000000
   5         0.01649440
   6         0.00559334
   7         0.14508424
   8         0.00000000
   9         0.00000000
  10         0.06885801
Sym=     7a  
Ene=     0.0494
Spin= Alpha
Occup=    0.00000
   1         0.01011258
   2         0.16783448
   3        -0.00000000
   4        -0.00000000
   5        -0.64845196
   6         0.01015797
   7         0.18073395
   8        -0.00000000
   9        -0.00000000
  10         0.64222619
Sym=     8a  
Ene=     0.0616
Spin= Alpha
Occup=    0.00000
   1         0.00000000
   2         0.00000000
   3         0.09468832
   4        -0.74655758
   5        -0.00000000
   6         0.00000000
   7         0.00000000
   8        -0.09364184
   9         0.73830678
  10         0.00000000
Sym=     9a  
Ene=     0.1155
Spin= Alpha
Occup=    0.00000
   1         0.00000000
   2         0.00000000
   3        -0.08982807
   4        -0.01139319
   5        -0.00000000
   6         0.00000000
   7         0.00000000
   8         0.99766210
   9         0.12653672
  10         0.00000000
Sym=    10a  
Ene=     0.2432
Spin= Alpha
Occup=    0.00000
   1        -0.01650148
   2        -0.27555873
   3        -0.00000000
   4        -0.00000000
   5        -0.84056210
   6         0.01637009
   7         0.27740127
   8         0.00000000
   9         0.00000000
  10        -0.84618607
