   This run of MOLCAS is using the pymolcas driver

                             OPE
                             OPE          NMOL  CASOP  ENMOLC A   SO
                 OPE        NMOLC        AS  OP EN  MO LC     AS  OP
                OPENM       OL CA        SO  PE NM  OL CA     SOP EN
                OP EN      MO   LC       AS  OP ENMOL  CASO   PENMOL
                OP  EN     MO   LC       AS  OP EN     MO     LC ASO
               OP   E  NMOL  C  AS       OP  EN MO     LC     AS  OP
               OP  E   NMO   LC AS        OPEN  MO     LCASOP EN   M
               O  PEN   MO  LCA  SO
            OPE   NMO   L   CAS    OP
        OPENMOL  CASOP     ENMOL   CASOPE
     OPENMOLCA   SOPENMOLCASOPEN   MOLCASOPE
    OPENMOLCAS   OP           EN   MOL    CAS
    OPENMOLCAS       OP  ENM        O     LCA
    OPENMOLCAS    OPEN  MOLCASO     P  E  NMO
    OPENMOLCAS     OP               E  N  MOL
    OPENMOLCA   SO           PENM   O  L  CAS    OPEN    MO    LCAS
    OPENMOLCA   SOP           ENM   O  L  CAS   OP  EN  MOLC  AS   O
    OPENMOLCA   SOPE           NM      O  LCA   S      OP  EN MO
    OPENMOLC                AS         O  PEN   M      OL  CA  SOPE
    OPENMO        LCASOPE  NMOL        C  ASO   P      ENMOLC     AS
    OPE     NMO      LCA  SO     P     E   NM   OL  CA SO  PE N   MO
          OPENMOLCA            SOPE   NMO        LCAS  O    P  ENMO
     OPENMOLCASOPENMOLCASOPENMOLCASOPENMOLCA
        OPENMOLCASOPENMOLCASOPENMOLCASOPE
            OPENMOLCASOPENMOLCASOPENM
               OPENMOLCASOPENMOLCA        version: ea724fe96-dirty
                   OPENMOLCASO
                       OPE                tag:

 OpenMolcas is free software; you can redistribute it and/or modify it
 under the terms of the GNU Lesser General Public License version 2.1.
 OpenMolcas is distributed in the hope that it will be useful, but it
 is provided "as is" and without any express or implied warranties.
 For more details see the full text of the license in the file
 LICENSE or in <http://www.gnu.org/licenses/>.

                 Copyright (C) The OpenMolcas Authors
           For the author list and the recommended citation,
                   consult the file CONTRIBUTORS.md

           *************************************************
           * pymolcas version py2.28                       *
           *   build c4a6d18ded8cb6cad61d2372a9abd97c      *
           *   (after the EMIL interpreter by V. Veryazov) *
           *************************************************

configuration info
------------------
C Compiler ID: Intel
C flags: -std=gnu99
Fortran Compiler ID: Intel
Fortran flags: -fpp -i8 -r8 -heap-arrays
Definitions: _MOLCAS_;_I8_;_LINUX_
Parallel: OFF (GA=OFF)


   -------------------------------------------------------------------------------
  |
  |              Project: 4.62
  |       Submitted from: /home/grierjones/DDCASPT2/iron_oxo_DDCASPT2/cluster/4.62
  |         Scratch area: /tmp/4.62
  |      Save outputs to: /home/grierjones/DDCASPT2/iron_oxo_DDCASPT2/cluster/4.62
  |               Molcas: /home/grierjones/Test/build
  |
  | Scratch area is empty
  |
  |       MOLCAS_DRIVER = /usr/local/pymolcas
  | MOLCAS_KEEP_WORKDIR = NO
  |  MOLCAS_NEW_WORKDIR = YES
  |       MOLCAS_NPROCS = 1
  |        MOLCAS_PRINT = NORMAL
  |       MOLCAS_SOURCE = /home/grierjones/Test/build
  |    MOLCAS_STRUCTURE = 0
  |
   -------------------------------------------------------------------------------

++ ---------   Input file   ---------

&GATEWAY
coord=4.62.xyz
Basis = ANO-RCC-VDZP
Group = nosymm
Expert
End of Input

&SEWARD
End of Input

&SCF
UHF
charge
2
spin
5

>>> COPY $WorkDir/4.62.scf.h5 $CurrDir/

&RASSCF
Title= RASSCF
FileOrb
/home/grierjones/DDCASPT2/iron_oxo_DDCASPT2/cluster/4.60/4.60.RasOrb
NACTEL
10 0 0
RAS2
14
Symmetry
1
Spin
5
charge
2
orblisting
all
ITERation
300 200

>>> COPY $WorkDir/4.62.rasscf.h5 $CurrDir/

>>> COPY $WorkDir/GMJ_Fock_MO.csv $CurrDir/4.62.GMJ_Fock_MO.csv

>>> COPY $WorkDir/GMJ_PT2_Fock_MO.csv $CurrDir/4.62.GMJ_PT2_Fock_MO.csv

&MOTRA
Frozen=0
LUMORB

>>> COPY $WorkDir/GMJ_one_int_indx.csv $CurrDir/4.62.GMJ_one_int_indx.csv

>>> COPY $WorkDir/GMJ_one_int.csv $CurrDir/4.62.GMJ_one_int.csv

>>> COPY $WorkDir/GMJ_two_int_indx.csv $CurrDir/4.62.GMJ_two_int_indx.csv

>>> COPY $WorkDir/GMJ_two_int.csv $CurrDir/4.62.GMJ_two_int.csv

&CASPT2
Frozen
0
MAXITER
50

>>> FOREACH i IN (B,E,F,G,H)

  >>> FOREACH j IN (P,M)

    >>> IF (-FILE GMJ_e2_${i}_${j}.csv)

      >>> COPY $WorkDir/GMJ_RHS_${i}_${j}.csv $CurrDir/GMJ_RHS_${i}_${j}.csv

      >>> COPY $WorkDir/GMJ_IVECW_${i}_${j}.csv $CurrDir/GMJ_IVECW_${i}_${j}.csv

      >>> COPY $WorkDir/GMJ_IVECX_${i}_${j}.csv $CurrDir/GMJ_IVECX_${i}_${j}.csv

      >>> COPY $WorkDir/GMJ_IVECC2_${i}_${j}.csv $CurrDir/GMJ_IVECC2_${i}_${j}.csv

      >>> COPY $WorkDir/GMJ_e2_${i}_${j}.csv $CurrDir/GMJ_e2_${i}_${j}.csv

    >>> END IF

  >>> END FOREACH

>>> END FOREACH

>>> FOREACH i IN (A,C,D)

  >>> IF (-FILE GMJ_e2_$i.csv)

    >>> COPY $WorkDir/GMJ_RHS_$i.csv $CurrDir/GMJ_RHS_$i.csv

    >>> COPY $WorkDir/GMJ_IVECW_$i.csv $CurrDir/GMJ_IVECW_$i.csv

    >>> COPY $WorkDir/GMJ_IVECX_$i.csv $CurrDir/GMJ_IVECX_$i.csv

    >>> COPY $WorkDir/GMJ_IVECC2_$i.csv $CurrDir/GMJ_IVECC2_$i.csv

    >>> COPY $WorkDir/GMJ_e2_$i.csv $CurrDir/GMJ_e2_$i.csv

  >>> END IF

>>> END FOREACH

-- ----------------------------------

--- Start Module: gateway at Wed Dec 18 03:12:15 2024 ---
 
()()()()()()()()()()()()()()()()()()()()()()()()()()()()()()()()()()()()()()()()()()()()()()()()()()

                                              &GATEWAY

                                   only a single process is used
                       available to each process: 2.0 GB of memory, 1 thread?
()()()()()()()()()()()()()()()()()()()()()()()()()()()()()()()()()()()()()()()()()()()()()()()()()()
 
 ###############################################################################
 ###############################################################################
 ###                                                                         ###
 ###                                                                         ###
 ###                                                                         ###
 ###    WARNING: EXPERT option is ON!                                        ###
 ###                                                                         ###
 ###                                                                         ###
 ###############################################################################
 ###############################################################################
 
++    Symmetry information:
      ---------------------
 
                    Character Table for C1 
 
                             E  
                    a        1  x, y, xy, Rz, z, xz, Ry, yz, Rx, I
--
 
 
++    Basis set information:
      ----------------------
 
 
      Basis set label: O.ANO-RCC...3S2P1D.
 
      Electronic valence basis set:
      ------------------
      Associated Effective Charge   8.000000 au
      Associated Actual Charge      8.000000 au
      Nuclear Model: Point charge
 
      Shell  nPrim  nBasis  Cartesian Spherical Contaminant
         s      14       3        X                  
         p       9       2        X                  
         d       4       1                 X         
 
 
      Basis set label: FE.ANO-RCC...5S4P2D1F.
 
      Electronic valence basis set:
      ------------------
      Associated Effective Charge  26.000000 au
      Associated Actual Charge     26.000000 au
      Nuclear Model: Point charge
 
      Shell  nPrim  nBasis  Cartesian Spherical Contaminant
         s      21       5        X                  
         p      15       4        X                  
         d      10       2                 X         
         f       6       1                 X         
--
 
 
++    Molecular structure info:
      -------------------------
 
                    ************************************************ 
                    **** Cartesian Coordinates / Bohr, Angstrom **** 
                    ************************************************ 
 
     Center  Label                x              y              z                     x              y              z
        1      O1               0.000000       0.000000       5.873420              0.000000       0.000000       3.108080
        2      FE2              0.000000       0.000000      -2.849858              0.000000       0.000000      -1.508080
--
 
 
            Nuclear Potential Energy             23.84424713 au
 
 ###############################################################################
 ###############################################################################
 ###                                                                         ###
 ###                                                                         ###
 ###    There were warnings during the execution                             ###
 ###    Please, check the output with care!                                  ###
 ###                                                                         ###
 ###                                                                         ###
 ###############################################################################
 ###############################################################################
--- Stop Module: gateway at Wed Dec 18 03:12:15 2024 /rc=_RC_ALL_IS_WELL_ ---
*** files: xmldump
    saved to directory /home/grierjones/DDCASPT2/iron_oxo_DDCASPT2/cluster/4.62

--- Start Module: seward at Wed Dec 18 03:12:15 2024 ---
 
()()()()()()()()()()()()()()()()()()()()()()()()()()()()()()()()()()()()()()()()()()()()()()()()()()

                                              &SEWARD

                                   only a single process is used
                       available to each process: 2.0 GB of memory, 1 thread?
()()()()()()()()()()()()()()()()()()()()()()()()()()()()()()()()()()()()()()()()()()()()()()()()()()
 
 ###############################################################################
 ###############################################################################
 ###                                                                         ###
 ###                                                                         ###
 ###                                                                         ###
 ###    WARNING: EXPERT option is ON!                                        ###
 ###                                                                         ###
 ###                                                                         ###
 ###############################################################################
 ###############################################################################
               SEWARD will generate:
                  Multipole Moment integrals up to order  2
                  Kinetic Energy integrals
                  Nuclear Attraction integrals (point charge)
                  One-Electron Hamiltonian integrals
                  Velocity integrals
                  Relativistic Douglas-Kroll-Hess integrals:
                    - Parametrization         : EXP
                    - DKH order of Hamiltonian: 2
                    - DKH order of Properties : 0
                         - multipole moment operators
                         - electric potential operators
                         - contact operators
                  Atomic mean-field integrals
                  Two-Electron Repulsion integrals
 
                   Integrals are discarded if absolute value <: 0.10E-13
                   Integral cutoff threshold is set to       <: 0.10E-15
 
            Nuclear Potential Energy             23.84424713 au
 
 
      Basis set specifications :
      Symmetry species         a  
      Basis functions           48
 
 
  Input file to MOLDEN was generated!
 
 ###############################################################################
 ###############################################################################
 ###                                                                         ###
 ###                                                                         ###
 ###    There were warnings during the execution                             ###
 ###    Please, check the output with care!                                  ###
 ###                                                                         ###
 ###                                                                         ###
 ###############################################################################
 ###############################################################################
--- Stop Module: seward at Wed Dec 18 03:12:16 2024 /rc=_RC_ALL_IS_WELL_ ---
*** files: 4.62.GssOrb 4.62.guessorb.h5 4.62.guessorb.molden xmldump
    saved to directory /home/grierjones/DDCASPT2/iron_oxo_DDCASPT2/cluster/4.62

*** symbolic link created: INPORB -> 4.62.GssOrb
--- Start Module: scf at Wed Dec 18 03:12:16 2024 ---
 
()()()()()()()()()()()()()()()()()()()()()()()()()()()()()()()()()()()()()()()()()()()()()()()()()()

                                                &SCF

                                   only a single process is used
                       available to each process: 2.0 GB of memory, 1 thread?
()()()()()()()()()()()()()()()()()()()()()()()()()()()()()()()()()()()()()()()()()()()()()()()()()()
 
 *** Possible bug in opening file
 *** isFreeUnit resets the unit number
++    Input section:
      --------------
 
      Header of the integral files:
      
       Integrals generated by seward 4.2.0  , Wed Dec 18 03:12:15 2024
 
 
      Cartesian coordinates in Angstrom:
      -----------------------------------------------------
      No.  Label        X            Y            Z        
      -----------------------------------------------------
       1   O1         0.00000000   0.00000000   3.10808000
       2   FE2        0.00000000   0.00000000  -1.50808000
      -----------------------------------------------------
      Nuclear repulsion energy =   23.84424713
--
 
++    Orbital specifications:
      -----------------------
 
      Symmetry species               1
                                     a
      Frozen orbitals                0
      Start temperature = 0.500
      End temperature   = 0.010
      Temperature Factor= 0.460
      Deleted orbitals               0
      Total number of orbitals      48
      Number of basis functions     48
--
 
      Molecular charge                           2.000
 
++    Optimization specifications:
      ----------------------------
 
      SCF Algorithm: Conventional USCF
      D(i)-D(i-1) density differences are used
      Number of density matrices in core                5
      Maximum number of NDDO SCF iterations           400
      Maximum number of HF SCF iterations             400
      Threshold for SCF energy change            0.10E-08
      Threshold for density matrix               0.10E-03
      Threshold for Fock matrix                  0.15E-03
      Threshold for linear dependence            0.10E-08
      Threshold at which DIIS is turned on       0.15E+00
      Threshold at which QNR/C2DIIS is turned on 0.75E-01
      Threshold for Norm(delta) (QNR/C2DIIS)     0.20E-04
      DIIS extrapolation of the SCF procedure
      All orbitals punched on: UHFORB
--
 
      Input vectors read from INPORB
      Orbital file label: *Guess orbitals
 
 
++ Convergence information
                               UHF SCF        iterations: Energy and convergence statistics
 
Iter     Tot. SCF        One-elec.       Two-elec.     Energy      Max Dij or  Max Fij      DNorm      TNorm      AccCon     Time
         Energy          Energy          Energy        Change      Delta Norm                                                in Sec.
 
 The total and one-electron energies are shifted by a value of      1000. a.u.
 
   1  -343.288215272  -880.989130717   513.856668317   0.00E+00    0.16E+00*   0.36E+00*    0.75E+01   0.18E+03   None         0.
   2  -343.469231465  -876.810645070   509.497166478  -0.18E+00*   0.11E+00*   0.16E+00*    0.10E+01   0.18E+03   EDIIS        0.
   3  -341.611595458  -924.895425106   559.439582520   0.19E+01*   0.64E-01*   0.19E+00*    0.18E+01   0.19E+03   EDIIS        0.
   4  -342.959755557  -865.506173382   498.702170698  -0.13E+01*   0.76E-01*   0.86E-01*    0.15E+01   0.17E+03   EDIIS        0.
   5  -344.067681194  -898.648618186   530.736689864  -0.11E+01*   0.38E-01*   0.45E-01*    0.85E+00   0.18E+03   EDIIS        0.
   6  -344.221261117  -871.227428823   503.161920578  -0.15E+00*   0.36E+00*   0.21E+00*    0.18E+01   0.18E+03   EDIIS        0.
   7  -342.749342904  -913.887853006   547.294262975   0.15E+01*   0.43E+00*   0.30E-01*    0.22E+01   0.19E+03   EDIIS        0.
   8  -345.128809156  -883.024206825   514.051150542  -0.24E+01*   0.67E+00*   0.17E+00*    0.20E+01   0.18E+03   EDIIS        0.
   9  -345.254108627  -880.317290223   511.218934469  -0.13E+00*   0.19E+00*   0.18E+00*    0.12E+01   0.18E+03   EDIIS        0.
  10  -345.287735236  -882.519995483   513.388013119  -0.34E-01*   0.28E+00*   0.63E-01*    0.51E+00   0.18E+03   EDIIS        0.
  11  -345.297390289  -880.864242085   511.722604669  -0.97E-02*   0.10E+00*   0.32E-01*    0.42E+00   0.18E+03   EDIIS        0.
 
       Fermi aufbau procedure completed!
      nOcc(alpha)=   18
      nOcc(beta) =   14
 
  12  -345.300610779  -881.511827876   512.366969970  -0.32E-02*   0.63E-01*   0.84E-02*    0.18E+00   0.18E+03   EDIIS        0.
  13  -345.301389958  -881.218256573   512.072619488  -0.78E-03*   0.25E-01*   0.67E-02*    0.10E+00   0.18E+03   EDIIS        0.
  14  -345.301614017  -881.332264936   512.186403791  -0.22E-03*   0.14E-01*   0.34E-02*    0.48E-01   0.18E+03   EDIIS        0.
  15  -345.301681565  -881.285405769   512.139477076  -0.68E-04*   0.63E-02*   0.23E-02*    0.25E-01   0.18E+03   EDIIS        0.
  16  -345.301703667  -881.303230941   512.157280146  -0.22E-04*   0.98E-03*   0.27E-02*    0.13E-01   0.18E+03   c2DIIS       0.
  17  -345.301714907  -881.288284944   512.142322910  -0.11E-04*   0.12E-02*   0.31E-03*    0.32E-02   0.18E+03   QNRc2DIIS    0.
  18  -345.301715341  -881.301393670   512.155431202  -0.43E-06*   0.89E-03*   0.16E-03*    0.16E-02   0.18E+03   QNRc2DIIS    0.
  19  -345.301715497  -881.299491459   512.153528834  -0.16E-06*   0.63E-03*   0.66E-04     0.12E-02   0.18E+03   QNRc2DIIS    0.
  20  -345.301715533  -881.297710616   512.151747955  -0.36E-07*   0.68E-04*   0.52E-05     0.83E-03   0.18E+03   QNRc2DIIS    0.
  21  -345.301715534  -881.297683363   512.151720702  -0.19E-09    0.39E-05    0.15E-05     0.95E-04   0.18E+03   QNRc2DIIS    0.
 
       Convergence after 21 Macro Iterations
--
 
 *****************************************************************************************************************************
 *                                                                                                                           *
 *                                             SCF/KS-DFT Program, Final results                                             *
 *                                                                                                                           *
 *                                                                                                                           *
 *                                                                                                                           *
 *                                                       Final Results                                                       *
 *                                                                                                                           *
 *****************************************************************************************************************************
 
::    Total SCF energy                              -1345.3017155335
      One-electron energy                           -1881.2976833631
      Two-electron energy                             512.1517207022
      Nuclear repulsion energy                         23.8442471273
      Kinetic energy (interpolated)                  1399.7934599574
      Virial theorem                                    0.9610715824
      Total spin, S(S+1)                                8.0105669542
      Total spin, S                                     2.3741202052
      Max non-diagonal density matrix element           0.0000017737
      Max non-diagonal Fock matrix element              0.0000002974
 
 
      All orbitals with orbital energies smaller than  E(LUMO)+0.5 are printed
 
++    Molecular orbitals:
      -------------------
 
      Title: UHF orbitals (alpha)

      Molecular orbitals for symmetry species 1: a  
 
          Orbital            1         2         3         4         5         6         7         8         9        10    
          Energy         -264.6156  -33.4931  -28.5570  -28.5570  -28.5570  -20.8671   -5.4413   -3.9813   -3.9813   -3.9812
          Occ. No.          1.0000    1.0000    1.0000    1.0000    1.0000    1.0000    1.0000    1.0000    1.0000    1.0000
 
        1 O1     1s        -0.0000   -0.0000   -0.0000    0.0000    0.0000    1.0000   -0.0000   -0.0000   -0.0000   -0.0000
        2 O1     2s        -0.0000   -0.0000   -0.0000    0.0000    0.0000   -0.0022   -0.0004   -0.0000   -0.0000   -0.0002
        3 O1     3s        -0.0000   -0.0000   -0.0001    0.0000    0.0000    0.0004   -0.0005   -0.0000   -0.0000   -0.0002
        4 O1     2px        0.0000   -0.0000    0.0000   -0.0000   -0.0000    0.0000    0.0000   -0.0000   -0.0000    0.0000
        5 O1     3px        0.0000    0.0000   -0.0000   -0.0000   -0.0000   -0.0000   -0.0000   -0.0000   -0.0001    0.0000
        6 O1     2py       -0.0000    0.0000   -0.0000   -0.0000    0.0000    0.0000    0.0000   -0.0000    0.0000    0.0000
        7 O1     3py        0.0000   -0.0000   -0.0000   -0.0000    0.0000   -0.0000    0.0000   -0.0001    0.0000    0.0000
        8 O1     2pz        0.0000    0.0000    0.0000   -0.0000   -0.0000   -0.0001    0.0002    0.0000    0.0000    0.0001
        9 O1     3pz        0.0000    0.0000    0.0001   -0.0000   -0.0000    0.0000    0.0004    0.0000   -0.0000    0.0000
       10 O1     3d2-       0.0000   -0.0000    0.0000    0.0000    0.0000   -0.0000   -0.0000   -0.0000   -0.0000   -0.0000
       11 O1     3d1-      -0.0000   -0.0000    0.0000    0.0000   -0.0000   -0.0000    0.0000    0.0000   -0.0000   -0.0000
       12 O1     3d0        0.0000   -0.0000   -0.0000    0.0000    0.0000    0.0009   -0.0000   -0.0000   -0.0000   -0.0000
       13 O1     3d1+       0.0000   -0.0000    0.0000    0.0000    0.0000    0.0000   -0.0000    0.0000    0.0000   -0.0000
       14 O1     3d2+       0.0000   -0.0000   -0.0000    0.0000    0.0000   -0.0000   -0.0000    0.0000   -0.0000   -0.0000
       15 FE2    1s         1.0000   -0.0000   -0.0000    0.0000   -0.0000   -0.0000    0.0000   -0.0000   -0.0000    0.0000
       16 FE2    2s         0.0000    1.0000   -0.0000    0.0000   -0.0000   -0.0000   -0.0035   -0.0000    0.0000   -0.0000
       17 FE2    3s        -0.0000    0.0035    0.0000   -0.0000    0.0000   -0.0000    0.9999    0.0000   -0.0000   -0.0000
       18 FE2    4s         0.0000   -0.0003    0.0000   -0.0000   -0.0000   -0.0000   -0.0076    0.0000    0.0000    0.0000
       19 FE2    5s        -0.0000    0.0004    0.0000   -0.0000   -0.0000   -0.0001    0.0083    0.0000    0.0000    0.0000
       20 FE2    2px        0.0000    0.0000    0.0000    0.0157    0.9999   -0.0000   -0.0000   -0.0000   -0.0035    0.0000
       21 FE2    3px        0.0000   -0.0000    0.0000    0.0001    0.0035    0.0000    0.0000    0.0038    0.9996   -0.0000
       22 FE2    4px       -0.0000    0.0000   -0.0000   -0.0000   -0.0006    0.0000   -0.0000   -0.0001   -0.0192    0.0000
       23 FE2    5px       -0.0000    0.0000    0.0000    0.0000    0.0015   -0.0000    0.0000    0.0001    0.0182   -0.0000
       24 FE2    2py       -0.0000   -0.0000    0.0000    0.9999   -0.0157   -0.0000    0.0000   -0.0035    0.0000    0.0000
       25 FE2    3py        0.0000    0.0000    0.0000    0.0035   -0.0001   -0.0000   -0.0000    0.9996   -0.0038   -0.0000
       26 FE2    4py       -0.0000   -0.0000   -0.0000   -0.0006    0.0000   -0.0000    0.0000   -0.0192    0.0001    0.0000
       27 FE2    5py        0.0000    0.0000    0.0000    0.0015   -0.0000   -0.0000   -0.0000    0.0182   -0.0001   -0.0000
       28 FE2    2pz        0.0000    0.0000    1.0000   -0.0000   -0.0000    0.0000   -0.0000   -0.0000   -0.0000   -0.0035
       29 FE2    3pz       -0.0000    0.0000    0.0035   -0.0000   -0.0000   -0.0000    0.0001    0.0000    0.0000    0.9996
       30 FE2    4pz        0.0000    0.0000   -0.0006    0.0000    0.0000   -0.0001    0.0001   -0.0000   -0.0000   -0.0192
       31 FE2    5pz       -0.0000    0.0000    0.0015   -0.0000   -0.0000   -0.0000    0.0001    0.0000    0.0000    0.0182
       32 FE2    3d2-       0.0000    0.0000    0.0000   -0.0000    0.0000    0.0000    0.0000    0.0000   -0.0000   -0.0000
       33 FE2    4d2-      -0.0000   -0.0000   -0.0000    0.0000   -0.0000   -0.0000   -0.0000   -0.0000   -0.0000    0.0000
       34 FE2    3d1-      -0.0000   -0.0000    0.0000    0.0000   -0.0000   -0.0000   -0.0000    0.0000   -0.0000   -0.0000
       35 FE2    4d1-       0.0000    0.0000    0.0000    0.0000   -0.0000   -0.0000    0.0000   -0.0000    0.0000    0.0000
       36 FE2    3d0        0.0000    0.0000    0.0000   -0.0000    0.0000   -0.0000   -0.0000    0.0000    0.0000    0.0001
       37 FE2    4d0        0.0000    0.0000    0.0000   -0.0000   -0.0000   -0.0000    0.0001    0.0000   -0.0000   -0.0000
       38 FE2    3d1+       0.0000   -0.0000   -0.0000    0.0000    0.0000    0.0000   -0.0000    0.0000    0.0000   -0.0000
       39 FE2    4d1+       0.0000    0.0000    0.0000    0.0000    0.0000   -0.0000    0.0000   -0.0000   -0.0000    0.0000
       40 FE2    3d2+       0.0000   -0.0000   -0.0000   -0.0000   -0.0000    0.0000    0.0000   -0.0000   -0.0000    0.0000
       41 FE2    4d2+      -0.0000    0.0000    0.0000    0.0000    0.0000   -0.0000   -0.0000    0.0000   -0.0000    0.0000
       42 FE2    4f3-      -0.0000    0.0000   -0.0000    0.0000    0.0000    0.0000   -0.0000   -0.0000   -0.0000    0.0000
       43 FE2    4f2-       0.0000   -0.0000   -0.0000   -0.0000    0.0000   -0.0000    0.0000   -0.0000   -0.0000   -0.0000
       44 FE2    4f1-      -0.0000    0.0000    0.0000    0.0000   -0.0000   -0.0000    0.0000   -0.0000    0.0000    0.0000
       45 FE2    4f0       -0.0000    0.0000    0.0000   -0.0000   -0.0000   -0.0000    0.0000   -0.0000   -0.0000   -0.0000
       46 FE2    4f1+       0.0000   -0.0000    0.0000    0.0000    0.0000    0.0000    0.0000   -0.0000   -0.0000    0.0000
       47 FE2    4f2+      -0.0000    0.0000   -0.0000   -0.0000   -0.0000   -0.0000    0.0000    0.0000   -0.0000    0.0000
       48 FE2    4f3+       0.0000   -0.0000   -0.0000   -0.0000    0.0000    0.0000    0.0000   -0.0000    0.0000   -0.0000
 
          Orbital           11        12        13        14        15        16        17        18        19        20    
          Energy           -1.6620   -1.6620   -1.6620   -1.6619   -1.6619   -1.3108   -0.9494   -0.7502   -0.4813   -0.4813
          Occ. No.          1.0000    1.0000    1.0000    1.0000    1.0000    1.0000    1.0000    1.0000    0.0000    0.0000
 
        1 O1     1s        -0.0000    0.0000    0.0001   -0.0000    0.0000    0.0021    0.0008    0.0002    0.0000    0.0000
        2 O1     2s        -0.0000    0.0000    0.0011   -0.0000    0.0000    0.9991    0.0039    0.0224    0.0000    0.0000
        3 O1     3s        -0.0000    0.0000    0.0009   -0.0000    0.0000    0.0223    0.0071   -0.0127    0.0000    0.0000
        4 O1     2px        0.0000   -0.0000    0.0000    0.0003   -0.0000   -0.0000   -0.0000    0.0000   -0.0008    0.0007
        5 O1     3px       -0.0000   -0.0000    0.0000    0.0006   -0.0000    0.0000    0.0000    0.0000   -0.0035    0.0028
        6 O1     2py        0.0000    0.0000   -0.0000    0.0000    0.0003   -0.0000    0.0000   -0.0000   -0.0007   -0.0008
        7 O1     3py        0.0000    0.0000   -0.0000    0.0000    0.0006    0.0000    0.0000   -0.0000   -0.0028   -0.0035
        8 O1     2pz        0.0000   -0.0000   -0.0009    0.0000   -0.0000   -0.0201   -0.0151    0.9960   -0.0000   -0.0000
        9 O1     3pz        0.0000   -0.0000   -0.0008    0.0000   -0.0000   -0.0076   -0.0048    0.0512   -0.0000   -0.0000
       10 O1     3d2-       0.0000    0.0000   -0.0000   -0.0000   -0.0000    0.0000    0.0000    0.0000    0.0000   -0.0000
       11 O1     3d1-      -0.0000   -0.0000   -0.0000   -0.0000   -0.0001   -0.0000    0.0000    0.0000   -0.0000   -0.0000
       12 O1     3d0       -0.0000    0.0000    0.0001   -0.0000    0.0000    0.0298    0.0001   -0.0064    0.0000    0.0000
       13 O1     3d1+       0.0000   -0.0000   -0.0000   -0.0001    0.0000    0.0000    0.0000   -0.0000   -0.0000    0.0000
       14 O1     3d2+       0.0000   -0.0000    0.0000    0.0000   -0.0000   -0.0000   -0.0000    0.0000   -0.0000   -0.0000
       15 FE2    1s         0.0000   -0.0000   -0.0000    0.0000   -0.0000   -0.0000   -0.0000    0.0000   -0.0000   -0.0000
       16 FE2    2s         0.0000   -0.0000   -0.0000    0.0000    0.0000   -0.0000    0.0004    0.0003   -0.0000   -0.0000
       17 FE2    3s        -0.0000    0.0000    0.0000   -0.0000    0.0000   -0.0001    0.0101    0.0017   -0.0000   -0.0000
       18 FE2    4s         0.0000   -0.0000   -0.0003    0.0000   -0.0000    0.0009    0.9275    0.0226   -0.0000   -0.0000
       19 FE2    5s         0.0000   -0.0000   -0.0003    0.0000   -0.0000   -0.0010   -0.3720   -0.0130   -0.0000   -0.0000
       20 FE2    2px        0.0000   -0.0000   -0.0000   -0.0000    0.0000   -0.0000   -0.0000    0.0000    0.0004   -0.0003
       21 FE2    3px        0.0000    0.0000   -0.0000   -0.0001    0.0000   -0.0000   -0.0000   -0.0000    0.0145   -0.0117
       22 FE2    4px        0.0000   -0.0000   -0.0000   -0.0002    0.0000   -0.0000    0.0000   -0.0000    0.7767   -0.6291
       23 FE2    5px       -0.0000    0.0000   -0.0000   -0.0000    0.0000   -0.0000    0.0000    0.0000    0.0252   -0.0204
       24 FE2    2py        0.0000    0.0000   -0.0000   -0.0000   -0.0000   -0.0000   -0.0000    0.0000    0.0003    0.0004
       25 FE2    3py       -0.0000   -0.0000    0.0000   -0.0000   -0.0001    0.0000   -0.0000   -0.0000    0.0117    0.0145
       26 FE2    4py        0.0000   -0.0000    0.0000   -0.0000   -0.0002    0.0000   -0.0000   -0.0000    0.6291    0.7767
       27 FE2    5py       -0.0000   -0.0000   -0.0000   -0.0000   -0.0000    0.0000   -0.0000    0.0000    0.0204    0.0252
       28 FE2    2pz        0.0000   -0.0000   -0.0000    0.0000   -0.0000   -0.0000   -0.0000    0.0000   -0.0000   -0.0000
       29 FE2    3pz        0.0000   -0.0000   -0.0001    0.0000   -0.0000   -0.0001   -0.0002    0.0004   -0.0000   -0.0000
       30 FE2    4pz        0.0000   -0.0000   -0.0005    0.0000   -0.0000    0.0006   -0.0076   -0.0301   -0.0000   -0.0000
       31 FE2    5pz        0.0000   -0.0000   -0.0001    0.0000   -0.0000   -0.0001   -0.0005   -0.0015   -0.0000   -0.0000
       32 FE2    3d2-       0.0588    0.9889   -0.0000   -0.0000   -0.0000    0.0000    0.0000   -0.0000    0.0000   -0.0000
       33 FE2    4d2-      -0.0081   -0.1361    0.0000    0.0000    0.0000    0.0000    0.0000   -0.0000   -0.0000    0.0000
       34 FE2    3d1-       0.0000    0.0000   -0.0000    0.0273    0.9903   -0.0000    0.0000    0.0000    0.0000    0.0000
       35 FE2    4d1-      -0.0000   -0.0000    0.0000   -0.0038   -0.1363    0.0000   -0.0000   -0.0000   -0.0005   -0.0006
       36 FE2    3d0       -0.0000    0.0000    0.9906   -0.0000    0.0000   -0.0004   -0.0001    0.0008   -0.0000   -0.0000
       37 FE2    4d0        0.0000   -0.0000   -0.1365    0.0000   -0.0000    0.0004   -0.0010   -0.0046    0.0000    0.0000
       38 FE2    3d1+      -0.0000   -0.0000    0.0000    0.9903   -0.0273    0.0000   -0.0000   -0.0000    0.0000   -0.0000
       39 FE2    4d1+       0.0000    0.0000   -0.0000   -0.1363    0.0038   -0.0000    0.0000   -0.0000   -0.0006    0.0005
       40 FE2    3d2+       0.9889   -0.0588    0.0000    0.0000   -0.0000    0.0000   -0.0000   -0.0000   -0.0000    0.0000
       41 FE2    4d2+      -0.1361    0.0081   -0.0000   -0.0000    0.0000    0.0000   -0.0000   -0.0000    0.0000    0.0000
       42 FE2    4f3-       0.0000    0.0000   -0.0000   -0.0000    0.0000    0.0000    0.0000    0.0000    0.0000    0.0000
       43 FE2    4f2-       0.0000    0.0000   -0.0000   -0.0000   -0.0000   -0.0000   -0.0000    0.0000   -0.0000    0.0000
       44 FE2    4f1-       0.0000    0.0000   -0.0000    0.0000    0.0000    0.0000   -0.0000   -0.0000   -0.0000   -0.0000
       45 FE2    4f0       -0.0000    0.0000    0.0000   -0.0000    0.0000    0.0000   -0.0000   -0.0002    0.0000    0.0000
       46 FE2    4f1+       0.0000   -0.0000    0.0000    0.0000   -0.0000    0.0000   -0.0000   -0.0000   -0.0000    0.0000
       47 FE2    4f2+       0.0000   -0.0000    0.0000   -0.0000    0.0000    0.0000    0.0000   -0.0000    0.0000    0.0000
       48 FE2    4f3+       0.0000   -0.0000   -0.0000   -0.0000    0.0000   -0.0000   -0.0000   -0.0000   -0.0000    0.0000
 
          Orbital           21        22        23        24    
          Energy           -0.4802   -0.2465   -0.1404   -0.1404
          Occ. No.          0.0000    0.0000    0.0000    0.0000
 
        1 O1     1s        -0.0022   -0.0059   -0.0000    0.0000
        2 O1     2s        -0.0322   -0.0721    0.0000    0.0000
        3 O1     3s        -0.0117   -0.0177   -0.0000    0.0000
        4 O1     2px        0.0000    0.0000   -0.0355    0.9446
        5 O1     3px        0.0000    0.0000   -0.0122    0.3243
        6 O1     2py       -0.0000   -0.0000    0.9446    0.0355
        7 O1     3py       -0.0000   -0.0000    0.3243    0.0122
        8 O1     2pz        0.0778    0.0720    0.0000   -0.0000
        9 O1     3pz        0.0182    0.0183    0.0000   -0.0000
       10 O1     3d2-       0.0000    0.0000    0.0000    0.0000
       11 O1     3d1-       0.0000    0.0000   -0.0062   -0.0002
       12 O1     3d0       -0.0003   -0.0002   -0.0000    0.0000
       13 O1     3d1+      -0.0000   -0.0000    0.0002   -0.0062
       14 O1     3d2+       0.0000    0.0000   -0.0000   -0.0000
       15 FE2    1s         0.0000    0.0000    0.0000   -0.0000
       16 FE2    2s         0.0001   -0.0001    0.0000    0.0000
       17 FE2    3s         0.0003   -0.0045    0.0000   -0.0000
       18 FE2    4s         0.0087    0.3757    0.0000   -0.0000
       19 FE2    5s        -0.0015    0.9367    0.0000   -0.0000
       20 FE2    2px       -0.0000   -0.0000    0.0000   -0.0000
       21 FE2    3px       -0.0000   -0.0000    0.0000   -0.0009
       22 FE2    4px       -0.0000   -0.0000    0.0008   -0.0204
       23 FE2    5px       -0.0000    0.0000   -0.0001    0.0026
       24 FE2    2py        0.0000    0.0000   -0.0000   -0.0000
       25 FE2    3py        0.0000    0.0000   -0.0009   -0.0000
       26 FE2    4py        0.0000    0.0000   -0.0204   -0.0008
       27 FE2    5py        0.0000   -0.0000    0.0026    0.0001
       28 FE2    2pz        0.0005    0.0000    0.0000   -0.0000
       29 FE2    3pz        0.0188    0.0004    0.0000   -0.0000
       30 FE2    4pz        1.0032    0.0105    0.0000   -0.0000
       31 FE2    5pz        0.0326   -0.0008   -0.0000    0.0000
       32 FE2    3d2-      -0.0000   -0.0000   -0.0000   -0.0000
       33 FE2    4d2-      -0.0000   -0.0000   -0.0000   -0.0000
       34 FE2    3d1-       0.0000   -0.0000    0.0020    0.0001
       35 FE2    4d1-      -0.0000   -0.0000    0.0204    0.0008
       36 FE2    3d0        0.0003   -0.0003   -0.0000   -0.0000
       37 FE2    4d0       -0.0016   -0.0036   -0.0000    0.0000
       38 FE2    3d1+       0.0000    0.0000   -0.0001    0.0020
       39 FE2    4d1+       0.0000    0.0000   -0.0008    0.0204
       40 FE2    3d2+       0.0000    0.0000   -0.0000   -0.0000
       41 FE2    4d2+       0.0000    0.0000   -0.0000   -0.0000
       42 FE2    4f3-      -0.0000    0.0000   -0.0000    0.0000
       43 FE2    4f2-       0.0000    0.0000   -0.0000    0.0000
       44 FE2    4f1-      -0.0000   -0.0000    0.0003    0.0000
       45 FE2    4f0       -0.0001   -0.0000   -0.0000   -0.0000
       46 FE2    4f1+       0.0000   -0.0000   -0.0000    0.0003
       47 FE2    4f2+      -0.0000    0.0000   -0.0000   -0.0000
       48 FE2    4f3+       0.0000   -0.0000    0.0000    0.0000
--
 
 
  Input file to MOLDEN was generated!
 
 
++    Static properties:
      ------------------
 
 
      LoProp Charges per center
 

                   O1       FE2   
      Nuclear      8.0000  26.0000
      Electronic  -7.9987 -24.0013
 
      Total        0.0013   1.9987
--
 
 
      All orbitals with orbital energies smaller than  E(LUMO)+0.5 are printed
 
++    Molecular orbitals:
      -------------------
 
      Title: UHF orbitals (beta)

      Molecular orbitals for symmetry species 1: a  
 
          Orbital            1         2         3         4         5         6         7         8         9        10    
          Energy         -264.6077  -33.3165  -28.3845  -28.3845  -28.3845  -20.9524   -4.9672   -3.4188   -3.4188   -3.4187
          Occ. No.          1.0000    1.0000    1.0000    1.0000    1.0000    1.0000    1.0000    1.0000    1.0000    1.0000
 
        1 O1     1s        -0.0000    0.0000    0.0000    0.0000    0.0000    1.0000   -0.0000    0.0000    0.0000    0.0000
        2 O1     2s        -0.0000    0.0000    0.0000    0.0000    0.0000    0.0019   -0.0001    0.0000    0.0000    0.0001
        3 O1     3s        -0.0000    0.0000    0.0000    0.0000    0.0001   -0.0017   -0.0002    0.0000    0.0000    0.0002
        4 O1     2px        0.0000   -0.0000    0.0000    0.0000   -0.0000    0.0000    0.0000    0.0000    0.0000   -0.0000
        5 O1     3px        0.0000    0.0000    0.0000    0.0000   -0.0000   -0.0000   -0.0000    0.0000    0.0001   -0.0000
        6 O1     2py       -0.0000    0.0000    0.0000   -0.0000   -0.0000    0.0000    0.0000    0.0000   -0.0000    0.0000
        7 O1     3py        0.0000   -0.0000    0.0000   -0.0000   -0.0000   -0.0000    0.0000    0.0001   -0.0000   -0.0000
        8 O1     2pz        0.0000   -0.0000   -0.0000   -0.0000   -0.0000   -0.0001    0.0001    0.0000   -0.0000   -0.0002
        9 O1     3pz        0.0000   -0.0000   -0.0000   -0.0000   -0.0001    0.0001    0.0001   -0.0000   -0.0000   -0.0004
       10 O1     3d2-       0.0000   -0.0000    0.0000    0.0000    0.0000   -0.0000   -0.0000   -0.0000   -0.0000   -0.0000
       11 O1     3d1-      -0.0000   -0.0000   -0.0000    0.0000    0.0000    0.0000    0.0000   -0.0000    0.0000    0.0000
       12 O1     3d0        0.0000    0.0000    0.0000    0.0000    0.0000   -0.0004    0.0000    0.0000    0.0000    0.0000
       13 O1     3d1+       0.0000   -0.0000   -0.0000   -0.0000    0.0000   -0.0000   -0.0000   -0.0000   -0.0000    0.0000
       14 O1     3d2+       0.0000   -0.0000    0.0000    0.0000   -0.0000    0.0000   -0.0000    0.0000   -0.0000   -0.0000
       15 FE2    1s         1.0000   -0.0000   -0.0000   -0.0000   -0.0000    0.0000    0.0000   -0.0000   -0.0000   -0.0000
       16 FE2    2s         0.0000    1.0000   -0.0000   -0.0000   -0.0000    0.0000    0.0011   -0.0000    0.0000   -0.0000
       17 FE2    3s        -0.0000   -0.0011   -0.0000    0.0000    0.0000    0.0000    1.0000   -0.0000   -0.0000   -0.0002
       18 FE2    4s         0.0000    0.0002   -0.0000   -0.0000   -0.0000    0.0000   -0.0028   -0.0000   -0.0000   -0.0001
       19 FE2    5s        -0.0000   -0.0002   -0.0000   -0.0000   -0.0000    0.0001    0.0033   -0.0000   -0.0000   -0.0001
       20 FE2    2px        0.0000    0.0000    0.0396    0.9992   -0.0000   -0.0000   -0.0000    0.0001    0.0032   -0.0000
       21 FE2    3px        0.0000   -0.0000   -0.0001   -0.0032    0.0000   -0.0000    0.0000    0.0239    0.9996   -0.0000
       22 FE2    4px       -0.0000    0.0000    0.0000    0.0004   -0.0000    0.0000   -0.0000   -0.0003   -0.0114    0.0000
       23 FE2    5px       -0.0000    0.0000   -0.0000   -0.0011    0.0000   -0.0000    0.0000    0.0001    0.0055   -0.0000
       24 FE2    2py       -0.0000   -0.0000    0.9992   -0.0396   -0.0000   -0.0000    0.0000    0.0032   -0.0001   -0.0000
       25 FE2    3py        0.0000    0.0000   -0.0032    0.0001    0.0000   -0.0000   -0.0000    0.9996   -0.0239   -0.0000
       26 FE2    4py       -0.0000   -0.0000    0.0004   -0.0000   -0.0000    0.0000    0.0000   -0.0114    0.0003    0.0000
       27 FE2    5py        0.0000    0.0000   -0.0011    0.0000    0.0000    0.0000   -0.0000    0.0055   -0.0001   -0.0000
       28 FE2    2pz        0.0000    0.0000    0.0000    0.0000    1.0000    0.0000   -0.0000    0.0000    0.0000    0.0032
       29 FE2    3pz       -0.0000    0.0000   -0.0000   -0.0000   -0.0032    0.0000    0.0002    0.0000    0.0000    0.9999
       30 FE2    4pz        0.0000   -0.0000    0.0000    0.0000    0.0004    0.0001    0.0000   -0.0000   -0.0000   -0.0115
       31 FE2    5pz       -0.0000   -0.0000   -0.0000   -0.0000   -0.0011    0.0000    0.0000    0.0000    0.0000    0.0055
       32 FE2    3d2-       0.0000    0.0000   -0.0000    0.0000    0.0000    0.0000    0.0000    0.0000   -0.0000   -0.0000
       33 FE2    4d2-      -0.0000   -0.0000    0.0000   -0.0000   -0.0000   -0.0000   -0.0000   -0.0000    0.0000    0.0000
       34 FE2    3d1-      -0.0000   -0.0000    0.0000   -0.0000   -0.0000    0.0000   -0.0000    0.0001   -0.0000   -0.0000
       35 FE2    4d1-       0.0000    0.0000   -0.0000    0.0000    0.0000    0.0000   -0.0000   -0.0000    0.0000    0.0000
       36 FE2    3d0        0.0000   -0.0000   -0.0000    0.0000   -0.0000    0.0000   -0.0000    0.0000    0.0000    0.0001
       37 FE2    4d0        0.0000   -0.0000   -0.0000   -0.0000   -0.0000    0.0000    0.0000   -0.0000   -0.0000   -0.0001
       38 FE2    3d1+       0.0000   -0.0000    0.0000    0.0000   -0.0000    0.0000   -0.0000    0.0000    0.0001   -0.0000
       39 FE2    4d1+       0.0000    0.0000   -0.0000   -0.0000    0.0000   -0.0000    0.0000   -0.0000   -0.0000    0.0000
       40 FE2    3d2+       0.0000   -0.0000   -0.0000   -0.0000   -0.0000    0.0000    0.0000   -0.0000   -0.0000    0.0000
       41 FE2    4d2+      -0.0000    0.0000    0.0000    0.0000    0.0000   -0.0000   -0.0000    0.0000   -0.0000    0.0000
       42 FE2    4f3-      -0.0000    0.0000    0.0000    0.0000   -0.0000    0.0000   -0.0000   -0.0000   -0.0000    0.0000
       43 FE2    4f2-       0.0000   -0.0000   -0.0000    0.0000   -0.0000   -0.0000    0.0000   -0.0000   -0.0000   -0.0000
       44 FE2    4f1-      -0.0000    0.0000   -0.0000    0.0000    0.0000    0.0000   -0.0000   -0.0000    0.0000    0.0000
       45 FE2    4f0        0.0000   -0.0000   -0.0000   -0.0000   -0.0000    0.0000   -0.0000   -0.0000   -0.0000   -0.0000
       46 FE2    4f1+       0.0000   -0.0000   -0.0000   -0.0000    0.0000    0.0000    0.0000   -0.0000   -0.0000    0.0000
       47 FE2    4f2+      -0.0000    0.0000   -0.0000   -0.0000   -0.0000   -0.0000    0.0000    0.0000   -0.0000    0.0000
       48 FE2    4f3+       0.0000   -0.0000   -0.0000   -0.0000   -0.0000    0.0000   -0.0000   -0.0000    0.0000   -0.0000
 
          Orbital           11        12        13        14        15        16        17        18        19        20    
          Energy           -1.6541   -0.9441   -0.9441   -0.8464   -0.5727   -0.5707   -0.5707   -0.5706   -0.5706   -0.5705
          Occ. No.          1.0000    1.0000    1.0000    1.0000    0.0000    0.0000    0.0000    0.0000    0.0000    0.0000
 
        1 O1     1s        -0.0019   -0.0000   -0.0000    0.0001    0.0000    0.0000   -0.0000   -0.0000    0.0000   -0.0003
        2 O1     2s         0.9994    0.0000    0.0000    0.0163   -0.0016    0.0000   -0.0000   -0.0000    0.0000   -0.0046
        3 O1     3s        -0.0286    0.0000   -0.0000   -0.0121    0.0016    0.0000   -0.0000   -0.0000    0.0000   -0.0016
        4 O1     2px       -0.0000    0.9937    0.1005    0.0000    0.0000   -0.0000    0.0000   -0.0022    0.0002    0.0000
        5 O1     3px        0.0000   -0.0486   -0.0049   -0.0000    0.0000   -0.0000    0.0000   -0.0014    0.0001    0.0000
        6 O1     2py        0.0000   -0.1005    0.9937   -0.0000   -0.0000   -0.0000   -0.0000   -0.0002   -0.0022   -0.0000
        7 O1     3py       -0.0000    0.0049   -0.0486    0.0000   -0.0000   -0.0000   -0.0000   -0.0001   -0.0014   -0.0000
        8 O1     2pz       -0.0167   -0.0000    0.0000    0.9992    0.0214   -0.0000    0.0000    0.0000   -0.0000    0.0165
        9 O1     3pz       -0.0038    0.0000   -0.0000   -0.0087   -0.0009   -0.0000    0.0000    0.0000   -0.0000    0.0035
       10 O1     3d2-       0.0000    0.0000    0.0000    0.0000    0.0000   -0.0000   -0.0000   -0.0000    0.0000   -0.0000
       11 O1     3d1-       0.0000    0.0006   -0.0058    0.0000   -0.0000    0.0000    0.0000    0.0000    0.0000   -0.0000
       12 O1     3d0       -0.0207    0.0000   -0.0000   -0.0078    0.0002    0.0000    0.0000   -0.0000   -0.0000    0.0000
       13 O1     3d1+      -0.0000   -0.0058   -0.0006   -0.0000    0.0000    0.0000   -0.0000    0.0000   -0.0000   -0.0000
       14 O1     3d2+       0.0000    0.0000   -0.0000    0.0000    0.0000   -0.0000    0.0000    0.0000   -0.0000   -0.0000
       15 FE2    1s        -0.0000   -0.0000    0.0000    0.0000   -0.0000   -0.0000   -0.0000    0.0000   -0.0000    0.0000
       16 FE2    2s        -0.0000    0.0000    0.0000    0.0002   -0.0002    0.0000   -0.0000   -0.0000   -0.0000   -0.0000
       17 FE2    3s        -0.0001   -0.0000    0.0000    0.0008    0.0035   -0.0000    0.0000    0.0000   -0.0000    0.0005
       18 FE2    4s        -0.0006   -0.0000   -0.0000   -0.0087    0.9626   -0.0000    0.0000    0.0000   -0.0000    0.1099
       19 FE2    5s        -0.0014   -0.0000    0.0000    0.0019   -0.2460    0.0000   -0.0000   -0.0000   -0.0000   -0.0273
       20 FE2    2px       -0.0000   -0.0000   -0.0000    0.0000    0.0000    0.0000   -0.0000   -0.0000    0.0000   -0.0000
       21 FE2    3px        0.0000   -0.0000   -0.0000   -0.0000   -0.0000    0.0000    0.0000   -0.0001    0.0000    0.0000
       22 FE2    4px       -0.0000   -0.0004   -0.0000   -0.0000    0.0000    0.0000   -0.0000    0.0003   -0.0000    0.0000
       23 FE2    5px       -0.0000   -0.0002   -0.0000    0.0000    0.0000    0.0000   -0.0000   -0.0000    0.0000    0.0000
       24 FE2    2py        0.0000    0.0000   -0.0000   -0.0000   -0.0000    0.0000   -0.0000   -0.0000   -0.0000   -0.0000
       25 FE2    3py        0.0000    0.0000   -0.0000   -0.0000   -0.0000   -0.0000   -0.0000   -0.0000   -0.0001    0.0000
       26 FE2    4py        0.0000    0.0000   -0.0004   -0.0000   -0.0000    0.0000    0.0000    0.0000    0.0003    0.0000
       27 FE2    5py        0.0000    0.0000   -0.0002    0.0000   -0.0000    0.0000   -0.0000   -0.0000   -0.0000   -0.0000
       28 FE2    2pz       -0.0000   -0.0000    0.0000    0.0000    0.0000    0.0000   -0.0000    0.0000   -0.0000    0.0000
       29 FE2    3pz       -0.0001   -0.0000    0.0000    0.0005   -0.0000    0.0000    0.0000   -0.0000    0.0000   -0.0001
       30 FE2    4pz       -0.0008   -0.0000   -0.0000   -0.0062   -0.0019   -0.0000   -0.0000   -0.0000   -0.0000   -0.0004
       31 FE2    5pz       -0.0004   -0.0000   -0.0000   -0.0006   -0.0004    0.0000   -0.0000   -0.0000   -0.0000   -0.0001
       32 FE2    3d2-      -0.0000   -0.0000    0.0000    0.0000   -0.0000    0.1123    0.9856    0.0000   -0.0000   -0.0000
       33 FE2    4d2-       0.0000   -0.0000   -0.0000   -0.0000   -0.0000    0.0143    0.1259    0.0000   -0.0000   -0.0000
       34 FE2    3d1-       0.0000   -0.0000    0.0002   -0.0000   -0.0000    0.0000    0.0000    0.0784    0.9889    0.0000
       35 FE2    4d1-       0.0000    0.0000   -0.0000   -0.0000   -0.0000    0.0000    0.0000    0.0100    0.1262    0.0000
       36 FE2    3d0       -0.0000    0.0000   -0.0000   -0.0056   -0.1119   -0.0000    0.0000    0.0000   -0.0000    0.9858
       37 FE2    4d0       -0.0003   -0.0000   -0.0000   -0.0021   -0.0148   -0.0000    0.0000    0.0000   -0.0000    0.1256
       38 FE2    3d1+      -0.0000    0.0002    0.0000   -0.0000    0.0000   -0.0000   -0.0000    0.9889   -0.0784   -0.0000
       39 FE2    4d1+       0.0000   -0.0000   -0.0000   -0.0000    0.0000   -0.0000   -0.0000    0.1262   -0.0100   -0.0000
       40 FE2    3d2+      -0.0000    0.0000    0.0000    0.0000    0.0000    0.9856   -0.1123   -0.0000   -0.0000    0.0000
       41 FE2    4d2+       0.0000   -0.0000    0.0000   -0.0000    0.0000    0.1259   -0.0143   -0.0000   -0.0000    0.0000
       42 FE2    4f3-       0.0000    0.0000   -0.0000    0.0000    0.0000    0.0000    0.0000   -0.0000    0.0000    0.0000
       43 FE2    4f2-      -0.0000    0.0000    0.0000    0.0000   -0.0000    0.0000    0.0001    0.0000   -0.0000   -0.0000
       44 FE2    4f1-       0.0000   -0.0000    0.0000   -0.0000   -0.0000    0.0000    0.0000    0.0000    0.0001    0.0000
       45 FE2    4f0        0.0000   -0.0000   -0.0000   -0.0001   -0.0000    0.0000    0.0000    0.0000   -0.0000    0.0000
       46 FE2    4f1+       0.0000    0.0000    0.0000   -0.0000   -0.0000    0.0000   -0.0000    0.0001   -0.0000   -0.0000
       47 FE2    4f2+       0.0000   -0.0000   -0.0000   -0.0000    0.0000    0.0001   -0.0000   -0.0000   -0.0000    0.0000
       48 FE2    4f3+      -0.0000    0.0000    0.0000   -0.0000   -0.0000    0.0000   -0.0000   -0.0000    0.0000   -0.0000
 
          Orbital           21        22        23        24    
          Energy           -0.3912   -0.3912   -0.3897   -0.2249
          Occ. No.          0.0000    0.0000    0.0000    0.0000
 
        1 O1     1s         0.0000   -0.0000   -0.0022   -0.0059
        2 O1     2s         0.0000   -0.0000   -0.0282   -0.0647
        3 O1     3s         0.0000   -0.0000   -0.0059   -0.0111
        4 O1     2px       -0.0000   -0.0068    0.0000    0.0000
        5 O1     3px       -0.0000   -0.0012    0.0000    0.0000
        6 O1     2py       -0.0068    0.0000   -0.0000   -0.0000
        7 O1     3py       -0.0012    0.0000   -0.0000   -0.0000
        8 O1     2pz       -0.0000    0.0000    0.0463    0.0568
        9 O1     3pz       -0.0000    0.0000    0.0032    0.0110
       10 O1     3d2-       0.0000    0.0000    0.0000    0.0000
       11 O1     3d1-      -0.0003    0.0000   -0.0000   -0.0000
       12 O1     3d0       -0.0000    0.0000    0.0009    0.0009
       13 O1     3d1+      -0.0000   -0.0003    0.0000    0.0000
       14 O1     3d2+       0.0000    0.0000   -0.0000   -0.0000
       15 FE2    1s        -0.0000    0.0000    0.0000    0.0000
       16 FE2    2s        -0.0000   -0.0000    0.0000    0.0002
       17 FE2    3s        -0.0000    0.0000    0.0001   -0.0023
       18 FE2    4s         0.0000   -0.0000    0.0015    0.2512
       19 FE2    5s        -0.0000    0.0000   -0.0055    0.9753
       20 FE2    2px       -0.0000   -0.0003    0.0000   -0.0000
       21 FE2    3px        0.0001    0.0110   -0.0000   -0.0000
       22 FE2    4px        0.0056    0.9974   -0.0000   -0.0000
       23 FE2    5px        0.0004    0.0722   -0.0000   -0.0000
       24 FE2    2py       -0.0003    0.0000   -0.0000    0.0000
       25 FE2    3py        0.0110   -0.0001    0.0000    0.0000
       26 FE2    4py        0.9974   -0.0056    0.0000    0.0000
       27 FE2    5py        0.0722   -0.0004    0.0000   -0.0000
       28 FE2    2pz        0.0000   -0.0000   -0.0003    0.0000
       29 FE2    3pz       -0.0000    0.0000    0.0111    0.0003
       30 FE2    4pz       -0.0000    0.0000    0.9995    0.0131
       31 FE2    5pz       -0.0000    0.0000    0.0720    0.0001
       32 FE2    3d2-      -0.0000    0.0000   -0.0000   -0.0000
       33 FE2    4d2-       0.0000   -0.0000   -0.0000   -0.0000
       34 FE2    3d1-      -0.0002    0.0000    0.0000    0.0000
       35 FE2    4d1-      -0.0000    0.0000   -0.0000   -0.0000
       36 FE2    3d0       -0.0000   -0.0000    0.0016    0.0015
       37 FE2    4d0        0.0000   -0.0000   -0.0007   -0.0018
       38 FE2    3d1+      -0.0000   -0.0002   -0.0000    0.0000
       39 FE2    4d1+      -0.0000   -0.0000    0.0000    0.0000
       40 FE2    3d2+      -0.0000   -0.0000    0.0000    0.0000
       41 FE2    4d2+       0.0000   -0.0000    0.0000    0.0000
       42 FE2    4f3-       0.0000   -0.0000   -0.0000    0.0000
       43 FE2    4f2-       0.0000   -0.0000    0.0000    0.0000
       44 FE2    4f1-      -0.0000    0.0000   -0.0000   -0.0000
       45 FE2    4f0        0.0000   -0.0000   -0.0001   -0.0000
       46 FE2    4f1+      -0.0000   -0.0000   -0.0000   -0.0000
       47 FE2    4f2+       0.0000    0.0000    0.0000    0.0000
       48 FE2    4f3+       0.0000   -0.0000    0.0000   -0.0000
--
 
 
++    Molecular charges:
      ------------------
 
      Mulliken charges per centre and basis function type
      ---------------------------------------------------
 
                            O1                      FE2   
                     alpha        beta       alpha        beta
      1s           1.0000      1.0000      1.0000      1.0000
      2s           0.9986      0.9989      1.0000      1.0000
      2px          0.0000      0.9976      1.0000      1.0000
      2pz          0.9940      0.9991      1.0000      1.0000
      2py          0.0000      0.9976      1.0000      1.0000
      3s           0.0007      0.0010      1.0000      1.0000
      3px          0.0000      0.0024      0.9993      0.9998
      3pz          0.0032      0.0001      0.9993      0.9998
      3py          0.0000      0.0024      0.9993      0.9998
      4s           0.0000      0.0000      0.8615      0.0003
      3d2+        -0.0000      0.0000      0.9814      0.0000
      3d1+        -0.0000      0.0000      0.9814      0.0000
      3d0          0.0009      0.0005      0.9814      0.0001
      3d1-        -0.0000      0.0000      0.9814      0.0000
      3d2-        -0.0000      0.0000      0.9814      0.0000
      4px          0.0000      0.0000      0.0004      0.0001
      4pz          0.0000      0.0000      0.0027      0.0004
      4py          0.0000      0.0000      0.0004      0.0001
      5s           0.0000      0.0000      0.1384     -0.0002
      4d2+         0.0000      0.0000      0.0186      0.0000
      4d1+         0.0000      0.0000      0.0186     -0.0000
      4d0          0.0000      0.0000      0.0188      0.0001
      4d1-         0.0000      0.0000      0.0186     -0.0000
      4d2-         0.0000      0.0000      0.0186      0.0000
      5px          0.0000      0.0000      0.0003      0.0000
      5pz          0.0000      0.0000      0.0004      0.0000
      5py          0.0000      0.0000      0.0003      0.0000
      4f3+         0.0000      0.0000      0.0000      0.0000
      4f2+         0.0000      0.0000      0.0000      0.0000
      4f1+         0.0000      0.0000      0.0000      0.0000
      4f0          0.0000      0.0000      0.0000      0.0000
      4f1-         0.0000      0.0000      0.0000      0.0000
      4f2-         0.0000      0.0000      0.0000      0.0000
      4f3-         0.0000      0.0000      0.0000      0.0000
      Total        2.9976      4.9995     15.0024      9.0005
      Total              7.9971                 24.0029
 
      Charge            0.0029                  1.9971
 
      Total electronic charge=   32.000000
 
      Total            charge=    2.000000
--
 
 
  Input file to MOLDEN was generated!
 
 
++    Static properties:
      ------------------
 
 
      LoProp Charges per center
 

                   O1       FE2   
      Nuclear      8.0000  26.0000
      Electronic  -7.9987 -24.0013
 
      Total        0.0013   1.9987
--
 
 
++    Natural Bond Order analysis
      ---------------------------
      Based on LoProp computed density
      -------------------------------------------------------------------------------------
      Atom A       Atom B       Bond Order
      -------------------------------------------------------------------------------------
      NBO located     20.000 core electrons.
      NBO located      3.992 lone pair electrons.
      NBO located      1.000 non-bonded electrons on atom O1        
      NBO located      1.000 non-bonded electrons on atom O1        
      NBO located      1.000 non-bonded electrons on atom FE2       
      NBO located      1.000 non-bonded electrons on atom FE2       
      NBO located      1.000 non-bonded electrons on atom FE2       
      NBO located      1.000 non-bonded electrons on atom FE2       
      NBO located      1.000 non-bonded electrons on atom FE2       
      NBO located      1.000 non-bonded electrons on atom FE2       
      The remaining    0.008 electrons are to be considered as diffuse
--
 
 
++    Molecular orbitals:
      -------------------
 
      Title: Natural orbitals

      Molecular orbitals for symmetry species 1: a  
 
          Orbital            1         2         3         4         5         6         7         8         9        10    
          Energy         -264.6116  -33.0533  -27.5427  -27.7102  -27.7094  -20.9754   -5.6185   -4.4720   -4.4609   -4.4604
          Occ. No.          2.0000    2.0000    2.0000    2.0000    2.0000    2.0000    2.0000    1.9999    1.9999    1.9999
 
        1 O1     1s         0.0000    0.0071    0.1489    0.0000   -0.0000    0.9863   -0.0629   -0.0028   -0.0000    0.0000
        2 O1     2s        -0.0000   -0.0002   -0.0048   -0.0000    0.0000   -0.0332    0.0007   -0.0037    0.0000    0.0000
        3 O1     3s        -0.0000    0.0000   -0.0001   -0.0000    0.0000   -0.0005   -0.0004    0.0005    0.0000    0.0000
        4 O1     2px        0.0000   -0.0000    0.0000   -0.0000   -0.0000   -0.0000    0.0000   -0.0000   -0.0000    0.0000
        5 O1     3px        0.0000    0.0000   -0.0000   -0.0000   -0.0000   -0.0000   -0.0000   -0.0000    0.0000   -0.0000
        6 O1     2py       -0.0000    0.0000   -0.0000   -0.0000    0.0000    0.0000   -0.0000    0.0000   -0.0000   -0.0000
        7 O1     3py        0.0000   -0.0000   -0.0000   -0.0000    0.0000    0.0000   -0.0000    0.0000    0.0000    0.0000
        8 O1     2pz        0.0000   -0.0000    0.0020   -0.0000    0.0000   -0.0015    0.0052   -0.0398   -0.0000   -0.0000
        9 O1     3pz        0.0000   -0.0000    0.0001    0.0000   -0.0000    0.0002    0.0004   -0.0010   -0.0000   -0.0000
       10 O1     3d2-       0.0000   -0.0000    0.0000    0.0000    0.0000   -0.0000   -0.0000   -0.0000   -0.0000    0.0000
       11 O1     3d1-      -0.0000   -0.0000   -0.0000    0.0000   -0.0000   -0.0000    0.0000   -0.0000    0.0000    0.0000
       12 O1     3d0        0.0000    0.0000    0.0000    0.0000   -0.0000    0.0002   -0.0001    0.0003    0.0000    0.0000
       13 O1     3d1+       0.0000   -0.0000    0.0000    0.0000    0.0000    0.0000   -0.0000    0.0000    0.0000   -0.0000
       14 O1     3d2+       0.0000   -0.0000    0.0000    0.0000    0.0000    0.0000   -0.0000   -0.0000   -0.0000    0.0000
       15 FE2    1s         1.0000   -0.0000    0.0000    0.0000    0.0000    0.0000    0.0000   -0.0000   -0.0000   -0.0000
       16 FE2    2s         0.0000    0.9939    0.0023   -0.0000    0.0000   -0.0005    0.1106    0.0008    0.0000    0.0000
       17 FE2    3s        -0.0000   -0.1104    0.0107    0.0000   -0.0000    0.0624    0.9918    0.0055   -0.0000   -0.0000
       18 FE2    4s         0.0000    0.0005   -0.0000   -0.0000    0.0000   -0.0001   -0.0022    0.0002    0.0000    0.0000
       19 FE2    5s        -0.0000   -0.0006    0.0001    0.0000   -0.0000    0.0003    0.0046   -0.0000   -0.0000    0.0000
       20 FE2    2px       -0.0000   -0.0000    0.0000    0.0154    0.9844   -0.0000   -0.0000    0.0000    0.1644   -0.0604
       21 FE2    3px        0.0000    0.0000   -0.0000   -0.0027   -0.1751    0.0000    0.0000    0.0000    0.9240   -0.3395
       22 FE2    4px       -0.0000   -0.0000    0.0000    0.0000    0.0026   -0.0000   -0.0000   -0.0000   -0.0142    0.0052
       23 FE2    5px       -0.0000    0.0000   -0.0000   -0.0000   -0.0019    0.0000    0.0000    0.0000    0.0110   -0.0040
       24 FE2    2py       -0.0000   -0.0000    0.0000    0.9844   -0.0154   -0.0000   -0.0000    0.0000    0.0604    0.1644
       25 FE2    3py        0.0000    0.0000   -0.0000   -0.1750    0.0027    0.0000    0.0000   -0.0000    0.3395    0.9240
       26 FE2    4py       -0.0000   -0.0000    0.0000    0.0026   -0.0000   -0.0000   -0.0000    0.0000   -0.0052   -0.0142
       27 FE2    5py        0.0000    0.0000   -0.0000   -0.0019    0.0000    0.0000    0.0000   -0.0000    0.0040    0.0110
       28 FE2    2pz       -0.0000   -0.0022    0.9732   -0.0000   -0.0000   -0.1466   -0.0025    0.1770    0.0000    0.0000
       29 FE2    3pz       -0.0000    0.0002   -0.1747    0.0000    0.0000    0.0286   -0.0052    0.9832    0.0000    0.0000
       30 FE2    4pz        0.0000   -0.0000    0.0026   -0.0000   -0.0000   -0.0004    0.0000   -0.0144   -0.0000   -0.0000
       31 FE2    5pz       -0.0000   -0.0000   -0.0019    0.0000    0.0000    0.0003   -0.0000    0.0117    0.0000    0.0000
       32 FE2    3d2-       0.0000    0.0000    0.0000   -0.0000    0.0000    0.0000    0.0000   -0.0000   -0.0000    0.0000
       33 FE2    4d2-      -0.0000   -0.0000   -0.0000    0.0000   -0.0000   -0.0000   -0.0000    0.0000    0.0000   -0.0000
       34 FE2    3d1-      -0.0000    0.0000   -0.0000   -0.0000    0.0000    0.0000   -0.0000    0.0000    0.0000    0.0001
       35 FE2    4d1-       0.0000    0.0000    0.0000    0.0000   -0.0000   -0.0000   -0.0000    0.0000   -0.0000   -0.0000
       36 FE2    3d0        0.0000    0.0000   -0.0000    0.0000    0.0000    0.0000   -0.0000    0.0003   -0.0000   -0.0000
       37 FE2    4d0        0.0000   -0.0000    0.0000    0.0000   -0.0000    0.0000    0.0000    0.0001    0.0000    0.0000
       38 FE2    3d1+       0.0000    0.0000   -0.0000   -0.0000   -0.0000    0.0000   -0.0000    0.0000    0.0001   -0.0000
       39 FE2    4d1+       0.0000    0.0000    0.0000    0.0000    0.0000   -0.0000    0.0000    0.0000   -0.0000    0.0000
       40 FE2    3d2+       0.0000   -0.0000   -0.0000    0.0000   -0.0000    0.0000    0.0000   -0.0000   -0.0000   -0.0000
       41 FE2    4d2+      -0.0000    0.0000    0.0000   -0.0000    0.0000   -0.0000   -0.0000    0.0000    0.0000    0.0000
       42 FE2    4f3-      -0.0000    0.0000   -0.0000    0.0000    0.0000    0.0000   -0.0000    0.0000   -0.0000   -0.0000
       43 FE2    4f2-       0.0000   -0.0000    0.0000   -0.0000    0.0000    0.0000    0.0000   -0.0000   -0.0000    0.0000
       44 FE2    4f1-      -0.0000    0.0000    0.0000    0.0000   -0.0000   -0.0000   -0.0000   -0.0000   -0.0000   -0.0000
       45 FE2    4f0        0.0000    0.0000    0.0000   -0.0000   -0.0000   -0.0000   -0.0000   -0.0000    0.0000    0.0000
       46 FE2    4f1+       0.0000   -0.0000    0.0000    0.0000    0.0000    0.0000    0.0000    0.0000   -0.0000    0.0000
       47 FE2    4f2+      -0.0000    0.0000   -0.0000   -0.0000    0.0000   -0.0000    0.0000    0.0000    0.0000    0.0000
       48 FE2    4f3+       0.0000   -0.0000    0.0000    0.0000   -0.0000    0.0000   -0.0000   -0.0000    0.0000   -0.0000
 
          Orbital           11        12        13        14        15        16        17        18        19        20    
          Energy           -0.9667   -1.3365   -0.7906   -0.7906   -1.0827   -1.0827   -1.0825   -0.7581   -0.7903   -0.7903
          Occ. No.          1.9978    1.9973    1.0003    1.0003    1.0000    1.0000    1.0000    1.0000    0.9997    0.9997
 
        1 O1     1s        -0.0180    0.0283   -0.0000   -0.0000   -0.0000    0.0000   -0.0001   -0.0008   -0.0000    0.0000
        2 O1     2s        -0.4988    0.8661   -0.0000   -0.0000   -0.0000    0.0000   -0.0009   -0.0065   -0.0000    0.0000
        3 O1     3s         0.0126    0.0033   -0.0000   -0.0000   -0.0000    0.0000   -0.0008   -0.0068   -0.0000    0.0000
        4 O1     2px       -0.0000   -0.0000    0.7061   -0.0194    0.0000   -0.0000    0.0000    0.0000   -0.7057   -0.0254
        5 O1     3px       -0.0000    0.0000   -0.0340    0.0009   -0.0000    0.0000    0.0000   -0.0000    0.0349    0.0013
        6 O1     2py        0.0000    0.0000    0.0194    0.7061    0.0000   -0.0000    0.0000    0.0000   -0.0254    0.7057
        7 O1     3py        0.0000    0.0000   -0.0009   -0.0340   -0.0000    0.0000   -0.0000   -0.0000    0.0013   -0.0349
        8 O1     2pz       -0.8647   -0.4973   -0.0000    0.0000   -0.0000    0.0000   -0.0054   -0.0154   -0.0000    0.0000
        9 O1     3pz       -0.0160   -0.0152    0.0000    0.0000    0.0000   -0.0000    0.0005    0.0032    0.0000   -0.0000
       10 O1     3d2-      -0.0000   -0.0000    0.0000    0.0000    0.0000   -0.0000    0.0000   -0.0000   -0.0000    0.0000
       11 O1     3d1-      -0.0000   -0.0000   -0.0001   -0.0042   -0.0000    0.0000    0.0000    0.0000    0.0001   -0.0041
       12 O1     3d0        0.0041    0.0075    0.0000   -0.0000   -0.0000   -0.0000   -0.0001    0.0000    0.0000   -0.0000
       13 O1     3d1+      -0.0000    0.0000   -0.0042    0.0001   -0.0000    0.0000   -0.0000    0.0000    0.0041    0.0001
       14 O1     3d2+      -0.0000   -0.0000    0.0000   -0.0000    0.0000    0.0000   -0.0000   -0.0000    0.0000   -0.0000
       15 FE2    1s        -0.0000   -0.0000    0.0000    0.0000    0.0000   -0.0000    0.0000    0.0000    0.0000   -0.0000
       16 FE2    2s         0.0002    0.0002    0.0000    0.0000    0.0000   -0.0000    0.0000    0.0003    0.0000   -0.0000
       17 FE2    3s         0.0025    0.0028   -0.0000   -0.0000   -0.0000    0.0000   -0.0000   -0.0038   -0.0000    0.0000
       18 FE2    4s         0.0067    0.0028   -0.0000   -0.0000   -0.0000    0.0000    0.0003   -0.9278   -0.0000    0.0000
       19 FE2    5s         0.0003   -0.0008    0.0000    0.0000    0.0000   -0.0000    0.0003    0.3723    0.0000   -0.0000
       20 FE2    2px        0.0000    0.0000   -0.0000    0.0000    0.0000    0.0000   -0.0000    0.0000    0.0000    0.0000
       21 FE2    3px        0.0000   -0.0000   -0.0001    0.0000    0.0000   -0.0000   -0.0000    0.0000   -0.0000   -0.0000
       22 FE2    4px        0.0000    0.0000   -0.0004    0.0000    0.0000    0.0000   -0.0000    0.0000    0.0001    0.0000
       23 FE2    5px       -0.0000   -0.0000   -0.0001    0.0000    0.0000   -0.0000   -0.0000    0.0000    0.0001    0.0000
       24 FE2    2py       -0.0000   -0.0000   -0.0000   -0.0000    0.0000   -0.0000    0.0000    0.0000    0.0000   -0.0000
       25 FE2    3py       -0.0000   -0.0000   -0.0000   -0.0001    0.0000   -0.0000    0.0000    0.0000   -0.0000    0.0000
       26 FE2    4py        0.0000    0.0000   -0.0000   -0.0004    0.0000   -0.0000    0.0000    0.0000    0.0000   -0.0001
       27 FE2    5py       -0.0000   -0.0000   -0.0000   -0.0001   -0.0000    0.0000    0.0000    0.0000    0.0000   -0.0001
       28 FE2    2pz       -0.0045   -0.0021   -0.0000   -0.0000   -0.0000    0.0000    0.0000   -0.0000    0.0000    0.0000
       29 FE2    3pz       -0.0366   -0.0168    0.0000    0.0000    0.0000   -0.0000    0.0001    0.0001    0.0000   -0.0000
       30 FE2    4pz        0.0164    0.0088    0.0000    0.0000    0.0000   -0.0000    0.0007    0.0085    0.0000   -0.0000
       31 FE2    5pz        0.0006    0.0001    0.0000    0.0000    0.0000   -0.0000    0.0001    0.0005    0.0000   -0.0000
       32 FE2    3d2-      -0.0000   -0.0000   -0.0000    0.0000    0.0588   -0.9889    0.0000   -0.0000    0.0000   -0.0000
       33 FE2    4d2-       0.0000    0.0000    0.0000   -0.0000   -0.0081    0.1361   -0.0000    0.0000   -0.0000    0.0000
       34 FE2    3d1-       0.0000    0.0000    0.0193    0.7002   -0.0000    0.0000   -0.0000   -0.0000    0.0252   -0.7000
       35 FE2    4d1-       0.0000    0.0000   -0.0027   -0.0964    0.0000   -0.0000    0.0000    0.0000   -0.0035    0.0964
       36 FE2    3d0        0.0049    0.0027    0.0000   -0.0000   -0.0000   -0.0000   -0.9906    0.0001    0.0000    0.0000
       37 FE2    4d0        0.0025    0.0014   -0.0000    0.0000    0.0000    0.0000    0.1366    0.0012   -0.0000   -0.0000
       38 FE2    3d1+       0.0000    0.0000    0.7002   -0.0193   -0.0000   -0.0000    0.0000   -0.0000    0.7000    0.0252
       39 FE2    4d1+       0.0000    0.0000   -0.0964    0.0027    0.0000    0.0000   -0.0000    0.0000   -0.0964   -0.0035
       40 FE2    3d2+      -0.0000   -0.0000    0.0000    0.0000    0.9889    0.0588   -0.0000   -0.0000    0.0000   -0.0000
       41 FE2    4d2+       0.0000    0.0000   -0.0000   -0.0000   -0.1361   -0.0081    0.0000    0.0000   -0.0000    0.0000
       42 FE2    4f3-      -0.0000    0.0000    0.0000    0.0000    0.0000   -0.0000    0.0000   -0.0000   -0.0000   -0.0000
       43 FE2    4f2-       0.0000   -0.0000    0.0000    0.0000    0.0000   -0.0000    0.0000   -0.0000   -0.0000   -0.0000
       44 FE2    4f1-       0.0000    0.0000    0.0000    0.0000   -0.0000    0.0000   -0.0000   -0.0000    0.0000   -0.0000
       45 FE2    4f0        0.0001    0.0001    0.0000    0.0000    0.0000   -0.0000   -0.0000    0.0000    0.0000   -0.0000
       46 FE2    4f1+       0.0000    0.0000    0.0000   -0.0000   -0.0000    0.0000    0.0000   -0.0000    0.0000    0.0000
       47 FE2    4f2+       0.0000    0.0000   -0.0000    0.0000    0.0000    0.0000   -0.0000   -0.0000    0.0000   -0.0000
       48 FE2    4f3+       0.0000   -0.0000    0.0000    0.0000    0.0000    0.0000    0.0000    0.0000   -0.0000   -0.0000
 
          Orbital           21        22        23        24        25        26        27        28        29        30    
          Energy            0.9430    0.5162    0.9489    0.9489    1.0253   -0.2040    0.8540   -0.0372   -0.0372    0.5572
          Occ. No.          0.0027    0.0022    0.0001    0.0001    0.0001    0.0000    0.0000    0.0000    0.0000    0.0000
 
        1 O1     1s        -0.0004    0.0009    0.0000   -0.0000   -0.0022    0.0060   -0.0032   -0.0000   -0.0000   -0.0025
        2 O1     2s        -0.0101    0.0141    0.0000   -0.0000   -0.0254    0.0686   -0.0371   -0.0000   -0.0000   -0.0311
        3 O1     3s         0.6111    0.3563    0.0000   -0.0000   -0.0391    0.1388   -0.6121   -0.0000   -0.0000    0.3640
        4 O1     2px        0.0000   -0.0000   -0.0025   -0.0041   -0.0000   -0.0000   -0.0000   -0.0101    0.0082    0.0000
        5 O1     3px       -0.0000    0.0000   -0.0083   -0.0136   -0.0000   -0.0000   -0.0000   -0.0541    0.0439    0.0000
        6 O1     2py       -0.0000    0.0000   -0.0041    0.0025    0.0000    0.0000    0.0000   -0.0082   -0.0101    0.0000
        7 O1     3py        0.0000   -0.0000   -0.0136    0.0083    0.0000    0.0000    0.0000   -0.0439   -0.0541   -0.0000
        8 O1     2pz        0.0370   -0.0312   -0.0000    0.0000    0.0134   -0.0595    0.0418    0.0000    0.0000    0.0484
        9 O1     3pz       -0.4379    0.7588   -0.0000    0.0000   -0.1281   -0.2038    0.3079    0.0000    0.0000    0.4092
       10 O1     3d2-       0.0000   -0.0000    0.0000    0.0000    0.0000   -0.0000    0.0000   -0.0000   -0.0000    0.0000
       11 O1     3d1-      -0.0000   -0.0000    0.0012   -0.0007    0.0000   -0.0000   -0.0000    0.0065    0.0080    0.0000
       12 O1     3d0        0.5927    0.3818    0.0000   -0.0000   -0.0159    0.0162    0.5291    0.0000    0.0000   -0.4560
       13 O1     3d1+       0.0000    0.0000    0.0007    0.0012   -0.0000    0.0000    0.0000    0.0080   -0.0065   -0.0000
       14 O1     3d2+      -0.0000   -0.0000    0.0000    0.0000    0.0000   -0.0000    0.0000    0.0000    0.0000    0.0000
       15 FE2    1s        -0.0001    0.0002   -0.0000    0.0000   -0.0000   -0.0001    0.0001    0.0000    0.0000    0.0001
       16 FE2    2s        -0.0009    0.0014   -0.0000    0.0000   -0.0002   -0.0004    0.0007    0.0000    0.0000    0.0008
       17 FE2    3s        -0.0050    0.0076   -0.0000    0.0000   -0.0013    0.0012    0.0034    0.0000    0.0000    0.0039
       18 FE2    4s        -0.0235    0.0350   -0.0000    0.0000   -0.0044   -0.3959    0.0404    0.0000    0.0000    0.0515
       19 FE2    5s         0.0370   -0.0382   -0.0000    0.0000    0.0224   -0.9508    0.0291    0.0000    0.0000    0.0403
       20 FE2    2px        0.0000   -0.0000   -0.0001   -0.0002    0.0000    0.0000   -0.0000   -0.0000    0.0000   -0.0000
       21 FE2    3px        0.0000   -0.0000   -0.0094   -0.0154   -0.0000    0.0000    0.0000    0.0055   -0.0045    0.0000
       22 FE2    4px        0.0000   -0.0000   -0.2673   -0.4408   -0.0000   -0.0000    0.0000    0.6659   -0.5408    0.0000
       23 FE2    5px       -0.0000    0.0000    0.4443    0.7327    0.0000    0.0000    0.0000    0.4017   -0.3262    0.0000
       24 FE2    2py       -0.0000    0.0000   -0.0002    0.0001   -0.0000   -0.0000    0.0000   -0.0000   -0.0000    0.0000
       25 FE2    3py       -0.0000    0.0000   -0.0154    0.0094   -0.0000    0.0000   -0.0000    0.0045    0.0055   -0.0000
       26 FE2    4py        0.0000   -0.0000   -0.4408    0.2673   -0.0000    0.0000   -0.0000    0.5408    0.6659   -0.0000
       27 FE2    5py        0.0000    0.0000    0.7327   -0.4443    0.0000    0.0000   -0.0000    0.3262    0.4017   -0.0000
       28 FE2    2pz       -0.0001    0.0002    0.0000   -0.0000   -0.0002   -0.0001    0.0001    0.0000    0.0000    0.0001
       29 FE2    3pz       -0.0004   -0.0003    0.0000   -0.0000   -0.0181   -0.0012    0.0065    0.0000    0.0000    0.0076
       30 FE2    4pz        0.1731   -0.3039    0.0000   -0.0000   -0.4524    0.0136    0.5362    0.0000    0.0000    0.6481
       31 FE2    5pz        0.0070   -0.0015   -0.0000    0.0000    0.8778    0.0094    0.3259    0.0000    0.0000    0.3876
       32 FE2    3d2-       0.0000   -0.0000   -0.0000   -0.0000   -0.0000    0.0000   -0.0000   -0.0000    0.0000   -0.0000
       33 FE2    4d2-       0.0000   -0.0000   -0.0000    0.0000   -0.0000    0.0000   -0.0000   -0.0000    0.0000   -0.0000
       34 FE2    3d1-       0.0000    0.0000   -0.0001    0.0001   -0.0000   -0.0000   -0.0000    0.0011    0.0014   -0.0000
       35 FE2    4d1-       0.0000   -0.0000   -0.0005    0.0003    0.0000    0.0000   -0.0000    0.0071    0.0088   -0.0000
       36 FE2    3d0       -0.0006    0.0015    0.0000    0.0000    0.0001   -0.0036    0.0211    0.0000    0.0000   -0.0066
       37 FE2    4d0        0.0176   -0.0163   -0.0000    0.0000    0.0073   -0.0163    0.1366    0.0000    0.0000   -0.0664
       38 FE2    3d1+       0.0000   -0.0000   -0.0001   -0.0001   -0.0000   -0.0000    0.0000    0.0014   -0.0011    0.0000
       39 FE2    4d1+      -0.0000    0.0000   -0.0003   -0.0005   -0.0000   -0.0000    0.0000    0.0088   -0.0071    0.0000
       40 FE2    3d2+       0.0000   -0.0000    0.0000   -0.0000   -0.0000   -0.0000    0.0000    0.0000    0.0000    0.0000
       41 FE2    4d2+       0.0000   -0.0000    0.0000   -0.0000    0.0000   -0.0000    0.0000    0.0000    0.0000    0.0000
       42 FE2    4f3-       0.0000   -0.0000   -0.0000   -0.0000   -0.0000   -0.0000    0.0000   -0.0000    0.0000    0.0000
       43 FE2    4f2-      -0.0000    0.0000    0.0000    0.0000   -0.0000   -0.0000    0.0000    0.0000   -0.0000    0.0000
       44 FE2    4f1-       0.0000   -0.0000   -0.0000    0.0000    0.0000   -0.0000   -0.0000    0.0005    0.0006   -0.0000
       45 FE2    4f0        0.0007   -0.0007   -0.0000    0.0000    0.0003   -0.0010    0.0073    0.0000    0.0000   -0.0024
       46 FE2    4f1+      -0.0000    0.0000   -0.0000   -0.0000    0.0000    0.0000    0.0000    0.0006   -0.0005   -0.0000
       47 FE2    4f2+       0.0000   -0.0000   -0.0000    0.0000   -0.0000    0.0000    0.0000    0.0000   -0.0000    0.0000
       48 FE2    4f3+      -0.0000    0.0000    0.0000    0.0000    0.0000    0.0000    0.0000    0.0000   -0.0000    0.0000
 
          Orbital           31        32        33        34        35        36        37        38        39        40    
          Energy            0.3123    0.3333    0.2946    0.3535    0.2774    0.2700    0.2703    3.1050    2.0217    1.8819
          Occ. No.          0.0000    0.0000    0.0000    0.0000    0.0000    0.0000    0.0000    0.0000    0.0000    0.0000
 
        1 O1     1s         0.0014    0.0000   -0.0000   -0.0000   -0.0000    0.0000    0.0000   -0.0000    0.0000   -0.0000
        2 O1     2s         0.0199    0.0000   -0.0000   -0.0000   -0.0000    0.0000    0.0000    0.0000    0.0000   -0.0000
        3 O1     3s        -0.0538   -0.0000    0.0000    0.0000    0.0000   -0.0000   -0.0000   -0.0011   -0.0000    0.0000
        4 O1     2px        0.0000   -0.0042    0.0094   -0.0465    0.0128   -0.0001    0.0001    0.0000    0.0038    0.0056
        5 O1     3px        0.0000   -0.0783    0.2240   -0.9634    0.1057   -0.0016    0.0002    0.0000    0.0321    0.0312
        6 O1     2py        0.0000   -0.0438    0.0214    0.0088    0.0011    0.0000   -0.0000    0.0000    0.0063   -0.0019
        7 O1     3py        0.0000   -0.9439    0.2926    0.1449   -0.0066    0.0002    0.0003    0.0001    0.0280   -0.0033
        8 O1     2pz       -0.0334   -0.0000    0.0000    0.0000    0.0000   -0.0000   -0.0000   -0.0008   -0.0000    0.0000
        9 O1     3pz       -0.1131   -0.0000    0.0000    0.0000    0.0000   -0.0000   -0.0000   -0.0033   -0.0000    0.0000
       10 O1     3d2-      -0.0000   -0.0001    0.0004   -0.0000    0.0010   -0.0028    0.0014    0.0000   -0.0730    0.6180
       11 O1     3d1-      -0.0000    0.0275   -0.0174    0.0073   -0.0106    0.0042   -0.0029   -0.0000    0.8445   -0.2978
       12 O1     3d0        0.1232    0.0000   -0.0000   -0.0000   -0.0000    0.0000    0.0000    0.0027    0.0000   -0.0000
       13 O1     3d1+      -0.0000    0.0113   -0.0149    0.0477   -0.0161   -0.0006    0.0144   -0.0000    0.3874    0.6873
       14 O1     3d2+      -0.0000   -0.0002    0.0009    0.0001    0.0002   -0.0043   -0.0016    0.0000   -0.1257   -0.2361
       15 FE2    1s        -0.0000   -0.0000    0.0000    0.0000    0.0000   -0.0000   -0.0000   -0.0000   -0.0000    0.0000
       16 FE2    2s        -0.0002   -0.0000    0.0000    0.0000    0.0000   -0.0000   -0.0000   -0.0000   -0.0000    0.0000
       17 FE2    3s        -0.0011   -0.0000    0.0000    0.0000    0.0000   -0.0000   -0.0000   -0.0000   -0.0000    0.0000
       18 FE2    4s        -0.0121   -0.0000    0.0000    0.0000    0.0000   -0.0000   -0.0000   -0.0003   -0.0000    0.0000
       19 FE2    5s        -0.0071   -0.0000    0.0000    0.0000    0.0000   -0.0000   -0.0000   -0.0002   -0.0000    0.0000
       20 FE2    2px       -0.0000    0.0000   -0.0000    0.0000   -0.0000    0.0000   -0.0000   -0.0000   -0.0000   -0.0000
       21 FE2    3px       -0.0000    0.0001   -0.0002    0.0009   -0.0000    0.0000   -0.0000   -0.0000   -0.0000   -0.0001
[...]
 Summed:  -0.38156831 -0.38156831
 
      Reference energy:       -1345.4474711647
      E2 (Non-variational):      -0.3815683098
      E2 (Variational):          -0.3815683422
      Total energy:           -1345.8290395069
      Residual norm:              0.0000007500
      Reference weight:           0.93831
 
      Contributions to the CASPT2 correlation energy
      Active & Virtual Only:         -0.0942531206
      One Inactive Excited:          -0.1941937536
      Two Inactive Excited:          -0.0931214356
 
 
++ Denominators, etc.
----------------------------------------------------------------------------------------------------
 Report on small energy denominators, large coefficients, and large energy contributions.
CASE  SYMM ACTIVE-MIX  NON-ACTIVE INDICES          DENOMINATOR     RHS VALUE       COEFFICIENT     CONTRIBUTION
VJTU     1  Mu1.0001  In1.011                       0.28242813     -0.00000000     -0.00000000      0.00000000
VJTU     1  Mu1.0002  In1.011                       0.28243298     -0.00000000      0.00000000     -0.00000000
VJTU     1  Mu1.0003  In1.011                       0.28300441      0.00000067      0.00000069      0.00000000
VJTU     1  Mu1.0004  In1.011                       0.28301114     -0.00000160     -0.00000165      0.00000000
VJTU     1  Mu1.0005  In1.011                       0.29925818     -0.00000000     -0.00000000      0.00000000
VJTU     1  Mu1.0006  In1.011                       0.29925820      0.00000000     -0.00000000     -0.00000000
ATVX     1  Mu1.0001  Se1.026                      -0.22813024     -0.00000000     -0.00000000      0.00000000
ATVX     1  Mu1.0002  Se1.026                      -0.21147889      0.00000000      0.00000000      0.00000000
ATVX     1  Mu1.0003  Se1.026                      -0.21147407     -0.00000000     -0.00000000      0.00000000
ATVX     1  Mu1.0004  Se1.026                      -0.17311424     -0.00000000     -0.00000000      0.00000000
ATVX     1  Mu1.0005  Se1.026                      -0.10459318     -0.00000000     -0.00000000      0.00000000
ATVX     1  Mu1.0006  Se1.026                      -0.10459316      0.00000000      0.00000000      0.00000000
ATVX     1  Mu1.0007  Se1.026                       0.15537332      0.00000000      0.00000000      0.00000000
ATVX     1  Mu1.0008  Se1.026                       0.15537332     -0.00000000      0.00000000     -0.00000000
ATVX     1  Mu1.0009  Se1.026                       0.17058701      0.00000124     -0.00005347     -0.00000000
ATVX     1  Mu1.0010  Se1.026                       0.17059937     -0.00000608      0.00026179     -0.00000000
ATVX     1  Mu1.0011  Se1.026                       0.17156878      0.00000000     -0.00000000     -0.00000000
ATVX     1  Mu1.0012  Se1.026                       0.17156879      0.00000000     -0.00000000     -0.00000000
ATVX     1  Mu1.0013  Se1.026                       0.17338718     -0.00000000      0.00000001     -0.00000000
ATVX     1  Mu1.0014  Se1.026                       0.17339303     -0.00000000      0.00000001     -0.00000000
ATVX     1  Mu1.0015  Se1.026                       0.18269828      0.00000275     -0.00002791     -0.00000000
ATVX     1  Mu1.0016  Se1.026                       0.18283306     -0.00000006      0.00000056     -0.00000000
ATVX     1  Mu1.0017  Se1.026                       0.19140525     -0.00000144      0.00000055     -0.00000000
ATVX     1  Mu1.0018  Se1.026                       0.19141992      0.00000025     -0.00000010     -0.00000000
ATVX     1  Mu1.0019  Se1.026                       0.19318119     -0.00000000      0.00000000     -0.00000000
ATVX     1  Mu1.0020  Se1.026                       0.19318805      0.00000000     -0.00000000     -0.00000000
ATVX     1  Mu1.0021  Se1.026                       0.19378475     -0.00000000      0.00000000     -0.00000000
ATVX     1  Mu1.0022  Se1.026                       0.19378482     -0.00000000      0.00000000     -0.00000000
ATVX     1  Mu1.0023  Se1.026                       0.20306331      0.00000000     -0.00000000     -0.00000000
ATVX     1  Mu1.0024  Se1.026                       0.20307362      0.00000000     -0.00000000     -0.00000000
ATVX     1  Mu1.0025  Se1.026                       0.20583702      0.00000000     -0.00000000     -0.00000000
ATVX     1  Mu1.0026  Se1.026                       0.20597382     -0.00000000     -0.00000000      0.00000000
ATVX     1  Mu1.0027  Se1.026                       0.21307012     -0.00000000      0.00000000     -0.00000000
ATVX     1  Mu1.0028  Se1.026                       0.21307013     -0.00000000     -0.00000000      0.00000000
ATVX     1  Mu1.0029  Se1.026                       0.21495053     -0.00000000      0.00000000     -0.00000000
ATVX     1  Mu1.0030  Se1.026                       0.22852606     -0.00000000      0.00000000     -0.00000000
ATVX     1  Mu1.0031  Se1.026                       0.22853530      0.00000000     -0.00000000     -0.00000000
ATVX     1  Mu1.0032  Se1.026                       0.24023978      0.00000000     -0.00000000     -0.00000000
ATVX     1  Mu1.0033  Se1.026                       0.24025275      0.00000000     -0.00000000     -0.00000000
ATVX     1  Mu1.0034  Se1.026                       0.24157528      0.00000727     -0.00002276     -0.00000000
ATVX     1  Mu1.0035  Se1.026                       0.24158071      0.00000444     -0.00001390     -0.00000000
ATVX     1  Mu1.0036  Se1.026                       0.24302933      0.00000000     -0.00000000     -0.00000000
ATVX     1  Mu1.0037  Se1.026                       0.24309741      0.00000000     -0.00000000     -0.00000000
ATVX     1  Mu1.0038  Se1.026                       0.25180875     -0.00000000      0.00000000     -0.00000000
ATVX     1  Mu1.0039  Se1.026                       0.25181383     -0.00000000      0.00000000     -0.00000000
ATVX     1  Mu1.0040  Se1.026                       0.26346340     -0.00098914      0.00364100     -0.00000360
ATVX     1  Mu1.0041  Se1.026                       0.26660731      0.00000017     -0.00000101     -0.00000000
ATVX     1  Mu1.0042  Se1.026                       0.26675931      0.00000000     -0.00000001     -0.00000000
ATVX     1  Mu1.0043  Se1.026                       0.27928753     -0.00000000      0.00000000     -0.00000000
ATVX     1  Mu1.0044  Se1.026                       0.27928753     -0.00000000     -0.00000000      0.00000000
ATVX     1  Mu1.0001  Se1.027                      -0.06542984     -0.00000000      0.00000000     -0.00000000
ATVX     1  Mu1.0002  Se1.027                      -0.04877850      0.00000000     -0.00000000     -0.00000000
ATVX     1  Mu1.0003  Se1.027                      -0.04877367     -0.00000085      0.00001593     -0.00000000
ATVX     1  Mu1.0004  Se1.027                      -0.01041385     -0.00000000      0.00000000     -0.00000000
ATVX     1  Mu1.0005  Se1.027                       0.05810722      0.00003109      0.00073142      0.00000002
ATVX     1  Mu1.0006  Se1.027                       0.05810723      0.00000199      0.00004677      0.00000000
ATVX     1  Mu1.0001  Se1.028                      -0.06542880     -0.00000000     -0.00000000      0.00000000
ATVX     1  Mu1.0002  Se1.028                      -0.04877745     -0.00000085      0.00001593     -0.00000000
ATVX     1  Mu1.0003  Se1.028                      -0.04877262     -0.00000000      0.00000000     -0.00000000
ATVX     1  Mu1.0004  Se1.028                      -0.01041280      0.00000000      0.00000000      0.00000000
ATVX     1  Mu1.0005  Se1.028                       0.05810827      0.00000199      0.00004677      0.00000000
ATVX     1  Mu1.0006  Se1.028                       0.05810828     -0.00003109     -0.00073140      0.00000002
ATVX     1  Mu1.0001  Se1.029                      -0.05329080      0.00000000      0.00000000      0.00000000
ATVX     1  Mu1.0002  Se1.029                      -0.03663945     -0.00000000     -0.00000000      0.00000000
ATVX     1  Mu1.0003  Se1.029                      -0.03663463      0.00000000      0.00000000      0.00000000
ATVX     1  Mu1.0004  Se1.029                       0.00172520      0.00000000     -0.00000001     -0.00000000
ATVX     1  Mu1.0005  Se1.029                       0.07024627      0.00000000     -0.00000000     -0.00000000
ATVX     1  Mu1.0006  Se1.029                       0.07024628     -0.00000000      0.00000000     -0.00000000
ATVX     1  Mu1.0001  Se1.030                       0.11116942     -0.00000000      0.00000000     -0.00000000
ATVX     1  Mu1.0002  Se1.030                       0.12782077      0.00000000     -0.00000000     -0.00000000
ATVX     1  Mu1.0003  Se1.030                       0.12782559     -0.00000000      0.00000000     -0.00000000
ATVX     1  Mu1.0004  Se1.030                       0.16618542     -0.00000000      0.00000000     -0.00000000
ATVX     1  Mu1.0005  Se1.030                       0.23470649     -0.00000000      0.00000000     -0.00000000
ATVX     1  Mu1.0006  Se1.030                       0.23470650      0.00000000     -0.00000000     -0.00000000
ATVX     1  Mu1.0216  Se1.031                       2.19589547     -0.06229982      0.02956785     -0.00184207
ATVX     1  Mu1.0274  Se1.031                       2.29534918     -0.06602042      0.02921866     -0.00192903
ATVX     1  Mu1.0217  Se1.032                       2.19589550     -0.06229980      0.02956784     -0.00184207
ATVX     1  Mu1.0275  Se1.032                       2.29534922      0.06602041     -0.02921866     -0.00192903
AIVX     1  Mu1.0148  In1.011 Se1.033               3.39345366     -0.08610933      0.02554787     -0.00219991
AIVX     1  Mu1.0169  In1.009 Se1.034               6.56400858     -0.17830440      0.02716414     -0.00484349
AIVX     1  Mu1.0169  In1.010 Se1.035               6.56401035     -0.17830554      0.02716431     -0.00484355
AIVX     1  Mu1.0027  In1.011 Se1.037               3.47223010     -0.11331629      0.03129249     -0.00354595
AIVX     1  Mu1.0028  In1.011 Se1.037               3.47223010     -0.09468336      0.02614697     -0.00247568
AIVX     1  Mu1.0057  In1.011 Se1.038               3.72218572      0.14758491     -0.03810454     -0.00562366
BVATM    1  Mu1.0001  Se1.032 Se1.031               1.96634163      0.07154865     -0.03668821     -0.00262499
BVATM    1  Mu1.0001  Se1.038 Se1.037               5.01095141     -0.12966008      0.02587535     -0.00335500
BJATP    1  Mu1.0002  In1.011 Se1.033 Se1.031       2.96007182     -0.08224061      0.02764968     -0.00227393
BJATP    1  Mu1.0001  In1.011 Se1.033 Se1.032       2.96007184     -0.08224061      0.02764968     -0.00227393
BJATM    1  Mu1.0002  In1.011 Se1.033 Se1.031       2.96007182      0.07801630     -0.02824296     -0.00220341
BJATM    1  Mu1.0001  In1.011 Se1.033 Se1.032       2.96007184      0.07801630     -0.02824296     -0.00220341
BJAIP    1  Se1.033 In1.011 Se1.033 In1.011         3.95376041      0.12091242     -0.03269725     -0.00395350
--
 
   (Skipping property calculation,
    use PROP keyword to activate)
--
 
  Total CASPT2 energies:
::    CASPT2 Root  1     Total energy:  -1345.82903951
 
  A NEW JOBIPH FILE NAMED 'JOBMIX' IS PREPARED.
********************************************************************************
--- Stop Module: caspt2 at Wed Dec 18 03:19:13 2024 /rc=_RC_ALL_IS_WELL_ ---
*** files: xmldump
    saved to directory /home/grierjones/DDCASPT2/iron_oxo_DDCASPT2/cluster/4.62
--- Module caspt2 spent 5 minutes 34 seconds ---

>>> EXPORT i = B

>>> EXPORT j = P

>>> IF (-FILE GMJ_e2_${i}_${j}.csv)

>>> COPY /tmp/4.62/GMJ_RHS_B_P.csv /home/grierjones/DDCASPT2/iron_oxo_DDCASPT2/cluster/4.62/GMJ_RHS_B_P.csv

>>> COPY /tmp/4.62/GMJ_IVECW_B_P.csv /home/grierjones/DDCASPT2/iron_oxo_DDCASPT2/cluster/4.62/GMJ_IVECW_B_P.csv

>>> COPY /tmp/4.62/GMJ_IVECX_B_P.csv /home/grierjones/DDCASPT2/iron_oxo_DDCASPT2/cluster/4.62/GMJ_IVECX_B_P.csv

>>> COPY /tmp/4.62/GMJ_IVECC2_B_P.csv /home/grierjones/DDCASPT2/iron_oxo_DDCASPT2/cluster/4.62/GMJ_IVECC2_B_P.csv

>>> COPY /tmp/4.62/GMJ_e2_B_P.csv /home/grierjones/DDCASPT2/iron_oxo_DDCASPT2/cluster/4.62/GMJ_e2_B_P.csv

>>> END FOREACH

>>> EXPORT j = M

>>> IF (-FILE GMJ_e2_${i}_${j}.csv)

>>> COPY /tmp/4.62/GMJ_RHS_B_M.csv /home/grierjones/DDCASPT2/iron_oxo_DDCASPT2/cluster/4.62/GMJ_RHS_B_M.csv

>>> COPY /tmp/4.62/GMJ_IVECW_B_M.csv /home/grierjones/DDCASPT2/iron_oxo_DDCASPT2/cluster/4.62/GMJ_IVECW_B_M.csv

>>> COPY /tmp/4.62/GMJ_IVECX_B_M.csv /home/grierjones/DDCASPT2/iron_oxo_DDCASPT2/cluster/4.62/GMJ_IVECX_B_M.csv

>>> COPY /tmp/4.62/GMJ_IVECC2_B_M.csv /home/grierjones/DDCASPT2/iron_oxo_DDCASPT2/cluster/4.62/GMJ_IVECC2_B_M.csv

>>> COPY /tmp/4.62/GMJ_e2_B_M.csv /home/grierjones/DDCASPT2/iron_oxo_DDCASPT2/cluster/4.62/GMJ_e2_B_M.csv

>>> END FOREACH

>>> END FOREACH

>>> EXPORT i = E

>>> EXPORT j = P

>>> IF (-FILE GMJ_e2_${i}_${j}.csv)

>>> COPY /tmp/4.62/GMJ_RHS_E_P.csv /home/grierjones/DDCASPT2/iron_oxo_DDCASPT2/cluster/4.62/GMJ_RHS_E_P.csv

>>> COPY /tmp/4.62/GMJ_IVECW_E_P.csv /home/grierjones/DDCASPT2/iron_oxo_DDCASPT2/cluster/4.62/GMJ_IVECW_E_P.csv

>>> COPY /tmp/4.62/GMJ_IVECX_E_P.csv /home/grierjones/DDCASPT2/iron_oxo_DDCASPT2/cluster/4.62/GMJ_IVECX_E_P.csv

>>> COPY /tmp/4.62/GMJ_IVECC2_E_P.csv /home/grierjones/DDCASPT2/iron_oxo_DDCASPT2/cluster/4.62/GMJ_IVECC2_E_P.csv

>>> COPY /tmp/4.62/GMJ_e2_E_P.csv /home/grierjones/DDCASPT2/iron_oxo_DDCASPT2/cluster/4.62/GMJ_e2_E_P.csv

>>> END FOREACH

>>> EXPORT j = M

>>> IF (-FILE GMJ_e2_${i}_${j}.csv)

>>> COPY /tmp/4.62/GMJ_RHS_E_M.csv /home/grierjones/DDCASPT2/iron_oxo_DDCASPT2/cluster/4.62/GMJ_RHS_E_M.csv

>>> COPY /tmp/4.62/GMJ_IVECW_E_M.csv /home/grierjones/DDCASPT2/iron_oxo_DDCASPT2/cluster/4.62/GMJ_IVECW_E_M.csv

>>> COPY /tmp/4.62/GMJ_IVECX_E_M.csv /home/grierjones/DDCASPT2/iron_oxo_DDCASPT2/cluster/4.62/GMJ_IVECX_E_M.csv

>>> COPY /tmp/4.62/GMJ_IVECC2_E_M.csv /home/grierjones/DDCASPT2/iron_oxo_DDCASPT2/cluster/4.62/GMJ_IVECC2_E_M.csv

>>> COPY /tmp/4.62/GMJ_e2_E_M.csv /home/grierjones/DDCASPT2/iron_oxo_DDCASPT2/cluster/4.62/GMJ_e2_E_M.csv

>>> END FOREACH

>>> END FOREACH

>>> EXPORT i = F

>>> EXPORT j = P

>>> IF (-FILE GMJ_e2_${i}_${j}.csv)

>>> COPY /tmp/4.62/GMJ_RHS_F_P.csv /home/grierjones/DDCASPT2/iron_oxo_DDCASPT2/cluster/4.62/GMJ_RHS_F_P.csv

>>> COPY /tmp/4.62/GMJ_IVECW_F_P.csv /home/grierjones/DDCASPT2/iron_oxo_DDCASPT2/cluster/4.62/GMJ_IVECW_F_P.csv

>>> COPY /tmp/4.62/GMJ_IVECX_F_P.csv /home/grierjones/DDCASPT2/iron_oxo_DDCASPT2/cluster/4.62/GMJ_IVECX_F_P.csv

>>> COPY /tmp/4.62/GMJ_IVECC2_F_P.csv /home/grierjones/DDCASPT2/iron_oxo_DDCASPT2/cluster/4.62/GMJ_IVECC2_F_P.csv

>>> COPY /tmp/4.62/GMJ_e2_F_P.csv /home/grierjones/DDCASPT2/iron_oxo_DDCASPT2/cluster/4.62/GMJ_e2_F_P.csv

>>> END FOREACH

>>> EXPORT j = M

>>> IF (-FILE GMJ_e2_${i}_${j}.csv)

>>> COPY /tmp/4.62/GMJ_RHS_F_M.csv /home/grierjones/DDCASPT2/iron_oxo_DDCASPT2/cluster/4.62/GMJ_RHS_F_M.csv

>>> COPY /tmp/4.62/GMJ_IVECW_F_M.csv /home/grierjones/DDCASPT2/iron_oxo_DDCASPT2/cluster/4.62/GMJ_IVECW_F_M.csv

>>> COPY /tmp/4.62/GMJ_IVECX_F_M.csv /home/grierjones/DDCASPT2/iron_oxo_DDCASPT2/cluster/4.62/GMJ_IVECX_F_M.csv

>>> COPY /tmp/4.62/GMJ_IVECC2_F_M.csv /home/grierjones/DDCASPT2/iron_oxo_DDCASPT2/cluster/4.62/GMJ_IVECC2_F_M.csv

>>> COPY /tmp/4.62/GMJ_e2_F_M.csv /home/grierjones/DDCASPT2/iron_oxo_DDCASPT2/cluster/4.62/GMJ_e2_F_M.csv

>>> END FOREACH

>>> END FOREACH

>>> EXPORT i = G

>>> EXPORT j = P

>>> IF (-FILE GMJ_e2_${i}_${j}.csv)

>>> COPY /tmp/4.62/GMJ_RHS_G_P.csv /home/grierjones/DDCASPT2/iron_oxo_DDCASPT2/cluster/4.62/GMJ_RHS_G_P.csv

>>> COPY /tmp/4.62/GMJ_IVECW_G_P.csv /home/grierjones/DDCASPT2/iron_oxo_DDCASPT2/cluster/4.62/GMJ_IVECW_G_P.csv

>>> COPY /tmp/4.62/GMJ_IVECX_G_P.csv /home/grierjones/DDCASPT2/iron_oxo_DDCASPT2/cluster/4.62/GMJ_IVECX_G_P.csv

>>> COPY /tmp/4.62/GMJ_IVECC2_G_P.csv /home/grierjones/DDCASPT2/iron_oxo_DDCASPT2/cluster/4.62/GMJ_IVECC2_G_P.csv

>>> COPY /tmp/4.62/GMJ_e2_G_P.csv /home/grierjones/DDCASPT2/iron_oxo_DDCASPT2/cluster/4.62/GMJ_e2_G_P.csv

>>> END FOREACH

>>> EXPORT j = M

>>> IF (-FILE GMJ_e2_${i}_${j}.csv)

>>> COPY /tmp/4.62/GMJ_RHS_G_M.csv /home/grierjones/DDCASPT2/iron_oxo_DDCASPT2/cluster/4.62/GMJ_RHS_G_M.csv

>>> COPY /tmp/4.62/GMJ_IVECW_G_M.csv /home/grierjones/DDCASPT2/iron_oxo_DDCASPT2/cluster/4.62/GMJ_IVECW_G_M.csv

>>> COPY /tmp/4.62/GMJ_IVECX_G_M.csv /home/grierjones/DDCASPT2/iron_oxo_DDCASPT2/cluster/4.62/GMJ_IVECX_G_M.csv

>>> COPY /tmp/4.62/GMJ_IVECC2_G_M.csv /home/grierjones/DDCASPT2/iron_oxo_DDCASPT2/cluster/4.62/GMJ_IVECC2_G_M.csv

>>> COPY /tmp/4.62/GMJ_e2_G_M.csv /home/grierjones/DDCASPT2/iron_oxo_DDCASPT2/cluster/4.62/GMJ_e2_G_M.csv

>>> END FOREACH

>>> END FOREACH

>>> EXPORT i = H

>>> EXPORT j = P

>>> IF (-FILE GMJ_e2_${i}_${j}.csv)

>>> COPY /tmp/4.62/GMJ_RHS_H_P.csv /home/grierjones/DDCASPT2/iron_oxo_DDCASPT2/cluster/4.62/GMJ_RHS_H_P.csv

>>> COPY /tmp/4.62/GMJ_IVECW_H_P.csv /home/grierjones/DDCASPT2/iron_oxo_DDCASPT2/cluster/4.62/GMJ_IVECW_H_P.csv

>>> COPY /tmp/4.62/GMJ_IVECX_H_P.csv /home/grierjones/DDCASPT2/iron_oxo_DDCASPT2/cluster/4.62/GMJ_IVECX_H_P.csv

>>> COPY /tmp/4.62/GMJ_IVECC2_H_P.csv /home/grierjones/DDCASPT2/iron_oxo_DDCASPT2/cluster/4.62/GMJ_IVECC2_H_P.csv

>>> COPY /tmp/4.62/GMJ_e2_H_P.csv /home/grierjones/DDCASPT2/iron_oxo_DDCASPT2/cluster/4.62/GMJ_e2_H_P.csv

>>> END FOREACH

>>> EXPORT j = M

>>> IF (-FILE GMJ_e2_${i}_${j}.csv)

>>> COPY /tmp/4.62/GMJ_RHS_H_M.csv /home/grierjones/DDCASPT2/iron_oxo_DDCASPT2/cluster/4.62/GMJ_RHS_H_M.csv

>>> COPY /tmp/4.62/GMJ_IVECW_H_M.csv /home/grierjones/DDCASPT2/iron_oxo_DDCASPT2/cluster/4.62/GMJ_IVECW_H_M.csv

>>> COPY /tmp/4.62/GMJ_IVECX_H_M.csv /home/grierjones/DDCASPT2/iron_oxo_DDCASPT2/cluster/4.62/GMJ_IVECX_H_M.csv

>>> COPY /tmp/4.62/GMJ_IVECC2_H_M.csv /home/grierjones/DDCASPT2/iron_oxo_DDCASPT2/cluster/4.62/GMJ_IVECC2_H_M.csv

>>> COPY /tmp/4.62/GMJ_e2_H_M.csv /home/grierjones/DDCASPT2/iron_oxo_DDCASPT2/cluster/4.62/GMJ_e2_H_M.csv

>>> END FOREACH

>>> END FOREACH

>>> EXPORT i = A

>>> IF (-FILE GMJ_e2_$i.csv)

>>> COPY /tmp/4.62/GMJ_RHS_A.csv /home/grierjones/DDCASPT2/iron_oxo_DDCASPT2/cluster/4.62/GMJ_RHS_A.csv

>>> COPY /tmp/4.62/GMJ_IVECW_A.csv /home/grierjones/DDCASPT2/iron_oxo_DDCASPT2/cluster/4.62/GMJ_IVECW_A.csv

>>> COPY /tmp/4.62/GMJ_IVECX_A.csv /home/grierjones/DDCASPT2/iron_oxo_DDCASPT2/cluster/4.62/GMJ_IVECX_A.csv

>>> COPY /tmp/4.62/GMJ_IVECC2_A.csv /home/grierjones/DDCASPT2/iron_oxo_DDCASPT2/cluster/4.62/GMJ_IVECC2_A.csv

>>> COPY /tmp/4.62/GMJ_e2_A.csv /home/grierjones/DDCASPT2/iron_oxo_DDCASPT2/cluster/4.62/GMJ_e2_A.csv

>>> END FOREACH

>>> EXPORT i = C

>>> IF (-FILE GMJ_e2_$i.csv)

>>> COPY /tmp/4.62/GMJ_RHS_C.csv /home/grierjones/DDCASPT2/iron_oxo_DDCASPT2/cluster/4.62/GMJ_RHS_C.csv

>>> COPY /tmp/4.62/GMJ_IVECW_C.csv /home/grierjones/DDCASPT2/iron_oxo_DDCASPT2/cluster/4.62/GMJ_IVECW_C.csv

>>> COPY /tmp/4.62/GMJ_IVECX_C.csv /home/grierjones/DDCASPT2/iron_oxo_DDCASPT2/cluster/4.62/GMJ_IVECX_C.csv

>>> COPY /tmp/4.62/GMJ_IVECC2_C.csv /home/grierjones/DDCASPT2/iron_oxo_DDCASPT2/cluster/4.62/GMJ_IVECC2_C.csv

>>> COPY /tmp/4.62/GMJ_e2_C.csv /home/grierjones/DDCASPT2/iron_oxo_DDCASPT2/cluster/4.62/GMJ_e2_C.csv

>>> END FOREACH

>>> EXPORT i = D

>>> IF (-FILE GMJ_e2_$i.csv)

>>> COPY /tmp/4.62/GMJ_RHS_D.csv /home/grierjones/DDCASPT2/iron_oxo_DDCASPT2/cluster/4.62/GMJ_RHS_D.csv

>>> COPY /tmp/4.62/GMJ_IVECW_D.csv /home/grierjones/DDCASPT2/iron_oxo_DDCASPT2/cluster/4.62/GMJ_IVECW_D.csv

>>> COPY /tmp/4.62/GMJ_IVECX_D.csv /home/grierjones/DDCASPT2/iron_oxo_DDCASPT2/cluster/4.62/GMJ_IVECX_D.csv

>>> COPY /tmp/4.62/GMJ_IVECC2_D.csv /home/grierjones/DDCASPT2/iron_oxo_DDCASPT2/cluster/4.62/GMJ_IVECC2_D.csv

>>> COPY /tmp/4.62/GMJ_e2_D.csv /home/grierjones/DDCASPT2/iron_oxo_DDCASPT2/cluster/4.62/GMJ_e2_D.csv

>>> END FOREACH

.########################.
.# Non-zero return code #.
.########################.

    Timing: Wall=418.52 User=415.10 System=3.29
************************************
*** WorkDir at /tmp/4.62 cleaned ***
************************************
