   This run of MOLCAS is using the pymolcas driver

                             OPE
                             OPE          NMOL  CASOP  ENMOLC A   SO
                 OPE        NMOLC        AS  OP EN  MO LC     AS  OP
                OPENM       OL CA        SO  PE NM  OL CA     SOP EN
                OP EN      MO   LC       AS  OP ENMOL  CASO   PENMOL
                OP  EN     MO   LC       AS  OP EN     MO     LC ASO
               OP   E  NMOL  C  AS       OP  EN MO     LC     AS  OP
               OP  E   NMO   LC AS        OPEN  MO     LCASOP EN   M
               O  PEN   MO  LCA  SO
            OPE   NMO   L   CAS    OP
        OPENMOL  CASOP     ENMOL   CASOPE
     OPENMOLCA   SOPENMOLCASOPEN   MOLCASOPE
    OPENMOLCAS   OP           EN   MOL    CAS
    OPENMOLCAS       OP  ENM        O     LCA
    OPENMOLCAS    OPEN  MOLCASO     P  E  NMO
    OPENMOLCAS     OP               E  N  MOL
    OPENMOLCA   SO           PENM   O  L  CAS    OPEN    MO    LCAS
    OPENMOLCA   SOP           ENM   O  L  CAS   OP  EN  MOLC  AS   O
    OPENMOLCA   SOPE           NM      O  LCA   S      OP  EN MO
    OPENMOLC                AS         O  PEN   M      OL  CA  SOPE
    OPENMO        LCASOPE  NMOL        C  ASO   P      ENMOLC     AS
    OPE     NMO      LCA  SO     P     E   NM   OL  CA SO  PE N   MO
          OPENMOLCA            SOPE   NMO        LCAS  O    P  ENMO
     OPENMOLCASOPENMOLCASOPENMOLCASOPENMOLCA
        OPENMOLCASOPENMOLCASOPENMOLCASOPE
            OPENMOLCASOPENMOLCASOPENM
               OPENMOLCASOPENMOLCA        version: 44d3b5344-dirty
                   OPENMOLCASO
                       OPE                tag:

 OpenMolcas is free software; you can redistribute it and/or modify it
 under the terms of the GNU Lesser General Public License version 2.1.
 OpenMolcas is distributed in the hope that it will be useful, but it
 is provided "as is" and without any express or implied warranties.
 For more details see the full text of the license in the file
 LICENSE or in <http://www.gnu.org/licenses/>.

                 Copyright (C) The OpenMolcas Authors
           For the author list and the recommended citation,
                   consult the file CONTRIBUTORS.md

           *************************************************
           * pymolcas version py2.28                       *
           *   build c4a6d18ded8cb6cad61d2372a9abd97c      *
           *   (after the EMIL interpreter by V. Veryazov) *
           *************************************************

configuration info
------------------
C Compiler ID: GNU
C flags: -std=gnu99
Fortran Compiler ID: Intel
Fortran flags: -fpp -i8 -r8 -heap-arrays
Definitions: _MOLCAS_;_I8_;_LINUX_
Parallel: OFF (GA=OFF)


   ----------------------------------------------------------------------------------------------------------
  |
  |              Project: H2_2.52
  |       Submitted from: /home/grierjones/DDCASPT2/hydrogen_comps/minimal_2e_2o/chains/even/H2_chain/H2_2.52
  |         Scratch area: /tmp/H2_2.52
  |      Save outputs to: /home/grierjones/DDCASPT2/hydrogen_comps/minimal_2e_2o/chains/even/H2_chain/H2_2.52
  |               Molcas: /home/grierjones/Test/build
  |
  | Scratch area is empty
  |
  |       MOLCAS_DRIVER = /usr/local/pymolcas
  | MOLCAS_KEEP_WORKDIR = NO
  |  MOLCAS_NEW_WORKDIR = YES
  |       MOLCAS_NPROCS = 1
  |       MOLCAS_SOURCE = /home/grierjones/Test/build
  |    MOLCAS_STRUCTURE = 0
  |
   ----------------------------------------------------------------------------------------------------------

++ ---------   Input file   ---------

&GATEWAY
coord=H2_2.52.xyz
Basis = ANO-RCC-VDZP
Group = nosymm
Expert
End of Input

&SEWARD
End of Input

&MOTRA
Frozen=0

>>> COPY $WorkDir/GMJ_one_int_indx.csv $CurrDir/H2_2.52.GMJ_one_int_indx.csv

>>> COPY $WorkDir/GMJ_one_int.csv $CurrDir/H2_2.52.GMJ_one_int.csv

>>> COPY $WorkDir/GMJ_two_int_indx.csv $CurrDir/H2_2.52.GMJ_two_int_indx.csv

>>> COPY $WorkDir/GMJ_two_int.csv $CurrDir/H2_2.52.GMJ_two_int.csv

&SCF

>>> COPY $WorkDir/H2_2.52.scf.h5 $CurrDir/

&RASSCF
Title= RASSCF
FileOrb
/home/grierjones/DDCASPT2/hydrogen_comps/minimal_2e_2o/chains/even/H2_chain/H2_2.49/H2_2.49.RasOrb

NACTEL
2 0 0
Inactive
0
RAS2
2
Symmetry
1
Spin
1
orblisting
all
ITERation
200 100
CIMX
200
SDAV
500

>>> COPY $WorkDir/H2_2.52.rasscf.h5 $CurrDir/

>>> COPY $WorkDir/GMJ_Fock_MO.csv $CurrDir/H2_2.52.GMJ_Fock_MO.csv

&CASPT2
Frozen
0
Imaginary Shift
0.0

>>> FOREACH i IN (B,E,F,G,H)

  >>> FOREACH j IN (P,M)

    >>> IF (-FILE GMJ_e2_${i}_${j}.csv)

      >>> COPY $WorkDir/GMJ_RHS_${i}_${j}.csv $CurrDir/GMJ_RHS_${i}_${j}.csv

      >>> COPY $WorkDir/GMJ_IVECW_${i}_${j}.csv $CurrDir/GMJ_IVECW_${i}_${j}.csv

      >>> COPY $WorkDir/GMJ_e2_${i}_${j}.csv $CurrDir/GMJ_e2_${i}_${j}.csv

    >>> END IF

  >>> END FOREACH

>>> END FOREACH

>>> FOREACH i IN (A,C,D)

  >>> IF (-FILE GMJ_e2_$i.csv)

    >>> COPY $WorkDir/GMJ_RHS_$i.csv $CurrDir/GMJ_RHS_$i.csv

    >>> COPY $WorkDir/GMJ_IVECW_$i.csv $CurrDir/GMJ_IVECW_$i.csv

    >>> COPY $WorkDir/GMJ_e2_$i.csv $CurrDir/GMJ_e2_$i.csv

  >>> END IF

>>> END FOREACH

-- ----------------------------------

--- Start Module: gateway at Fri Aug 16 13:56:04 2024 ---
 
()()()()()()()()()()()()()()()()()()()()()()()()()()()()()()()()()()()()()()()()()()()()()()()()()()

                                              &GATEWAY

                                   only a single process is used
                       available to each process: 2.0 GB of memory, 1 thread?
()()()()()()()()()()()()()()()()()()()()()()()()()()()()()()()()()()()()()()()()()()()()()()()()()()
 
 ###############################################################################
 ###############################################################################
 ###                                                                         ###
 ###                                                                         ###
 ###                                                                         ###
 ###    WARNING: EXPERT option is ON!                                        ###
 ###                                                                         ###
 ###                                                                         ###
 ###############################################################################
 ###############################################################################
 
++    Symmetry information:
      ---------------------
 
                    Character Table for C1 
 
                             E  
                    a        1  x, y, xy, Rz, z, xz, Ry, yz, Rx, I
--
 
 
++    Basis set information:
      ----------------------
 
 
      Basis set label: H.ANO-RCC...2S1P.
 
      Electronic valence basis set:
      ------------------
      Associated Effective Charge   1.000000 au
      Associated Actual Charge      1.000000 au
      Nuclear Model: Point charge
 
      Shell  nPrim  nBasis  Cartesian Spherical Contaminant
         s       8       2        X                  
         p       4       1        X                  
--
 
 
++    Molecular structure info:
      -------------------------
 
                    ************************************************ 
                    **** Cartesian Coordinates / Bohr, Angstrom **** 
                    ************************************************ 
 
     Center  Label                x              y              z                     x              y              z
        1      H1               0.000000       0.000000       0.000000              0.000000       0.000000       0.000000
        2      H2               0.000000       0.000000       4.752948              0.000000       0.000000       2.515152
--
 
 
            Nuclear Potential Energy              0.21039572 au
 
 ###############################################################################
 ###############################################################################
 ###                                                                         ###
 ###                                                                         ###
 ###    There were warnings during the execution                             ###
 ###    Please, check the output with care!                                  ###
 ###                                                                         ###
 ###                                                                         ###
 ###############################################################################
 ###############################################################################
--- Stop Module: gateway at Fri Aug 16 13:56:05 2024 /rc=_RC_ALL_IS_WELL_ ---
*** files: xmldump
    saved to directory /home/grierjones/DDCASPT2/hydrogen_comps/minimal_2e_2o/chains/even/H2_chain/H2_2.52

--- Start Module: seward at Fri Aug 16 13:56:05 2024 ---
 
()()()()()()()()()()()()()()()()()()()()()()()()()()()()()()()()()()()()()()()()()()()()()()()()()()

                                              &SEWARD

                                   only a single process is used
                       available to each process: 2.0 GB of memory, 1 thread?
()()()()()()()()()()()()()()()()()()()()()()()()()()()()()()()()()()()()()()()()()()()()()()()()()()
 
 ###############################################################################
 ###############################################################################
 ###                                                                         ###
 ###                                                                         ###
 ###                                                                         ###
 ###    WARNING: EXPERT option is ON!                                        ###
 ###                                                                         ###
 ###                                                                         ###
 ###############################################################################
 ###############################################################################
               SEWARD will generate:
                  Multipole Moment integrals up to order  2
                  Kinetic Energy integrals
                  Nuclear Attraction integrals (point charge)
                  One-Electron Hamiltonian integrals
                  Velocity integrals
                  Relativistic Douglas-Kroll-Hess integrals:
                    - Parametrization         : EXP
                    - DKH order of Hamiltonian: 2
                    - DKH order of Properties : 0
                         - multipole moment operators
                         - electric potential operators
                         - contact operators
                  Atomic mean-field integrals
                  Two-Electron Repulsion integrals
 
                   Integrals are discarded if absolute value <: 0.10E-13
                   Integral cutoff threshold is set to       <: 0.10E-15
 
            Nuclear Potential Energy              0.21039572 au
 
 
      Basis set specifications :
      Symmetry species         a  
      Basis functions           10
 
 
  Input file to MOLDEN was generated!
 
 ###############################################################################
 ###############################################################################
 ###                                                                         ###
 ###                                                                         ###
 ###    There were warnings during the execution                             ###
 ###    Please, check the output with care!                                  ###
 ###                                                                         ###
 ###                                                                         ###
 ###############################################################################
 ###############################################################################
--- Stop Module: seward at Fri Aug 16 13:56:05 2024 /rc=_RC_ALL_IS_WELL_ ---
*** files: H2_2.52.GssOrb H2_2.52.guessorb.h5 H2_2.52.guessorb.molden xmldump
    saved to directory /home/grierjones/DDCASPT2/hydrogen_comps/minimal_2e_2o/chains/even/H2_chain/H2_2.52

*** symbolic link created: INPORB -> H2_2.52.GssOrb
--- Start Module: motra at Fri Aug 16 13:56:05 2024 ---
 
()()()()()()()()()()()()()()()()()()()()()()()()()()()()()()()()()()()()()()()()()()()()()()()()()()

                                               &MOTRA

                                   only a single process is used
                       available to each process: 2.0 GB of memory, 1 thread?
()()()()()()()()()()()()()()()()()()()()()()()()()()()()()()()()()()()()()()()()()()()()()()()()()()
 
 
      *** WARNING: Default frozen orbitals is overwritten by user input.
      *** Default values:   0
 
      Header of the integral files:
      
       Integrals generated by seward 4.2.0  , Fri Aug 16 13:56:05 2024
 
 
      Header of MO coefficients source file:
      *Guess orbitals                                                                 
 
 
      Cartesian coordinates in Angstrom:
      -----------------------------------------------------
      No.  Label        X            Y            Z        
      -----------------------------------------------------
       1   H1         0.00000000   0.00000000   0.00000000
       2   H2         0.00000000   0.00000000   2.51515200
      -----------------------------------------------------
      Nuclear repulsion energy =    0.21039572
 
      Orbital specifications:
      -----------------------
 
      Symmetry species:              1
      Number of basis functions:    10
      Frozen orbitals:               0
      Deleted orbitals:              0
      Number of orbitals used:      10

       SYMMETRY  BASIS FUNCTIONS       ORBITALS      INTEGRALS   CPU(SEC)  I/O(SEC)
 
        1 1 1 1   10  10  10  10    10  10  10  10        1540       0.00      0.00

       TOTAL CPU TIME(SEC)    0.01TOTAL I/O TIME(SEC)    0.01
 
--- Stop Module: motra at Fri Aug 16 13:56:05 2024 /rc=_RC_ALL_IS_WELL_ ---
*** files: xmldump
    saved to directory /home/grierjones/DDCASPT2/hydrogen_comps/minimal_2e_2o/chains/even/H2_chain/H2_2.52

>>> COPY /tmp/H2_2.52/GMJ_one_int_indx.csv /home/grierjones/DDCASPT2/hydrogen_comps/minimal_2e_2o/chains/even/H2_chain/H2_2.52/H2_2.52.GMJ_one_int_indx.csv

>>> COPY /tmp/H2_2.52/GMJ_one_int.csv /home/grierjones/DDCASPT2/hydrogen_comps/minimal_2e_2o/chains/even/H2_chain/H2_2.52/H2_2.52.GMJ_one_int.csv

>>> COPY /tmp/H2_2.52/GMJ_two_int_indx.csv /home/grierjones/DDCASPT2/hydrogen_comps/minimal_2e_2o/chains/even/H2_chain/H2_2.52/H2_2.52.GMJ_two_int_indx.csv

>>> COPY /tmp/H2_2.52/GMJ_two_int.csv /home/grierjones/DDCASPT2/hydrogen_comps/minimal_2e_2o/chains/even/H2_chain/H2_2.52/H2_2.52.GMJ_two_int.csv

*** symbolic link created: INPORB -> H2_2.52.GssOrb
--- Start Module: scf at Fri Aug 16 13:56:05 2024 ---
 
()()()()()()()()()()()()()()()()()()()()()()()()()()()()()()()()()()()()()()()()()()()()()()()()()()

                                                &SCF

                                   only a single process is used
                       available to each process: 2.0 GB of memory, 1 thread?
()()()()()()()()()()()()()()()()()()()()()()()()()()()()()()()()()()()()()()()()()()()()()()()()()()
 
++    Input section:
      --------------
 
      Header of the integral files:
      
       Integrals generated by seward 4.2.0  , Fri Aug 16 13:56:05 2024
 
 
      Cartesian coordinates in Angstrom:
      -----------------------------------------------------
      No.  Label        X            Y            Z        
      -----------------------------------------------------
       1   H1         0.00000000   0.00000000   0.00000000
       2   H2         0.00000000   0.00000000   2.51515200
      -----------------------------------------------------
      Nuclear repulsion energy =    0.21039572
--
 
++    Orbital specifications:
      -----------------------
 
      Symmetry species               1
                                     a
      Frozen orbitals                0
      Occupied orbitals              1
      Secondary orbitals             9
      Deleted orbitals               0
      Total number of orbitals      10
      Number of basis functions     10
--
 
      Molecular charge                           0.000
 
++    Optimization specifications:
      ----------------------------
 
      SCF Algorithm: Conventional
      Minimized density differences are used
      Number of density matrices in core                5
      Maximum number of NDDO SCF iterations           400
      Maximum number of HF SCF iterations             400
      Threshold for SCF energy change            0.10E-08
      Threshold for density matrix               0.10E-03
      Threshold for Fock matrix                  0.15E-03
      Threshold for linear dependence            0.10E-08
      Threshold at which DIIS is turned on       0.15E+00
      Threshold at which QNR/C2DIIS is turned on 0.75E-01
      Threshold for Norm(delta) (QNR/C2DIIS)     0.20E-04
      DIIS extrapolation of the SCF procedure
      All orbitals punched on: SCFORB
--
 
      Input vectors read from INPORB
      Orbital file label: *Guess orbitals
 
 
++ Convergence information
                                   SCF        iterations: Energy and convergence statistics
 
Iter     Tot. SCF        One-elec.       Two-elec.     Energy      Max Dij or  Max Fij      DNorm      TNorm      AccCon     Time
         Energy          Energy          Energy        Change      Delta Norm                                                in Sec.
   1    -0.808068245    -1.454669513     0.436205550   0.00E+00    0.35E+00*   0.12E+00*    0.22E+01   0.21E+01   None         0.
   2    -0.862660780    -1.448303890     0.375247392  -0.55E-01*   0.66E-01*   0.23E-01*    0.55E+00   0.20E+01   EDIIS        0.
   3    -0.864596075    -1.439445901     0.364454108  -0.19E-02*   0.58E-03*   0.52E-02*    0.14E-01   0.20E+01   c2DIIS       0.
   4    -0.864664216    -1.437174204     0.362114271  -0.68E-04*   0.50E-04*   0.49E-04     0.82E-03   0.20E+01   QNRc2DIIS    0.
   5    -0.864664221    -1.437187330     0.362127391  -0.58E-08*   0.90E-05    0.76E-05     0.80E-05   0.20E+01   QNRc2DIIS    0.
   6    -0.864664222    -1.437189656     0.362129717  -0.14E-09    0.63E-07    0.34E-07     0.15E-04   0.20E+01   QNRc2DIIS    0.
 
       Convergence after  6 Macro Iterations
--
 
 *****************************************************************************************************************************
 *                                                                                                                           *
 *                                             SCF/KS-DFT Program, Final results                                             *
 *                                                                                                                           *
 *                                                                                                                           *
 *                                                                                                                           *
 *                                                       Final Results                                                       *
 *                                                                                                                           *
 *****************************************************************************************************************************
 
::    Total SCF energy                                 -0.8646642215
      One-electron energy                              -1.4371896562
      Two-electron energy                               0.3621297168
      Nuclear repulsion energy                          0.2103957179
      Kinetic energy (interpolated)                     0.6620695505
      Virial theorem                                    1.3060020974
      Total spin, S(S+1)                                0.0000000000
      Total spin, S                                     0.0000000000
      Max non-diagonal density matrix element           0.0000001184
      Max non-diagonal Fock matrix element              0.0000000076
 
 
      All orbitals with orbital energies smaller than  E(LUMO)+0.5 are printed
 
++    Molecular orbitals:
      -------------------
 
      Title: SCF orbitals

      Molecular orbitals for symmetry species 1: a  
 
          Orbital            1         2         3    
          Energy           -0.3565   -0.1010    0.3411
          Occ. No.          2.0000    0.0000    0.0000
 
        1 H1     1s         0.6256   -0.7926   -0.2816
        2 H1     2s         0.1297   -0.2684    0.5801
        3 H1     2px        0.0000    0.0000    0.0000
        4 H1     2py       -0.0000   -0.0000   -0.0000
        5 H1     2pz        0.0190    0.0169   -0.0263
        6 H2     1s         0.6256    0.7926   -0.2816
        7 H2     2s         0.1297    0.2684    0.5801
        8 H2     2px        0.0000    0.0000    0.0000
        9 H2     2py        0.0000   -0.0000    0.0000
       10 H2     2pz       -0.0190    0.0169    0.0263
--
 
 
++    Molecular charges:
      ------------------
 
      Mulliken charges per centre and basis function type
      ---------------------------------------------------
 
                H1      H2    
      1s       0.9032  0.9032
      2s       0.0923  0.0923
      2px      0.0000  0.0000
      2pz      0.0045  0.0045
      2py      0.0000  0.0000
      Total    1.0000  1.0000
 
      N-E      0.0000 -0.0000
 
      Total electronic charge=    2.000000
 
      Total            charge=   -0.000000
--
 
 
  Input file to MOLDEN was generated!
 
 
++    Static properties:
      ------------------
 
 
      LoProp Charges per center
 

                   H1       H2    
      Nuclear      1.0000   1.0000
      Electronic  -1.0000  -1.0000
 
      Total        0.0000  -0.0000
--
 
 
++    Natural Bond Order analysis
      ---------------------------
      Based on LoProp computed density
      -------------------------------------------------------------------------------------
      Atom A       Atom B       Bond Order
      -------------------------------------------------------------------------------------
      The remaining    2.000 electrons are to be considered as diffuse
--
 
 
++    Molecular properties:
      ---------------------
 
      Charge (e):
                      =   -0.0000
      Dipole Moment (Debye):
      Origin of the operator (Ang)=    0.0000    0.0000    0.0000
                   X= -7.5616E-15               Y= -5.4692E-16               Z= -1.3094E-12           Total=  1.3094E-12
      Quadrupole Moment (Debye*Ang):
      Origin of the operator (Ang)=    0.0000    0.0000    1.2576
                  XX= -4.8014E+00              XY=  1.6733E-31              XZ=  6.5756E-15              YY= -4.8014E+00
                  YZ= -2.1132E-15              ZZ= -2.2167E+00
      In traceless form (Debye*Ang)
                  XX= -1.2923E+00              XY=  2.5100E-31              XZ=  9.8634E-15              YY= -1.2923E+00
                  YZ= -3.1698E-15              ZZ=  2.5847E+00
--
 
 
  Input file to MOLDEN was generated!
 
 ###############################################################################
 ###############################################################################
 ###                                                                         ###
 ###                                                                         ###
 ###    RunFile label nBas                                                   ###
 ###    was used       78 times                                              ###
 ###                                                                         ###
 ###                                                                         ###
 ###############################################################################
 ###############################################################################
--- Stop Module: scf at Fri Aug 16 13:56:05 2024 /rc=_RC_ALL_IS_WELL_ ---
*** files: H2_2.52.LprOrb H2_2.52.LoProp.molden H2_2.52.scf.molden H2_2.52.ScfOrb H2_2.52.scf.h5 xmldump
    saved to directory /home/grierjones/DDCASPT2/hydrogen_comps/minimal_2e_2o/chains/even/H2_chain/H2_2.52

>>> COPY /tmp/H2_2.52/H2_2.52.scf.h5 /home/grierjones/DDCASPT2/hydrogen_comps/minimal_2e_2o/chains/even/H2_chain/H2_2.52/

*** symbolic link created: INPORB -> H2_2.52.ScfOrb
--- Start Module: rasscf at Fri Aug 16 13:56:05 2024 ---
 
()()()()()()()()()()()()()()()()()()()()()()()()()()()()()()()()()()()()()()()()()()()()()()()()()()

                                              &RASSCF

                                   only a single process is used
                       available to each process: 2.0 GB of memory, 1 thread?
()()()()()()()()()()()()()()()()()()()()()()()()()()()()()()()()()()()()()()()()()()()()()()()()()()
 
 
      Header of the ONEINT file:
      --------------------------
      
      Integrals generated by seward 4.2.0  , Fri Aug 16 13:56:05 2024
 
 
      OrdInt status: non-squared
 
 
      Cartesian coordinates in Angstrom:
      -----------------------------------------------------
      No.  Label        X            Y            Z        
      -----------------------------------------------------
       1   H1         0.00000000   0.00000000   0.00000000
       2   H2         0.00000000   0.00000000   2.51515200
      -----------------------------------------------------
      Nuclear repulsion energy =    0.21039572
 
++    Wave function specifications:
      -----------------------------
 
      Number of closed shell electrons           0
      Number of electrons in active shells       2
      Max number of holes in RAS1 space          0
      Max nr of electrons in RAS3 space          0
      Number of inactive orbitals                0
      Number of active orbitals                  2
      Number of secondary orbitals               8
      Spin quantum number                      0.0
      State symmetry                             1
--
 
++    Orbital specifications:
      -----------------------
 
      Symmetry species                           1
                                                 a
      Frozen orbitals                            0
      Inactive orbitals                          0
      Active orbitals                            2
      RAS1 orbitals                              0
      RAS2 orbitals                              2
      RAS3 orbitals                              0
      Secondary orbitals                         8
      Deleted orbitals                           0
      Number of basis functions                 10
--
 
++    CI expansion specifications:
      ----------------------------
 
      Number of CSFs                             3
      Number of determinants                     3
      Number of root(s) required                 1
      Root chosen for geometry opt.              1
      CI root used                               1
         
      highest root included in the CI            1
      max. size of the explicit Hamiltonian      3
--
 
++    Optimization specifications:
      ----------------------------
 
      RASSCF algorithm: Conventional
      Maximum number of macro iterations       200
      Maximum number of SX iterations          100
      Threshold for RASSCF energy            0.100E-07
      Threshold for max MO rotation          0.100E+00
      Threshold for max BLB element          0.100E-03
      Level shift parameter                  0.500E+00
      Make Quasi-Newton update
--
 
      The MO-coefficients are taken from the file:
      /home/grierjones/DDCASPT2/hydrogen_comps/minimal_2e_2o/chains/even/H2_chain/H2_2.49/H2_2.49.RasOrb                              
      Title: RASSCF average (pseudo-natural) orbitals                                      
 
      Total molecular charge    0.00
 
      ************************************************************************************************************************
      *                                                                                                                      *
      *                                            Wave function control section                                             *
      *                                                                                                                      *
      ************************************************************************************************************************
 
 
                                         RASSCF iterations: Energy and convergence statistics
                                         ----------------------------------------------------
 
      Iter CI   SX   CI       RASSCF       Energy    max ROT     max BLB   max BLB  Level Ln srch  Step   QN   Walltime
          iter iter root      energy       change     param      element    value   shift minimum  type update hh:mm:ss
 Nr of preliminary CI iterations:   1
        1   1    3    1    -1.00004627    0.00E+00  -0.36E-03    1   5 1 -0.46E-03*  0.00   0.00    SX    NO    0:00:00
        2   1    2    1    -1.00004645   -0.18E-06* -0.73E-04    2  10 1  0.80E-04   0.00   0.00    SX    NO    0:00:00
        3   1    2    1    -1.00004646   -0.61E-08  -0.13E-04    1   5 1 -0.17E-04   0.00   0.00    SX    NO    0:00:00
        4   1    2    1    -1.00004646   -0.21E-09   0.26E-05    2  10 1  0.29E-05   0.00   0.00    SX    NO    0:00:00
      Convergence after  4 iterations
        5   1    2    1    -1.00004646   -0.80E-11   0.26E-05    1   5 1 -0.73E-06   0.00   0.00    SX    NO    0:00:00
 
      ************************************************************************************************************************
                                                      Wave function printout:
                       occupation of active orbitals, and spin coupling of open shells (u,d: Spin up or down)
      ************************************************************************************************************************
 
      Note: transformation to natural orbitals
      has been made, which may change the order of the CSFs.
 
      printout of CI-coefficients larger than  0.05 for root  1
      energy=      -1.000046
      conf/sym  11     Coeff  Weight
             1  20  -0.80357 0.64573
             3  02   0.59520 0.35427
 
      Natural orbitals and occupation numbers for root  1
      sym 1:   1.291464   0.708536
 
      ************************************************************************************************************************
      *                                                                                                                      *
      *                                                    Final results                                                     *
      *                                                                                                                      *
      ************************************************************************************************************************
 
 
++    Wave function specifications:
      -----------------------------
 
      Number of closed shell electrons           0
      Number of electrons in active shells       2
      Max number of holes in RAS1 space          0
      Max nr of electrons in RAS3 space          0
      Number of inactive orbitals                0
      Number of active orbitals                  2
      Number of secondary orbitals               8
      Spin quantum number                      0.0
      State symmetry                             1
--
 
++    Orbital specifications:
      -----------------------
 
      Symmetry species                           1
                                                 a
      Frozen orbitals                            0
      Inactive orbitals                          0
      Active orbitals                            2
      RAS1 orbitals                              0
      RAS2 orbitals                              2
      RAS3 orbitals                              0
      Secondary orbitals                         8
      Deleted orbitals                           0
      Number of basis functions                 10
--
 
++    CI expansion specifications:
      ----------------------------
 
      Number of CSFs                             3
      Number of determinants                     3
      Number of root(s) required                 1
      CI root used                               1
      highest root included in the CI            1
      Root passed to geometry opt.               1
--
 
++    Final optimization conditions:
      ------------------------------
 
      Average CI energy                              -1.00004646
      RASSCF energy for state  1                     -1.00004646
      Super-CI energy                                -0.00000000
      RASSCF energy change                           -0.00000000
      Max change in MO coefficients               0.218E-05
      Max non-diagonal density matrix element     0.264E-05
      Maximum BLB matrix element                 -0.727E-06
      (orbital pair   1,   5 in symmetry   1)
      Norm of electronic gradient            0.752E-06
--
 
 
      Final state energy(ies):
      ------------------------
 
::    RASSCF root number  1 Total energy:     -1.00004646
 
++    Molecular orbitals:
      -------------------
 
      Pseudonatural active orbitals and approximate occupation numbers
 
 
 
 
      Molecular orbitals for symmetry species 1: a  
 
 
      Orbital                1         2         3         4         5         6         7         8         9        10
      Energy            0.0000    0.0000    0.3479    0.4691    0.8325    0.8943    0.8943    1.0056    1.0056    1.2507
      Occ. No.          1.2915    0.7085    0.0000    0.0000    0.0000    0.0000    0.0000    0.0000    0.0000    0.0000
 
    1 H1     1s         0.6591   -0.7660   -0.1994   -0.2256    0.0770   -0.0000   -0.0000   -0.0000   -0.0000   -0.2147
    2 H1     2s         0.0548   -0.0842    0.5918   -1.0276    0.0248    0.0000    0.0000    0.0000   -0.0000   -0.3758
    3 H1     2px        0.0000    0.0000    0.0000   -0.0000   -0.0000    0.3438   -0.5971   -0.3430    0.6407   -0.0000
    4 H1     2py       -0.0000    0.0000   -0.0000   -0.0000   -0.0000   -0.5971   -0.3438    0.6407    0.3430   -0.0000
    5 H1     2pz        0.0030   -0.0028   -0.0199    0.0696   -0.6621    0.0000    0.0000   -0.0000   -0.0000   -0.8052
    6 H2     1s         0.6591    0.7660   -0.1994    0.2256    0.0770   -0.0000    0.0000    0.0000    0.0000    0.2147
    7 H2     2s         0.0548    0.0842    0.5918    1.0276    0.0248   -0.0000   -0.0000    0.0000    0.0000    0.3758
    8 H2     2px       -0.0000    0.0000    0.0000   -0.0000   -0.0000    0.3438   -0.5971    0.3430   -0.6407    0.0000
    9 H2     2py       -0.0000    0.0000    0.0000   -0.0000   -0.0000   -0.5971   -0.3438   -0.6407   -0.3430   -0.0000
   10 H2     2pz       -0.0030   -0.0028    0.0199    0.0696    0.6621   -0.0000   -0.0000    0.0000    0.0000   -0.8052
--
 
      Von Neumann Entropy (Root  1) =  0.93782
 

      Mulliken population analysis for root number:  1
      -----------------------------------------------
 
 
++    Molecular charges:
      ------------------
 
      Mulliken charges per centre and basis function type
      ---------------------------------------------------
 
                H1      H2    
      1s       0.9912  0.9912
      2s       0.0086  0.0086
      2px      0.0000  0.0000
      2pz      0.0002  0.0002
      2py      0.0000  0.0000
      Total    1.0000  1.0000
 
      N-E      0.0000 -0.0000
 
      Total electronic charge=    2.000000
 
      Total            charge=   -0.000000
--
 
 

      Expectation values of various properties for root number:  1
      -----------------------------------------------------------
 
 
++    Molecular properties:
      ---------------------
 
      Charge (e):
                      =   -0.0000
      Dipole Moment (Debye):
      Origin of the operator (Ang)=    0.0000    0.0000    0.0000
                   X= -5.0559E-16               Y= -1.0792E-16               Z= -4.6505E-13           Total=  4.6505E-13
      Quadrupole Moment (Debye*Ang):
      Origin of the operator (Ang)=    0.0000    0.0000    1.2576
                  XX= -3.0547E+00              XY= -3.3262E-31              XZ= -3.9584E-17              YY= -3.0547E+00
                  YZ= -4.5543E-15              ZZ= -2.8026E+00
      In traceless form (Debye*Ang)
                  XX= -1.2608E-01              XY= -4.9893E-31              XZ= -5.9376E-17              YY= -1.2608E-01
                  YZ= -6.8315E-15              ZZ=  2.5215E-01
--
 

      LoProp population analysis for root number:  1
      -----------------------------------------------
 
 
++    LoProp analysis:
      ----------------
 
 
 
  Input file to MOLDEN was generated!
 
 
++    Static properties:
      ------------------
 
 
      LoProp Charges per center
 

                   H1       H2    
      Nuclear      1.0000   1.0000
      Electronic  -1.0000  -1.0000
 
      Total        0.0000  -0.0000
--
 
 
      Natural Bond Order analysis for root number:  1
 
++    Natural Bond Order analysis
      ---------------------------
      Based on LoProp computed density
      -------------------------------------------------------------------------------------
      Atom A       Atom B       Bond Order
      -------------------------------------------------------------------------------------
      The remaining    2.000 electrons are to be considered as diffuse
--
 
--
 
 
  Input file to MOLDEN was generated!
 
      Average orbitals are written to the RASORB file
      Natural orbitals for root   1 are written to the RASORB.1 file
      Spin density orbitals for root   1 are written to the SPDORB.1 file
 
--- Stop Module: rasscf at Fri Aug 16 13:56:05 2024 /rc=_RC_ALL_IS_WELL_ ---
*** files: H2_2.52.LprOrb H2_2.52.rasscf.molden H2_2.52.LoProp.molden H2_2.52.RasOrb H2_2.52.RasOrb.1 H2_2.52.rasscf.h5 H2_2.52.SpdOrb.1 xmldump
    saved to directory /home/grierjones/DDCASPT2/hydrogen_comps/minimal_2e_2o/chains/even/H2_chain/H2_2.52

>>> COPY /tmp/H2_2.52/H2_2.52.rasscf.h5 /home/grierjones/DDCASPT2/hydrogen_comps/minimal_2e_2o/chains/even/H2_chain/H2_2.52/

>>> COPY /tmp/H2_2.52/GMJ_Fock_MO.csv /home/grierjones/DDCASPT2/hydrogen_comps/minimal_2e_2o/chains/even/H2_chain/H2_2.52/H2_2.52.GMJ_Fock_MO.csv

*** symbolic link created: INPORB -> H2_2.52.RasOrb
--- Start Module: caspt2 at Fri Aug 16 13:56:05 2024 ---
 
()()()()()()()()()()()()()()()()()()()()()()()()()()()()()()()()()()()()()()()()()()()()()()()()()()

                                              &CASPT2

                                   only a single process is used
                       available to each process: 2.0 GB of memory, 1 thread?
()()()()()()()()()()()()()()()()()()()()()()()()()()()()()()()()()()()()()()()()()()()()()()()()()()
 
 Cholesky algorithm in CASPT2 =    1
 
 ###############################################################################
 ###############################################################################
 ###                                                                         ###
 ###                                                                         ###
 ###    User changed nr of frozen orbitals.                                  ###
 ###                                                                         ###
 ###                                                                         ###
 ###############################################################################
 ###############################################################################
 
++    Wave function specifications:
      -----------------------------
 
      Number of closed shell electrons           0
      Number of electrons in active shells       2
      Max number of holes in RAS1 space          0
      Max number of electrons in RAS3 space      0
      Number of inactive orbitals                0
      Number of active orbitals                  2
      Number of secondary orbitals               8
      Spin quantum number                      0.0
      State symmetry                             1
      Number of CSFs                             3
      Number of root(s) available                1
      Root passed to geometry opt.               1
      A file JOBMIX will be created.
      This is a CASSCF or RASSCF reference function
--
 
++    Orbital specifications:
      -----------------------
 
      Symmetry species                           1
                                                 a
      Frozen orbitals                            0
      Inactive orbitals                          0
      Active orbitals                            2
      Secondary orbitals                         8
      Deleted orbitals                           0
      Number of basis functions                 10
--
 
      Type of Fock operator: STANDARD
      Type of 0-order Hamiltonian: STANDARD WITH DEFAULT IPEA
        "IP-EA" denominator shift =      0.25
      The input orbitals and the CI vector will be transformed.
 
--------------------------------------------------------------------------------
 Estimated memory requirements:
  POLY3 :                   250070
  RHS:                      250422
  SIGMA :                   250432
  PRPCTL:                        0
 Available workspace:    230399703
 
++ CASPT2 computation for group   1
 
********************************************************************************
 Multi-State initialization phase begins for group   1
--------------------------------------------------------------------------------
********************************************************************************
 Compute H0 matrices for state    1
--------------------------------------------------------------------------------
--------------------------------------------------------------------------------
 H0 matrices have been computed.
 
********************************************************************************
  CASPT2 EQUATION SOLUTION
--------------------------------------------------------------------------------
 
  Total nr of CASPT2 parameters:
   Before reduction:         200
   After  reduction:          52
 
 The contributions to the second order correlation energy in atomic units.
-----------------------------------------------------------------------------------------------------------------------------
  IT.      VJTU        VJTI        ATVX        AIVX        VJAI        BVAT        BJAT        BJAI        TOTAL       RNORM  
-----------------------------------------------------------------------------------------------------------------------------
   1     0.000000    0.000000    0.000000    0.000000    0.000000   -0.000433    0.000000    0.000000   -0.000433    0.000082
   2     0.000000    0.000000    0.000000    0.000000    0.000000   -0.000433    0.000000    0.000000   -0.000433    0.000002
-------------------------------------------------------------------------------------------------------------------
 
  FINAL CASPT2 RESULT:
 
  Correlation energy /Case, /Symm, and sums:
 VJTU      0.00000000  0.00000000
 VJTIP     0.00000000  0.00000000
 VJTIM     0.00000000  0.00000000
 ATVX      0.00000000  0.00000000
 AIVX      0.00000000  0.00000000
 VJAIP     0.00000000  0.00000000
 VJAIM     0.00000000  0.00000000
 BVATP    -0.00043291 -0.00043291
 BVATM     0.00000000  0.00000000
 BJATP     0.00000000  0.00000000
 BJATM     0.00000000  0.00000000
 BJAIP     0.00000000  0.00000000
 BJAIM     0.00000000  0.00000000
 Summed:  -0.00043291 -0.00043291
 
      Reference energy:          -1.0000464567
      E2 (Non-variational):      -0.0004329103
      E2 (Variational):          -0.0004329100
      Total energy:              -1.0004793667
      Residual norm:              0.0000001380
      Reference weight:           0.99980
 
      Contributions to the CASPT2 correlation energy
      Active & Virtual Only:         -0.0004329103
      One Inactive Excited:           0.0000000000
      Two Inactive Excited:           0.0000000000
 
 
++ Denominators, etc.
----------------------------------------------------------------------------------------------------
 Report on small energy denominators, large coefficients, and large energy contributions.
CASE  SYMM ACTIVE-MIX  NON-ACTIVE INDICES          DENOMINATOR     RHS VALUE       COEFFICIENT     CONTRIBUTION
--
 
   (Skipping property calculation,
    use PROP keyword to activate)
--
 
  Total CASPT2 energies:
::    CASPT2 Root  1     Total energy:     -1.00047937
 
  A NEW JOBIPH FILE NAMED 'JOBMIX' IS PREPARED.
********************************************************************************
--- Stop Module: caspt2 at Fri Aug 16 13:56:05 2024 /rc=_RC_ALL_IS_WELL_ ---
*** files: xmldump
    saved to directory /home/grierjones/DDCASPT2/hydrogen_comps/minimal_2e_2o/chains/even/H2_chain/H2_2.52

>>> EXPORT i = B

>>> EXPORT j = P

>>> IF (-FILE GMJ_e2_${i}_${j}.csv)
(Skipped)

>>> END FOREACH

>>> EXPORT j = M

>>> IF (-FILE GMJ_e2_${i}_${j}.csv)
(Skipped)

>>> END FOREACH

>>> END FOREACH

>>> EXPORT i = E

>>> EXPORT j = P

>>> IF (-FILE GMJ_e2_${i}_${j}.csv)
(Skipped)

>>> END FOREACH

>>> EXPORT j = M

>>> IF (-FILE GMJ_e2_${i}_${j}.csv)
(Skipped)

>>> END FOREACH

>>> END FOREACH

>>> EXPORT i = F

>>> EXPORT j = P

>>> IF (-FILE GMJ_e2_${i}_${j}.csv)

>>> COPY /tmp/H2_2.52/GMJ_RHS_F_P.csv /home/grierjones/DDCASPT2/hydrogen_comps/minimal_2e_2o/chains/even/H2_chain/H2_2.52/GMJ_RHS_F_P.csv

>>> COPY /tmp/H2_2.52/GMJ_IVECW_F_P.csv /home/grierjones/DDCASPT2/hydrogen_comps/minimal_2e_2o/chains/even/H2_chain/H2_2.52/GMJ_IVECW_F_P.csv

>>> COPY /tmp/H2_2.52/GMJ_e2_F_P.csv /home/grierjones/DDCASPT2/hydrogen_comps/minimal_2e_2o/chains/even/H2_chain/H2_2.52/GMJ_e2_F_P.csv

>>> END FOREACH

>>> EXPORT j = M

>>> IF (-FILE GMJ_e2_${i}_${j}.csv)
(Skipped)

>>> END FOREACH

>>> END FOREACH

>>> EXPORT i = G

>>> EXPORT j = P

>>> IF (-FILE GMJ_e2_${i}_${j}.csv)
(Skipped)

>>> END FOREACH

>>> EXPORT j = M

>>> IF (-FILE GMJ_e2_${i}_${j}.csv)
(Skipped)

>>> END FOREACH

>>> END FOREACH

>>> EXPORT i = H

>>> EXPORT j = P

>>> IF (-FILE GMJ_e2_${i}_${j}.csv)
(Skipped)

>>> END FOREACH

>>> EXPORT j = M

>>> IF (-FILE GMJ_e2_${i}_${j}.csv)
(Skipped)

>>> END FOREACH

>>> END FOREACH

>>> EXPORT i = A

>>> IF (-FILE GMJ_e2_$i.csv)
(Skipped)

>>> END FOREACH

>>> EXPORT i = C

>>> IF (-FILE GMJ_e2_$i.csv)

>>> COPY /tmp/H2_2.52/GMJ_RHS_C.csv /home/grierjones/DDCASPT2/hydrogen_comps/minimal_2e_2o/chains/even/H2_chain/H2_2.52/GMJ_RHS_C.csv

>>> COPY /tmp/H2_2.52/GMJ_IVECW_C.csv /home/grierjones/DDCASPT2/hydrogen_comps/minimal_2e_2o/chains/even/H2_chain/H2_2.52/GMJ_IVECW_C.csv

>>> COPY /tmp/H2_2.52/GMJ_e2_C.csv /home/grierjones/DDCASPT2/hydrogen_comps/minimal_2e_2o/chains/even/H2_chain/H2_2.52/GMJ_e2_C.csv

>>> END FOREACH

>>> EXPORT i = D

>>> IF (-FILE GMJ_e2_$i.csv)
(Skipped)

>>> END FOREACH

.########################.
.# Non-zero return code #.
.########################.

    Timing: Wall=0.88 User=0.64 System=0.23
***************************************
*** WorkDir at /tmp/H2_2.52 cleaned ***
***************************************
