   This run of MOLCAS is using the pymolcas driver

                             OPE
                             OPE          NMOL  CASOP  ENMOLC A   SO
                 OPE        NMOLC        AS  OP EN  MO LC     AS  OP
                OPENM       OL CA        SO  PE NM  OL CA     SOP EN
                OP EN      MO   LC       AS  OP ENMOL  CASO   PENMOL
                OP  EN     MO   LC       AS  OP EN     MO     LC ASO
               OP   E  NMOL  C  AS       OP  EN MO     LC     AS  OP
               OP  E   NMO   LC AS        OPEN  MO     LCASOP EN   M
               O  PEN   MO  LCA  SO
            OPE   NMO   L   CAS    OP
        OPENMOL  CASOP     ENMOL   CASOPE
     OPENMOLCA   SOPENMOLCASOPEN   MOLCASOPE
    OPENMOLCAS   OP           EN   MOL    CAS
    OPENMOLCAS       OP  ENM        O     LCA
    OPENMOLCAS    OPEN  MOLCASO     P  E  NMO
    OPENMOLCAS     OP               E  N  MOL
    OPENMOLCA   SO           PENM   O  L  CAS    OPEN    MO    LCAS
    OPENMOLCA   SOP           ENM   O  L  CAS   OP  EN  MOLC  AS   O
    OPENMOLCA   SOPE           NM      O  LCA   S      OP  EN MO
    OPENMOLC                AS         O  PEN   M      OL  CA  SOPE
    OPENMO        LCASOPE  NMOL        C  ASO   P      ENMOLC     AS
    OPE     NMO      LCA  SO     P     E   NM   OL  CA SO  PE N   MO
          OPENMOLCA            SOPE   NMO        LCAS  O    P  ENMO
     OPENMOLCASOPENMOLCASOPENMOLCASOPENMOLCA
        OPENMOLCASOPENMOLCASOPENMOLCASOPE
            OPENMOLCASOPENMOLCASOPENM
               OPENMOLCASOPENMOLCA        version: f37762c57
                   OPENMOLCASO
                       OPE                tag:

 OpenMolcas is free software; you can redistribute it and/or modify it
 under the terms of the GNU Lesser General Public License version 2.1.
 OpenMolcas is distributed in the hope that it will be useful, but it
 is provided "as is" and without any express or implied warranties.
 For more details see the full text of the license in the file
 LICENSE or in <http://www.gnu.org/licenses/>.

                 Copyright (C) The OpenMolcas Authors
           For the author list and the recommended citation,
                   consult the file CONTRIBUTORS.md

           *************************************************
           * pymolcas version py2.28                       *
           *   build c4a6d18ded8cb6cad61d2372a9abd97c      *
           *   (after the EMIL interpreter by V. Veryazov) *
           *************************************************

configuration info
------------------
C Compiler ID: Intel
C flags: -std=gnu99 -gcc-sys
Fortran Compiler ID: IntelLLVM
Fortran flags: -standard-semantics -fltconsistency -fpp -i8 -heap-arrays
Definitions: _MOLCAS_;_I8_;_LINUX_
Parallel: OFF (GA=OFF)


   ------------------------------------------------------------------------------------
  |
  |              Project: 2.66
  |       Submitted from: /home/grierjones/DDCASPT2/iron_oxo_DDCASPT2/MScaspt2iron/2.66
  |         Scratch area: /tmp/2.66
  |      Save outputs to: /home/grierjones/DDCASPT2/iron_oxo_DDCASPT2/MScaspt2iron/2.66
  |               Molcas: /home/grierjones/Test/build
  |
  | Scratch area is empty
  |
  |       MOLCAS_DRIVER = /usr/local/pymolcas
  | MOLCAS_KEEP_WORKDIR = NO
  |  MOLCAS_NEW_WORKDIR = YES
  |       MOLCAS_NPROCS = 1
  |        MOLCAS_PRINT = NORMAL
  |       MOLCAS_SOURCE = /home/grierjones/Test
  |    MOLCAS_STRUCTURE = 0
  |
   ------------------------------------------------------------------------------------

++ ---------   Input file   ---------

&GATEWAY
coord=2.66.xyz
Basis = ANO-RCC-VTZP
Group = nosymm
End of Input

&SEWARD
End of Input

&SCF
UHF
charge
2
spin
5
FileOrb
/home/grierjones/DDCASPT2/iron_oxo_DDCASPT2/MScaspt2iron/2.64/2.64.UhfOrb

>>> COPY $WorkDir/2.66.scf.h5 $CurrDir/

&RASSCF
Title= RASSCF
FileOrb
/home/grierjones/DDCASPT2/iron_oxo_DDCASPT2/MScaspt2iron/2.64/2.64.RasOrb
CIROOT
3 3 1
NACTEL
10 0 0
RAS2
14
Symmetry
1
Spin
5
charge
2
orblisting
all

>>> COPY $WorkDir/2.66.rasscf.h5 $CurrDir/

>>> COPY $WorkDir/GMJ_Fock_MO.csv $CurrDir/2.66.GMJ_Fock_MO.csv

&MOTRA
Frozen=0
LUMORB

>>> COPY $WorkDir/GMJ_one_int_indx.csv $CurrDir/2.66.GMJ_one_int_indx.csv

>>> COPY $WorkDir/GMJ_one_int.csv $CurrDir/2.66.GMJ_one_int.csv

>>> COPY $WorkDir/GMJ_two_int_indx.csv $CurrDir/2.66.GMJ_two_int_indx.csv

>>> COPY $WorkDir/GMJ_two_int.csv $CurrDir/2.66.GMJ_two_int.csv

&CASPT2

Imaginary Shift
0.2
IPEA
0.25

Frozen
0

MAXITER
50

>>> FOREACH k IN (1,2,3)

  >>> FOREACH i IN (B,E,F,G,H)

    >>> FOREACH j IN (P,M)

      >>> IF (-FILE GMJ_e2_${i}_${j}_${k}_.csv)

        >>> COPY $WorkDir/GMJ_RHS_${i}_${j}_${k}_.csv $CurrDir/GMJ_RHS_${i}_${j}_${k}_.csv

        >>> COPY $WorkDir/GMJ_IVECW_${i}_${j}_${k}_.csv $CurrDir/GMJ_IVECW_${i}_${j}_${k}_.csv

        >>> COPY $WorkDir/GMJ_IVECX_${i}_${j}_${k}_.csv $CurrDir/GMJ_IVECX_${i}_${j}_${k}_.csv

        >>> COPY $WorkDir/GMJ_IVECC2_${i}_${j}_${k}_.csv $CurrDir/GMJ_IVECC2_${i}_${j}_${k}_.csv

        >>> COPY $WorkDir/GMJ_e2_${i}_${j}_${k}_.csv $CurrDir/GMJ_e2_${i}_${j}_${k}_.csv

      >>> END IF

    >>> END FOREACH

  >>> END FOREACH

>>> END FOREACH

>>> FOREACH j IN (1,2,3)

  >>> FOREACH i IN (A,C,D)

    >>> IF (-FILE GMJ_e2_${i}_${j}_.csv)

      >>> COPY $WorkDir/GMJ_RHS_${i}_${j}_.csv $CurrDir/GMJ_RHS_${i}_${j}_.csv

      >>> COPY $WorkDir/GMJ_IVECW_${i}_${j}_.csv $CurrDir/GMJ_IVECW_${i}_${j}_.csv

      >>> COPY $WorkDir/GMJ_IVECX_${i}_${j}_.csv $CurrDir/GMJ_IVECX_${i}_${j}_.csv

      >>> COPY $WorkDir/GMJ_IVECC2_${i}_${j}_.csv $CurrDir/GMJ_IVECC2_${i}_${j}_.csv

      >>> COPY $WorkDir/GMJ_e2_${i}_${j}_.csv $CurrDir/GMJ_e2_${i}_${j}_.csv

    >>> END IF

  >>> END FOREACH

>>> END FOREACH

-- ----------------------------------

--- Start Module: gateway at Thu Apr 17 23:35:05 2025 ---
 
()()()()()()()()()()()()()()()()()()()()()()()()()()()()()()()()()()()()()()()()()()()()()()()()()()

                                              &GATEWAY

                                   only a single process is used
                       available to each process: 2.0 GB of memory, 1 thread?
()()()()()()()()()()()()()()()()()()()()()()()()()()()()()()()()()()()()()()()()()()()()()()()()()()
 
 
++    Symmetry information:
      ---------------------
 
                    Character Table for C1 
 
                             E  
                    a        1  x, y, xy, Rz, z, xz, Ry, yz, Rx, I
--
 
 
++    Basis set information:
      ----------------------
 
 
      Basis set label: O.ANO-RCC...4S3P2D1F.
 
      Electronic valence basis set:
      ------------------
      Associated Effective Charge   8.000000 au
      Associated Actual Charge      8.000000 au
      Nuclear Model: Point charge
 
      Shell  nPrim  nBasis  Cartesian Spherical Contaminant
         s      14       4        X                  
         p       9       3        X                  
         d       4       2                 X         
         f       3       1                 X         
 
 
      Basis set label: FE.ANO-RCC...6S5P3D2F1G.
 
      Electronic valence basis set:
      ------------------
      Associated Effective Charge  26.000000 au
      Associated Actual Charge     26.000000 au
      Nuclear Model: Point charge
 
      Shell  nPrim  nBasis  Cartesian Spherical Contaminant
         s      21       6        X                  
         p      15       5        X                  
         d      10       3                 X         
         f       6       2                 X         
         g       4       1                 X         
--
 
 
++    Molecular structure info:
      -------------------------
 
                    ************************************************ 
                    **** Cartesian Coordinates / Bohr, Angstrom **** 
                    ************************************************ 
 
     Center  Label                x              y              z                     x              y              z
        1      O1               0.000000       0.000000       4.025117              0.000000       0.000000       2.130000
        2      FE2              0.000000       0.000000      -1.001555              0.000000       0.000000      -0.530000
--
 
 
            Nuclear Potential Energy             41.37927061 au
 
--- Stop Module: gateway at Thu Apr 17 23:35:05 2025 /rc=_RC_ALL_IS_WELL_ ---
*** files: xmldump
    saved to directory /home/grierjones/DDCASPT2/iron_oxo_DDCASPT2/MScaspt2iron/2.66

--- Start Module: seward at Thu Apr 17 23:35:05 2025 ---
 
()()()()()()()()()()()()()()()()()()()()()()()()()()()()()()()()()()()()()()()()()()()()()()()()()()

                                              &SEWARD

                                   only a single process is used
                       available to each process: 2.0 GB of memory, 1 thread?
()()()()()()()()()()()()()()()()()()()()()()()()()()()()()()()()()()()()()()()()()()()()()()()()()()
 
               SEWARD will generate:
                  Multipole Moment integrals up to order  2
                  Kinetic Energy integrals
                  Nuclear Attraction integrals (point charge)
                  One-Electron Hamiltonian integrals
                  Velocity integrals
                  Relativistic Douglas-Kroll-Hess integrals:
                    - Parametrization         : EXP
                    - DKH order of Hamiltonian: 2
                    - DKH order of Properties : 0
                         - multipole moment operators
                         - electric potential operators
                         - contact operators
                  Atomic mean-field integrals
                  Two-Electron Repulsion integrals
 
                   Integrals are discarded if absolute value <: 0.10E-13
                   Integral cutoff threshold is set to       <: 0.10E-15
 
            Nuclear Potential Energy             41.37927061 au
 
 
      Basis set specifications :
      Symmetry species         a  
      Basis functions           89
 
 
  Input file to MOLDEN was generated!
 
forrtl: warning (525): IEEE_DIVIDE_BY_ZERO is signaling
forrtl: warning (526): IEEE_INVALID is signaling
forrtl: warning (528): IEEE_UNDERFLOW is signaling
--- Stop Module: seward at Thu Apr 17 23:35:08 2025 /rc=_RC_ALL_IS_WELL_ ---
*** files: 2.66.GssOrb 2.66.guessorb.h5 2.66.guessorb.molden xmldump
    saved to directory /home/grierjones/DDCASPT2/iron_oxo_DDCASPT2/MScaspt2iron/2.66
--- Module seward spent 2 seconds ---

*** symbolic link created: INPORB -> 2.66.GssOrb
--- Start Module: scf at Thu Apr 17 23:35:08 2025 ---
 
()()()()()()()()()()()()()()()()()()()()()()()()()()()()()()()()()()()()()()()()()()()()()()()()()()

                                                &SCF

                                   only a single process is used
                       available to each process: 2.0 GB of memory, 1 thread?
()()()()()()()()()()()()()()()()()()()()()()()()()()()()()()()()()()()()()()()()()()()()()()()()()()
 
 *** Possible bug in opening file
 *** isFreeUnit resets the unit number
++    Input section:
      --------------
 
      Header of the integral files:
      
       Integrals generated by seward 4.2.0  , Thu Apr 17 23:35:05 2025
 
 
      Cartesian coordinates in Angstrom:
      -----------------------------------------------------
      No.  Label        X            Y            Z        
      -----------------------------------------------------
       1   O1         0.00000000   0.00000000   2.13000000
       2   FE2        0.00000000   0.00000000  -0.53000000
      -----------------------------------------------------
      Nuclear repulsion energy =   41.37927061
--
 
++    Orbital specifications:
      -----------------------
 
      Symmetry species               1
                                     a
      Frozen orbitals                0
      Occupied orbitals alpha       18
      Occupied orbitals beta        14
      Secondary orbitals alpha      71
      Secondary orbitals beta       75
      Deleted orbitals               0
      Total number of orbitals      89
      Number of basis functions     89
--
 
      Molecular charge                           2.000
 
++    Optimization specifications:
      ----------------------------
 
      SCF Algorithm: Conventional USCF
      D(i)-D(i-1) density differences are used
      Number of density matrices in core                5
      Maximum number of NDDO SCF iterations           400
      Maximum number of HF SCF iterations             400
      Threshold for SCF energy change            0.10E-08
      Threshold for density matrix               0.10E-03
      Threshold for Fock matrix                  0.15E-03
      Threshold for linear dependence            0.10E-08
      Threshold at which DIIS is turned on       0.15E+00
      Threshold at which QNR/C2DIIS is turned on 0.75E-01
      Threshold for Norm(delta) (QNR/C2DIIS)     0.20E-04
      DIIS extrapolation of the SCF procedure
      All orbitals punched on: UHFORB
--
 
      Input vectors read from INPORB
      Orbital file label: * UHF orbitals
 
 
++ Convergence information
                               UHF SCF        iterations: Energy and convergence statistics
 
Iter     Tot. SCF        One-elec.       Two-elec.     Energy      Max Dij or  Max Fij      DNorm      TNorm      AccCon     Time
         Energy          Energy          Energy        Change      Delta Norm                                                in Sec.
 
 The total and one-electron energies are shifted by a value of      1000. a.u.
 
   1  -345.193764376  -925.317338794   538.744303809   0.00E+00    0.70E-02*   0.83E-03*    0.81E+01   0.21E+03   None         0.
   2  -345.193774667  -925.369680419   538.796635143  -0.10E-04*   0.88E-03*   0.77E-03*    0.13E-01   0.21E+03   EDIIS        0.
   3  -345.193777358  -925.310259081   538.737211115  -0.27E-05*   0.98E-03*   0.17E-03*    0.51E-02   0.21E+03   c2DIIS       0.
   4  -345.193779831  -925.335730631   538.762680192  -0.25E-05*   0.61E-02*   0.51E-03*    0.41E-02   0.21E+03   QNRc2DIIS    0.
   5  -345.193781284  -925.398872676   538.825820784  -0.15E-05*   0.30E-02*   0.76E-03*    0.71E-02   0.21E+03   QNRc2DIIS    0.
   6  -345.193784315  -925.386200299   538.813145376  -0.30E-05*   0.82E-02*   0.29E-03*    0.38E-02   0.21E+03   QNRc2DIIS    0.
   7  -345.193786491  -925.400908179   538.827851079  -0.22E-05*   0.11E-02*   0.86E-04     0.10E-01   0.21E+03   QNRc2DIIS    0.
   8  -345.193786569  -925.403178556   538.830121378  -0.78E-07*   0.11E-02*   0.53E-04     0.13E-02   0.21E+03   QNRc2DIIS    0.
   9  -345.193786628  -925.405310694   538.832253457  -0.58E-07*   0.11E-02*   0.74E-04     0.13E-02   0.21E+03   QNRc2DIIS    0.
  10  -345.193786588  -925.406460967   538.833403770   0.40E-07*   0.35E-03*   0.34E-04     0.15E-02   0.21E+03   QNRc2DIIS    0.
  11  -345.193786596  -925.404970036   538.831912831  -0.79E-08*   0.13E-03*   0.13E-04     0.47E-03   0.21E+03   QNRc2DIIS    0.
  12  -345.193786598  -925.405352670   538.832295463  -0.18E-08*   0.15E-03*   0.72E-05     0.18E-03   0.21E+03   QNRc2DIIS    0.
  13  -345.193786599  -925.405435121   538.832377913  -0.15E-08*   0.18E-03*   0.55E-05     0.21E-03   0.21E+03   QNRc2DIIS    0.
  14  -345.193786601  -925.405537122   538.832479913  -0.16E-08*   0.19E-03*   0.10E-04     0.26E-03   0.21E+03   QNRc2DIIS    0.
  15  -345.193786603  -925.405619646   538.832562434  -0.25E-08*   0.17E-02*   0.11E-04     0.27E-03   0.21E+03   QNRc2DIIS    0.
  16  -345.193786586  -925.405416121   538.832358925   0.17E-07*   0.15E-02*   0.48E-05     0.24E-02   0.21E+03   QNRc2DIIS    0.
  17  -345.193786582  -925.405426221   538.832369030   0.43E-08*   0.10E-03*   0.41E-05     0.21E-02   0.21E+03   QNRc2DIIS    0.
  18  -345.193786582  -925.405413711   538.832356520  -0.26E-09    0.11E-04    0.10E-05     0.15E-03   0.21E+03   QNRc2DIIS    0.
 
       Convergence after 18 Macro Iterations
--
 
 *****************************************************************************************************************************
 *                                                                                                                           *
 *                                             SCF/KS-DFT Program, Final results                                             *
 *                                                                                                                           *
 *                                                                                                                           *
 *                                                                                                                           *
 *                                                       Final Results                                                       *
 *                                                                                                                           *
 *****************************************************************************************************************************
 
::    Total SCF energy                              -1345.1937865823
      One-electron energy                           -1925.4054137113
      Two-electron energy                             538.8323565202
      Nuclear repulsion energy                         41.3792706088
      Kinetic energy (interpolated)                  1399.0818927352
      Virial theorem                                    0.9614832367
      Total spin, S(S+1)                                7.0760565222
      Total spin, S                                     2.2066688978
      Max non-diagonal density matrix element           0.0000060419
      Max non-diagonal Fock matrix element              0.0000004931
 
 
      All orbitals with orbital energies smaller than  E(LUMO)+0.5 are printed
 
++    Molecular orbitals:
      -------------------
 
      Title: UHF orbitals (alpha)

      Molecular orbitals for symmetry species 1: a  
 
          Orbital            1         2         3         4         5         6         7         8         9        10    
          Energy         -264.1144  -32.9069  -27.9870  -27.9870  -27.9642  -21.4488   -4.8230   -3.3950   -3.3950   -3.3402
          Occ. No.          1.0000    1.0000    1.0000    1.0000    1.0000    1.0000    1.0000    1.0000    1.0000    1.0000
 
        1 O1     1s         0.0000    0.0000    0.0000   -0.0000   -0.0000    1.0000   -0.0001   -0.0000    0.0000   -0.0001
        2 O1     2s         0.0000    0.0001    0.0000   -0.0000   -0.0001    0.0004   -0.0007   -0.0000    0.0000    0.0006
        3 O1     3s         0.0000    0.0001    0.0000   -0.0000   -0.0001   -0.0006   -0.0008   -0.0000    0.0000   -0.0001
        4 O1     4s        -0.0000    0.0000    0.0000   -0.0000   -0.0000    0.0003   -0.0004   -0.0000    0.0000   -0.0001
        5 O1     2px       -0.0000   -0.0000    0.0000    0.0000    0.0000   -0.0000    0.0000   -0.0000   -0.0000   -0.0000
        6 O1     3px       -0.0000   -0.0000    0.0000    0.0000    0.0000    0.0000    0.0000    0.0000    0.0001   -0.0000
        7 O1     4px       -0.0000   -0.0000   -0.0000   -0.0000   -0.0000   -0.0000    0.0000    0.0000    0.0002    0.0000
        8 O1     2py        0.0000    0.0000   -0.0000    0.0000   -0.0000    0.0000   -0.0000    0.0000   -0.0000    0.0000
        9 O1     3py        0.0000    0.0000   -0.0000    0.0000   -0.0000   -0.0000   -0.0000   -0.0001    0.0000    0.0000
       10 O1     4py        0.0000    0.0000    0.0000   -0.0000    0.0000    0.0000   -0.0000   -0.0002    0.0000   -0.0000
       11 O1     2pz       -0.0000   -0.0000   -0.0000    0.0000    0.0001   -0.0003    0.0006    0.0000   -0.0000   -0.0006
       12 O1     3pz       -0.0000   -0.0000   -0.0000    0.0000    0.0001   -0.0003    0.0007   -0.0000    0.0000    0.0001
       13 O1     4pz       -0.0000    0.0000    0.0000   -0.0000    0.0000   -0.0002   -0.0002   -0.0000    0.0000    0.0002
       14 O1     3d2-      -0.0000   -0.0000   -0.0000   -0.0000    0.0000   -0.0000   -0.0000   -0.0000   -0.0000   -0.0000
       15 O1     4d2-      -0.0000   -0.0000   -0.0000   -0.0000    0.0000    0.0000    0.0000   -0.0000   -0.0000   -0.0000
       16 O1     3d1-      -0.0000   -0.0000    0.0000   -0.0000    0.0000   -0.0000    0.0000   -0.0001    0.0000   -0.0000
       17 O1     4d1-      -0.0000   -0.0000    0.0000   -0.0000    0.0000    0.0000    0.0000   -0.0001    0.0000   -0.0000
       18 O1     3d0       -0.0000    0.0000    0.0000   -0.0000   -0.0000   -0.0013   -0.0003    0.0000   -0.0000    0.0002
       19 O1     4d0       -0.0000    0.0000    0.0000   -0.0000   -0.0000    0.0013   -0.0003    0.0000   -0.0000    0.0001
       20 O1     3d1+       0.0000    0.0000   -0.0000   -0.0000   -0.0000    0.0000   -0.0000    0.0000    0.0001    0.0000
       21 O1     4d1+       0.0000    0.0000   -0.0000   -0.0000   -0.0000   -0.0000   -0.0000    0.0000    0.0001    0.0000
       22 O1     3d2+       0.0000    0.0000    0.0000   -0.0000   -0.0000    0.0000   -0.0000   -0.0000    0.0000    0.0000
       23 O1     4d2+       0.0000    0.0000    0.0000   -0.0000   -0.0000   -0.0000   -0.0000   -0.0000    0.0000    0.0000
       24 O1     4f3-       0.0000   -0.0000   -0.0000    0.0000    0.0000    0.0000   -0.0000    0.0000   -0.0000   -0.0000
       25 O1     4f2-       0.0000    0.0000    0.0000    0.0000   -0.0000    0.0000    0.0000    0.0000    0.0000    0.0000
       26 O1     4f1-      -0.0000   -0.0000   -0.0000    0.0000   -0.0000   -0.0000    0.0000    0.0001   -0.0000    0.0000
       27 O1     4f0        0.0000    0.0000   -0.0000    0.0000    0.0000   -0.0000    0.0000    0.0000   -0.0000    0.0000
       28 O1     4f1+       0.0000    0.0000    0.0000    0.0000    0.0000    0.0000   -0.0000   -0.0000   -0.0001   -0.0000
       29 O1     4f2+      -0.0000   -0.0000   -0.0000    0.0000    0.0000   -0.0000    0.0000    0.0000   -0.0000   -0.0000
       30 O1     4f3+      -0.0000    0.0000    0.0000    0.0000   -0.0000   -0.0000    0.0000   -0.0000   -0.0000    0.0000
       31 FE2    1s         1.0000   -0.0000    0.0000   -0.0000   -0.0000   -0.0000   -0.0000   -0.0000    0.0000    0.0000
       32 FE2    2s         0.0000    1.0000   -0.0000    0.0000   -0.0010   -0.0000   -0.0025   -0.0000    0.0000   -0.0000
       33 FE2    3s         0.0000    0.0025    0.0000   -0.0000    0.0000   -0.0001    1.0000   -0.0000    0.0000   -0.0043
       34 FE2    4s         0.0000   -0.0002   -0.0000    0.0000    0.0001   -0.0004    0.0041   -0.0000    0.0000    0.0008
       35 FE2    5s         0.0000    0.0002    0.0000   -0.0000    0.0000    0.0001   -0.0018    0.0000   -0.0000   -0.0003
       36 FE2    6s        -0.0000   -0.0001   -0.0000    0.0000   -0.0000    0.0000    0.0010   -0.0000    0.0000    0.0000
       37 FE2    2px        0.0000   -0.0000   -0.2180   -0.9759   -0.0000   -0.0000    0.0000    0.0005    0.0023    0.0000
       38 FE2    3px        0.0000   -0.0000   -0.0005   -0.0023   -0.0000   -0.0000   -0.0000   -0.2160   -0.9764   -0.0000
       39 FE2    4px        0.0000    0.0000    0.0001    0.0003    0.0000   -0.0000    0.0000    0.0007    0.0030    0.0000
       40 FE2    5px       -0.0000   -0.0000   -0.0002   -0.0007   -0.0000   -0.0000   -0.0000   -0.0002   -0.0008   -0.0000
       41 FE2    6px        0.0000    0.0000    0.0001    0.0004    0.0000   -0.0000   -0.0000   -0.0004   -0.0017   -0.0000
       42 FE2    2py       -0.0000    0.0000    0.9759   -0.2180    0.0000    0.0000   -0.0000   -0.0023    0.0005   -0.0000
       43 FE2    3py       -0.0000    0.0000    0.0023   -0.0005    0.0000    0.0000    0.0000    0.9764   -0.2160    0.0000
       44 FE2    4py       -0.0000   -0.0000   -0.0003    0.0001   -0.0000    0.0000   -0.0000   -0.0030    0.0007   -0.0000
       45 FE2    5py        0.0000    0.0000    0.0007   -0.0002    0.0000    0.0000    0.0000    0.0008   -0.0002    0.0000
       46 FE2    6py       -0.0000   -0.0000   -0.0004    0.0001   -0.0000    0.0000    0.0000    0.0017   -0.0004    0.0000
       47 FE2    2pz        0.0000    0.0010   -0.0000    0.0000    1.0000   -0.0000   -0.0000    0.0000   -0.0000   -0.0019
       48 FE2    3pz       -0.0000    0.0000   -0.0000    0.0000    0.0019   -0.0001    0.0044   -0.0000    0.0000    1.0000
       49 FE2    4pz        0.0000   -0.0001   -0.0000    0.0000   -0.0001   -0.0004    0.0009   -0.0000    0.0000   -0.0004
       50 FE2    5pz       -0.0000    0.0000   -0.0000    0.0000    0.0005   -0.0000    0.0004    0.0000   -0.0000   -0.0011
       51 FE2    6pz        0.0000   -0.0001    0.0000   -0.0000   -0.0003    0.0001   -0.0000    0.0000   -0.0000    0.0007
       52 FE2    3d2-      -0.0000   -0.0000    0.0000    0.0000   -0.0000   -0.0000   -0.0000    0.0000    0.0000   -0.0000
       53 FE2    4d2-      -0.0000   -0.0000   -0.0000   -0.0000   -0.0000   -0.0000   -0.0000    0.0000    0.0000    0.0000
       54 FE2    5d2-       0.0000    0.0000    0.0000    0.0000   -0.0000   -0.0000    0.0000   -0.0000   -0.0000   -0.0000
       55 FE2    3d1-      -0.0000   -0.0000    0.0001   -0.0000    0.0000    0.0000   -0.0000    0.0023   -0.0005    0.0000
       56 FE2    4d1-       0.0000    0.0000   -0.0001    0.0000   -0.0000    0.0000   -0.0000   -0.0006    0.0001   -0.0000
       57 FE2    5d1-      -0.0000   -0.0000    0.0001   -0.0000    0.0000    0.0000    0.0000    0.0002   -0.0000    0.0000
       58 FE2    3d0       -0.0000   -0.0004   -0.0000    0.0000    0.0001   -0.0001   -0.0096    0.0000   -0.0000    0.0018
       59 FE2    4d0        0.0000    0.0002   -0.0000    0.0000   -0.0000   -0.0002    0.0041    0.0000   -0.0000    0.0004
       60 FE2    5d0       -0.0000   -0.0003   -0.0000    0.0000    0.0001   -0.0000   -0.0000    0.0000   -0.0000   -0.0002
       61 FE2    3d1+       0.0000    0.0000   -0.0000   -0.0001   -0.0000   -0.0000    0.0000   -0.0005   -0.0023   -0.0000
       62 FE2    4d1+      -0.0000   -0.0000    0.0000    0.0001    0.0000   -0.0000    0.0000    0.0001    0.0006    0.0000
       63 FE2    5d1+       0.0000    0.0000   -0.0000   -0.0001   -0.0000   -0.0000   -0.0000   -0.0000   -0.0002   -0.0000
       64 FE2    3d2+      -0.0000   -0.0000   -0.0000    0.0000   -0.0000    0.0000   -0.0000   -0.0000    0.0000   -0.0000
       65 FE2    4d2+       0.0000    0.0000    0.0000   -0.0000    0.0000    0.0000    0.0000    0.0000   -0.0000    0.0000
       66 FE2    5d2+      -0.0000   -0.0000   -0.0000    0.0000   -0.0000    0.0000   -0.0000   -0.0000    0.0000   -0.0000
       67 FE2    4f3-       0.0000   -0.0000   -0.0000    0.0000    0.0000    0.0000   -0.0000   -0.0000    0.0000    0.0000
       68 FE2    5f3-      -0.0000    0.0000    0.0000   -0.0000   -0.0000    0.0000    0.0000    0.0000   -0.0000   -0.0000
       69 FE2    4f2-       0.0000   -0.0000   -0.0000   -0.0000    0.0000   -0.0000   -0.0000   -0.0000   -0.0000    0.0000
       70 FE2    5f2-      -0.0000   -0.0000    0.0000    0.0000   -0.0000   -0.0000   -0.0000    0.0000    0.0000   -0.0000
       71 FE2    4f1-      -0.0000    0.0000   -0.0002    0.0000   -0.0000    0.0000    0.0000   -0.0056    0.0012   -0.0000
       72 FE2    5f1-       0.0000   -0.0000    0.0002   -0.0000    0.0000    0.0000   -0.0000    0.0011   -0.0002   -0.0000
       73 FE2    4f0        0.0000   -0.0000    0.0000   -0.0000   -0.0000   -0.0000    0.0001    0.0000   -0.0000   -0.0010
       74 FE2    5f0       -0.0000   -0.0000   -0.0000    0.0000    0.0001   -0.0001    0.0004    0.0000   -0.0000    0.0004
       75 FE2    4f1+       0.0000   -0.0000    0.0000    0.0002    0.0000   -0.0000   -0.0000    0.0012    0.0056    0.0000
       76 FE2    5f1+      -0.0000    0.0000   -0.0000   -0.0002   -0.0000   -0.0000    0.0000   -0.0002   -0.0011    0.0000
       77 FE2    4f2+       0.0000   -0.0000    0.0000   -0.0000   -0.0000    0.0000   -0.0000    0.0000   -0.0000   -0.0000
       78 FE2    5f2+      -0.0000    0.0000   -0.0000    0.0000    0.0000    0.0000    0.0000   -0.0000    0.0000    0.0000
       79 FE2    4f3+      -0.0000    0.0000    0.0000    0.0000   -0.0000   -0.0000    0.0000    0.0000    0.0000   -0.0000
       80 FE2    5f3+       0.0000   -0.0000   -0.0000   -0.0000    0.0000   -0.0000   -0.0000   -0.0000   -0.0000    0.0000
       81 FE2    5g4-      -0.0000   -0.0000    0.0000    0.0000    0.0000    0.0000   -0.0000    0.0000    0.0000    0.0000
       82 FE2    5g3-      -0.0000    0.0000   -0.0000    0.0000   -0.0000   -0.0000    0.0000   -0.0000   -0.0000   -0.0000
       83 FE2    5g2-       0.0000    0.0000   -0.0000   -0.0000    0.0000   -0.0000    0.0000   -0.0000   -0.0000   -0.0000
       84 FE2    5g1-      -0.0000    0.0000   -0.0000    0.0000    0.0000    0.0000    0.0000   -0.0001    0.0000   -0.0000
       85 FE2    5g0       -0.0000    0.0001   -0.0000    0.0000   -0.0000   -0.0000    0.0022   -0.0000    0.0000   -0.0000
       86 FE2    5g1+       0.0000   -0.0000    0.0000    0.0000   -0.0000   -0.0000   -0.0000    0.0000    0.0001    0.0000
       87 FE2    5g2+       0.0000   -0.0000   -0.0000    0.0000   -0.0000    0.0000   -0.0000    0.0000   -0.0000    0.0000
       88 FE2    5g3+       0.0000   -0.0000    0.0000    0.0000    0.0000    0.0000   -0.0000   -0.0000    0.0000    0.0000
       89 FE2    5g4+       0.0000   -0.0000    0.0000   -0.0000    0.0000    0.0000   -0.0000    0.0000   -0.0000    0.0000
 
          Orbital           11        12        13        14        15        16        17        18        19        20    
          Energy           -1.9648   -1.3434   -1.3434   -1.1169   -1.1169   -1.0873   -1.0601   -1.0601   -0.5588   -0.4283
          Occ. No.          1.0000    1.0000    1.0000    1.0000    1.0000    1.0000    1.0000    1.0000    0.0000    0.0000
 
        1 O1     1s        -0.0003   -0.0000    0.0000   -0.0000   -0.0000   -0.0018    0.0000   -0.0000    0.0058   -0.0113
        2 O1     2s         0.9961   -0.0000    0.0000   -0.0000   -0.0000   -0.0343    0.0000   -0.0000    0.0836   -0.1107
        3 O1     3s        -0.0616    0.0000   -0.0000    0.0000    0.0000    0.0012    0.0000   -0.0000   -0.0033   -0.0134
        4 O1     4s        -0.0096    0.0000   -0.0000    0.0000    0.0000    0.0004    0.0000   -0.0000   -0.0020   -0.0018
        5 O1     2px       -0.0000    0.9707    0.1967   -0.0000   -0.0000    0.0000    0.0054    0.0249   -0.0000   -0.0000
        6 O1     3px        0.0000   -0.1236   -0.0250    0.0000    0.0000   -0.0000   -0.0011   -0.0052   -0.0000   -0.0000
        7 O1     4px       -0.0000   -0.0073   -0.0015    0.0000    0.0000   -0.0000   -0.0002   -0.0012    0.0000   -0.0000
        8 O1     2py        0.0000    0.1967   -0.9707    0.0000   -0.0000   -0.0000   -0.0249    0.0054    0.0000    0.0000
        9 O1     3py       -0.0000   -0.0250    0.1236   -0.0000    0.0000    0.0000    0.0052   -0.0011    0.0000    0.0000
       10 O1     4py        0.0000   -0.0015    0.0073   -0.0000    0.0000    0.0000    0.0012   -0.0002   -0.0000    0.0000
       11 O1     2pz       -0.0297   -0.0000    0.0000   -0.0000   -0.0000   -0.0364    0.0000   -0.0000    0.8834    0.4071
       12 O1     3pz       -0.0004    0.0000   -0.0000    0.0000    0.0000    0.0037   -0.0000    0.0000    0.1056    0.0691
       13 O1     4pz        0.0026    0.0000   -0.0000    0.0000    0.0000    0.0026   -0.0000    0.0000   -0.0082    0.0014
       14 O1     3d2-      -0.0000   -0.0000   -0.0000    0.0005    0.0000   -0.0000    0.0000    0.0000    0.0000   -0.0000
       15 O1     4d2-       0.0000   -0.0000   -0.0000    0.0003    0.0000   -0.0000    0.0000    0.0000   -0.0000    0.0000
       16 O1     3d1-      -0.0000   -0.0021    0.0104    0.0000   -0.0000    0.0000   -0.0013    0.0003   -0.0000   -0.0000
       17 O1     4d1-       0.0000   -0.0009    0.0043    0.0000   -0.0000    0.0000   -0.0005    0.0001   -0.0000   -0.0000
       18 O1     3d0       -0.0448    0.0000   -0.0000    0.0000    0.0000    0.0049   -0.0000    0.0000   -0.0204    0.0005
       19 O1     4d0        0.0036    0.0000   -0.0000    0.0000    0.0000    0.0013    0.0000   -0.0000   -0.0092   -0.0017
       20 O1     3d1+       0.0000   -0.0104   -0.0021   -0.0000   -0.0000   -0.0000    0.0003    0.0013    0.0000    0.0000
       21 O1     4d1+      -0.0000   -0.0043   -0.0009   -0.0000   -0.0000   -0.0000    0.0001    0.0005    0.0000    0.0000
       22 O1     3d2+       0.0000    0.0000   -0.0000   -0.0000    0.0005   -0.0000   -0.0000    0.0000    0.0000   -0.0000
       23 O1     4d2+       0.0000    0.0000   -0.0000   -0.0000    0.0003   -0.0000   -0.0000    0.0000   -0.0000    0.0000
       24 O1     4f3-       0.0000    0.0000   -0.0000    0.0000   -0.0000    0.0000   -0.0000    0.0000   -0.0000    0.0000
       25 O1     4f2-       0.0000   -0.0000   -0.0000   -0.0001   -0.0000    0.0000   -0.0000   -0.0000    0.0000    0.0000
       26 O1     4f1-       0.0000   -0.0018    0.0088   -0.0000    0.0000    0.0000    0.0006   -0.0001   -0.0000   -0.0000
       27 O1     4f0        0.0004    0.0000   -0.0000   -0.0000   -0.0000   -0.0003   -0.0000    0.0000   -0.0092   -0.0040
       28 O1     4f1+      -0.0000   -0.0088   -0.0018    0.0000    0.0000   -0.0000   -0.0001   -0.0006    0.0000    0.0000
       29 O1     4f2+      -0.0000    0.0000   -0.0000    0.0000   -0.0001   -0.0000   -0.0000    0.0000    0.0000    0.0000
       30 O1     4f3+      -0.0000    0.0000    0.0000    0.0000    0.0000   -0.0000    0.0000    0.0000    0.0000   -0.0000
       31 FE2    1s        -0.0000   -0.0000    0.0000    0.0000    0.0000    0.0000   -0.0000    0.0000    0.0007    0.0004
       32 FE2    2s        -0.0001   -0.0000    0.0000    0.0000    0.0000    0.0003   -0.0000    0.0000    0.0051    0.0032
       33 FE2    3s        -0.0017   -0.0000    0.0000    0.0000    0.0000    0.0098    0.0000   -0.0000    0.0295    0.0131
       34 FE2    4s         0.0024    0.0000   -0.0000    0.0000    0.0000    0.0111   -0.0000    0.0000   -0.2485    1.0053
       35 FE2    5s        -0.0010   -0.0000    0.0000   -0.0000   -0.0000   -0.0040    0.0000   -0.0000    0.0468   -0.0735
       36 FE2    6s         0.0004   -0.0000    0.0000    0.0000   -0.0000   -0.0003   -0.0000    0.0000   -0.0023   -0.0218
       37 FE2    2px        0.0000   -0.0000   -0.0000   -0.0000   -0.0000    0.0000    0.0000    0.0001    0.0000    0.0000
       38 FE2    3px       -0.0000   -0.0012   -0.0002   -0.0000   -0.0000    0.0000    0.0005    0.0023    0.0000    0.0000
       39 FE2    4px        0.0000    0.0066    0.0013   -0.0000    0.0000   -0.0000   -0.0011   -0.0050   -0.0000    0.0000
       40 FE2    5px        0.0000    0.0024    0.0005    0.0000   -0.0000    0.0000    0.0001    0.0003   -0.0000    0.0000
       41 FE2    6px       -0.0000    0.0021    0.0004   -0.0000   -0.0000    0.0000    0.0003    0.0013    0.0000    0.0000
       42 FE2    2py       -0.0000   -0.0000    0.0000    0.0000   -0.0000   -0.0000   -0.0001    0.0000   -0.0000   -0.0000
       43 FE2    3py        0.0000   -0.0002    0.0012    0.0000   -0.0000   -0.0000   -0.0023    0.0005   -0.0000   -0.0000
       44 FE2    4py       -0.0000    0.0013   -0.0066    0.0000    0.0000    0.0000    0.0050   -0.0011    0.0000   -0.0000
       45 FE2    5py       -0.0000    0.0005   -0.0024   -0.0000   -0.0000   -0.0000   -0.0003    0.0001    0.0000   -0.0000
       46 FE2    6py        0.0000    0.0004   -0.0021    0.0000   -0.0000   -0.0000   -0.0013    0.0003   -0.0000   -0.0000
       47 FE2    2pz       -0.0001   -0.0000    0.0000   -0.0000   -0.0000   -0.0001   -0.0000    0.0000    0.0009    0.0005
       48 FE2    3pz       -0.0045   -0.0000    0.0000   -0.0000   -0.0000   -0.0021   -0.0000    0.0000    0.0229    0.0120
       49 FE2    4pz        0.0019    0.0000   -0.0000    0.0000    0.0000    0.0169   -0.0000    0.0000   -0.1165   -0.0059
       50 FE2    5pz       -0.0008   -0.0000    0.0000   -0.0000   -0.0000   -0.0031    0.0000   -0.0000   -0.0057    0.0135
       51 FE2    6pz       -0.0008   -0.0000    0.0000   -0.0000   -0.0000   -0.0040    0.0000   -0.0000    0.0025    0.0126
       52 FE2    3d2-       0.0000    0.0000    0.0000    0.9981    0.0144   -0.0000    0.0000    0.0000    0.0000   -0.0000
       53 FE2    4d2-       0.0000   -0.0000   -0.0000   -0.0524   -0.0008    0.0000   -0.0000   -0.0000    0.0000   -0.0000
       54 FE2    5d2-       0.0000   -0.0000   -0.0000   -0.0300   -0.0004    0.0000   -0.0000   -0.0000   -0.0000   -0.0000
       55 FE2    3d1-      -0.0000    0.0028   -0.0140   -0.0000    0.0001    0.0000    0.9763   -0.2107   -0.0000    0.0000
       56 FE2    4d1-      -0.0000    0.0006   -0.0030    0.0000   -0.0000   -0.0000   -0.0338    0.0073    0.0000   -0.0000
       57 FE2    5d1-      -0.0000    0.0004   -0.0020    0.0000   -0.0000   -0.0000   -0.0263    0.0057    0.0000   -0.0000
       58 FE2    3d0        0.0068    0.0000   -0.0000    0.0000    0.0000    0.9965   -0.0000    0.0000    0.0843    0.0270
       59 FE2    4d0        0.0001   -0.0000    0.0000   -0.0000   -0.0000   -0.0389   -0.0000    0.0000   -0.0262   -0.0227
       60 FE2    5d0       -0.0006   -0.0000    0.0000   -0.0000   -0.0000   -0.0280    0.0000   -0.0000   -0.0154   -0.0078
       61 FE2    3d1+       0.0000    0.0140    0.0028    0.0000    0.0000   -0.0000   -0.2107   -0.9763    0.0000   -0.0000
       62 FE2    4d1+       0.0000    0.0030    0.0006   -0.0000   -0.0000    0.0000    0.0073    0.0338   -0.0000    0.0000
       63 FE2    5d1+       0.0000    0.0020    0.0004   -0.0000   -0.0000    0.0000    0.0057    0.0263   -0.0000    0.0000
       64 FE2    3d2+       0.0000    0.0000   -0.0000   -0.0144    0.9981   -0.0000   -0.0001    0.0000   -0.0000   -0.0000
       65 FE2    4d2+      -0.0000   -0.0000    0.0000    0.0008   -0.0524    0.0000    0.0000   -0.0000    0.0000   -0.0000
       66 FE2    5d2+      -0.0000   -0.0000    0.0000    0.0004   -0.0300    0.0000    0.0000   -0.0000   -0.0000   -0.0000
       67 FE2    4f3-      -0.0000    0.0000   -0.0000    0.0000   -0.0000   -0.0000    0.0000   -0.0000   -0.0000    0.0000
       68 FE2    5f3-       0.0000    0.0000   -0.0000    0.0000   -0.0000   -0.0000    0.0000   -0.0000   -0.0000    0.0000
       69 FE2    4f2-      -0.0000   -0.0000   -0.0000    0.0015    0.0000   -0.0000    0.0000    0.0000   -0.0000    0.0000
       70 FE2    5f2-       0.0000   -0.0000   -0.0000    0.0004    0.0000   -0.0000    0.0000    0.0000    0.0000    0.0000
       71 FE2    4f1-      -0.0000    0.0002   -0.0009   -0.0000    0.0000   -0.0000    0.0024   -0.0005    0.0000    0.0000
       72 FE2    5f1-      -0.0000    0.0002   -0.0008   -0.0000    0.0000   -0.0000    0.0014   -0.0003    0.0000    0.0000
       73 FE2    4f0        0.0007    0.0000   -0.0000    0.0000    0.0000    0.0034    0.0000   -0.0000   -0.0051   -0.0018
       74 FE2    5f0        0.0006    0.0000   -0.0000    0.0000    0.0000    0.0023    0.0000   -0.0000   -0.0041   -0.0015
       75 FE2    4f1+       0.0000    0.0009    0.0002    0.0000    0.0000    0.0000   -0.0005   -0.0024   -0.0000   -0.0000
       76 FE2    5f1+       0.0000    0.0008    0.0002    0.0000    0.0000    0.0000   -0.0003   -0.0014   -0.0000   -0.0000
       77 FE2    4f2+      -0.0000    0.0000   -0.0000   -0.0000    0.0015   -0.0000    0.0000   -0.0000   -0.0000    0.0000
       78 FE2    5f2+      -0.0000    0.0000   -0.0000   -0.0000    0.0004   -0.0000    0.0000   -0.0000    0.0000    0.0000
       79 FE2    4f3+       0.0000    0.0000    0.0000    0.0000    0.0000    0.0000   -0.0000   -0.0000    0.0000   -0.0000
       80 FE2    5f3+      -0.0000    0.0000    0.0000    0.0000    0.0000    0.0000   -0.0000   -0.0000    0.0000   -0.0000
       81 FE2    5g4-       0.0000    0.0000    0.0000   -0.0000    0.0000    0.0000   -0.0000   -0.0000    0.0000   -0.0000
       82 FE2    5g3-      -0.0000   -0.0000    0.0000    0.0000   -0.0000   -0.0000   -0.0000    0.0000   -0.0000    0.0000
       83 FE2    5g2-       0.0000    0.0000    0.0000   -0.0042   -0.0001    0.0000   -0.0000   -0.0000   -0.0000   -0.0000
       84 FE2    5g1-      -0.0000    0.0000   -0.0001    0.0000   -0.0000   -0.0000   -0.0025    0.0005    0.0000   -0.0000
       85 FE2    5g0        0.0001    0.0000   -0.0000   -0.0000    0.0000   -0.0015    0.0000   -0.0000   -0.0006    0.0000
       86 FE2    5g1+       0.0000    0.0001    0.0000   -0.0000   -0.0000    0.0000    0.0005    0.0025   -0.0000    0.0000
       87 FE2    5g2+      -0.0000    0.0000   -0.0000    0.0001   -0.0042   -0.0000    0.0000   -0.0000   -0.0000   -0.0000
       88 FE2    5g3+       0.0000   -0.0000   -0.0000    0.0000    0.0000    0.0000    0.0000    0.0000    0.0000   -0.0000
       89 FE2    5g4+       0.0000   -0.0000    0.0000   -0.0000   -0.0000    0.0000   -0.0000    0.0000    0.0000   -0.0000
 
          Orbital           21        22        23        24        25        26        27        28        29        30    
          Energy           -0.3097   -0.3097   -0.2814   -0.2000   -0.1252   -0.1252   -0.0846   -0.0694   -0.0694   -0.0589
          Occ. No.          0.0000    0.0000    0.0000    0.0000    0.0000    0.0000    0.0000    0.0000    0.0000    0.0000
 
        1 O1     1s         0.0000   -0.0000   -0.0350   -0.0136    0.0000    0.0000   -0.0311   -0.0000   -0.0000   -0.0273
        2 O1     2s         0.0000   -0.0000   -0.3184   -0.1164    0.0000    0.0000   -0.2595   -0.0000   -0.0000   -0.2188
        3 O1     3s         0.0000   -0.0000   -0.0478   -0.0373   -0.0000   -0.0000    0.0773    0.0000    0.0000    0.0055
        4 O1     4s         0.0000   -0.0000   -0.0059   -0.0078   -0.0000   -0.0000    0.0410    0.0000    0.0000    0.0144
        5 O1     2px        0.0153    0.0656   -0.0000    0.0000    0.0477   -0.0104    0.0000   -0.0000   -0.0000    0.0000
        6 O1     3px       -0.0136   -0.0586   -0.0000    0.0000    0.6793   -0.1483   -0.0000    0.0000   -0.0000   -0.0000
        7 O1     4px       -0.0050   -0.0214   -0.0000    0.0000    0.2615   -0.0571   -0.0000   -0.0000   -0.0000   -0.0000
        8 O1     2py       -0.0656    0.0153    0.0000   -0.0000    0.0104    0.0477   -0.0000    0.0000   -0.0000   -0.0000
        9 O1     3py        0.0586   -0.0136    0.0000   -0.0000    0.1483    0.6793    0.0000   -0.0000   -0.0000    0.0000
       10 O1     4py        0.0214   -0.0050    0.0000   -0.0000    0.0571    0.2615    0.0000   -0.0000   -0.0000    0.0000
       11 O1     2pz       -0.0000    0.0000    0.3044   -0.1177   -0.0000   -0.0000    0.1176    0.0000    0.0000    0.0233
       12 O1     3pz       -0.0000    0.0000    0.1404    0.0982   -0.0000   -0.0000    0.7473    0.0000    0.0000    0.2917
       13 O1     4pz       -0.0000    0.0000    0.0287    0.0445   -0.0000   -0.0000    0.3092    0.0000    0.0000    0.1075
       14 O1     3d2-       0.0000    0.0000    0.0000    0.0000   -0.0000    0.0000    0.0000    0.0302    0.0004   -0.0000
       15 O1     4d2-       0.0000    0.0000    0.0000    0.0000   -0.0000    0.0000    0.0000    0.0186    0.0003   -0.0000
       16 O1     3d1-      -0.0129    0.0030   -0.0000    0.0000   -0.0024   -0.0111   -0.0000    0.0000   -0.0000   -0.0000
       17 O1     4d1-      -0.0068    0.0016   -0.0000    0.0000   -0.0016   -0.0073   -0.0000    0.0000   -0.0000   -0.0000
       18 O1     3d0        0.0000   -0.0000   -0.0043   -0.0182    0.0000    0.0000    0.0016   -0.0000   -0.0000   -0.0367
       19 O1     4d0        0.0000   -0.0000   -0.0096   -0.0124    0.0000    0.0000   -0.0100   -0.0000   -0.0000   -0.0280
       20 O1     3d1+       0.0030    0.0129    0.0000   -0.0000   -0.0111    0.0024    0.0000   -0.0000   -0.0000    0.0000
       21 O1     4d1+       0.0016    0.0068    0.0000   -0.0000   -0.0073    0.0016    0.0000   -0.0000   -0.0000    0.0000
       22 O1     3d2+       0.0000   -0.0000    0.0000    0.0000    0.0000    0.0000    0.0000   -0.0004    0.0302   -0.0000
       23 O1     4d2+       0.0000   -0.0000    0.0000    0.0000    0.0000    0.0000    0.0000   -0.0003    0.0186   -0.0000
       24 O1     4f3-      -0.0000    0.0000    0.0000    0.0000   -0.0000   -0.0000    0.0000    0.0000   -0.0000    0.0000
       25 O1     4f2-      -0.0000   -0.0000    0.0000   -0.0000    0.0000   -0.0000   -0.0000   -0.0022   -0.0000   -0.0000
       26 O1     4f1-       0.0012   -0.0003   -0.0000    0.0000    0.0003    0.0015    0.0000   -0.0000   -0.0000    0.0000
       27 O1     4f0        0.0000   -0.0000   -0.0006    0.0026   -0.0000   -0.0000    0.0041    0.0000    0.0000    0.0050
       28 O1     4f1+      -0.0003   -0.0012    0.0000   -0.0000    0.0015   -0.0003   -0.0000    0.0000   -0.0000   -0.0000
       29 O1     4f2+      -0.0000    0.0000    0.0000   -0.0000   -0.0000   -0.0000   -0.0000    0.0000   -0.0022   -0.0000
       30 O1     4f3+       0.0000    0.0000   -0.0000   -0.0000   -0.0000    0.0000   -0.0000    0.0000    0.0000   -0.0000
       31 FE2    1s        -0.0000    0.0000    0.0007    0.0005   -0.0000   -0.0000    0.0034    0.0000    0.0000    0.0013
       32 FE2    2s        -0.0000    0.0000    0.0053    0.0032   -0.0000   -0.0000    0.0244    0.0000    0.0000    0.0093
       33 FE2    3s        -0.0000    0.0000    0.0273    0.0168   -0.0000   -0.0000    0.1146    0.0000    0.0000    0.0473
       34 FE2    4s        -0.0000    0.0000    0.1441    0.1534   -0.0000   -0.0000    0.3953    0.0000    0.0000    0.1988
       35 FE2    5s        -0.0000    0.0000    0.1325    0.8852    0.0000    0.0000   -0.3192    0.0000    0.0000    0.3364
       36 FE2    6s        -0.0000    0.0000    0.0254    0.4015    0.0000    0.0000    0.1095   -0.0000   -0.0000   -0.9202
       37 FE2    2px       -0.0000   -0.0001   -0.0000   -0.0000   -0.0010    0.0002    0.0000   -0.0000    0.0000    0.0000
       38 FE2    3px       -0.0002   -0.0010   -0.0000   -0.0000   -0.0208    0.0045    0.0000   -0.0000    0.0000    0.0000
       39 FE2    4px       -0.2138   -0.9193   -0.0000   -0.0000   -0.3748    0.0818    0.0000    0.0000    0.0000    0.0000
       40 FE2    5px       -0.0459   -0.1975   -0.0000    0.0000   -0.0574    0.0125    0.0000    0.0000   -0.0000    0.0000
       41 FE2    6px       -0.0287   -0.1232   -0.0000    0.0000   -0.0264    0.0058    0.0000    0.0000   -0.0000    0.0000
       42 FE2    2py        0.0001   -0.0000    0.0000    0.0000   -0.0002   -0.0010   -0.0000    0.0000    0.0000   -0.0000
       43 FE2    3py        0.0010   -0.0002    0.0000    0.0000   -0.0045   -0.0208   -0.0000    0.0000    0.0000   -0.0000
       44 FE2    4py        0.9193   -0.2138    0.0000    0.0000   -0.0818   -0.3748   -0.0000   -0.0000    0.0000   -0.0000
       45 FE2    5py        0.1975   -0.0459    0.0000   -0.0000   -0.0125   -0.0574   -0.0000   -0.0000   -0.0000   -0.0000
       46 FE2    6py        0.1232   -0.0287    0.0000   -0.0000   -0.0058   -0.0264   -0.0000   -0.0000   -0.0000   -0.0000
       47 FE2    2pz       -0.0000    0.0000    0.0010    0.0004   -0.0000   -0.0000    0.0030    0.0000    0.0000    0.0012
       48 FE2    3pz       -0.0000    0.0000    0.0192    0.0079   -0.0000   -0.0000    0.0544    0.0000    0.0000    0.0237
       49 FE2    4pz       -0.0000    0.0000    1.0531   -0.0908   -0.0000   -0.0000    0.1575    0.0000    0.0000    0.0676
       50 FE2    5pz       -0.0000    0.0000    0.2731    0.0214   -0.0000   -0.0000    0.1325    0.0000    0.0000    0.1186
       51 FE2    6pz       -0.0000    0.0000    0.1832    0.0261   -0.0000   -0.0000    0.1094    0.0000    0.0000    0.1043
       52 FE2    3d2-      -0.0000   -0.0000    0.0000    0.0000    0.0000   -0.0000    0.0000    0.0596    0.0009   -0.0000
       53 FE2    4d2-       0.0000    0.0000    0.0000    0.0000    0.0000    0.0000    0.0000    0.8158    0.0117   -0.0000
       54 FE2    5d2-       0.0000    0.0000    0.0000    0.0000   -0.0000    0.0000    0.0000    0.5686    0.0081   -0.0000
       55 FE2    3d1-      -0.0062    0.0014    0.0000   -0.0000   -0.0042   -0.0193    0.0000   -0.0000    0.0000   -0.0000
       56 FE2    4d1-       0.0449   -0.0104    0.0000   -0.0000    0.0789    0.3614    0.0000   -0.0000    0.0000    0.0000
       57 FE2    5d1-       0.0317   -0.0074    0.0000   -0.0000    0.0558    0.2558    0.0000    0.0000    0.0000    0.0000
       58 FE2    3d0       -0.0000    0.0000    0.0242    0.0105   -0.0000   -0.0000    0.0651    0.0000    0.0000    0.0314
       59 FE2    4d0       -0.0000    0.0000    0.0173    0.0546   -0.0000   -0.0000    0.5045    0.0000    0.0000    0.1470
       60 FE2    5d0       -0.0000    0.0000    0.0146    0.0356   -0.0000   -0.0000    0.3519    0.0000    0.0000    0.0991
       61 FE2    3d1+       0.0014    0.0062   -0.0000    0.0000   -0.0193    0.0042   -0.0000    0.0000    0.0000    0.0000
       62 FE2    4d1+      -0.0104   -0.0449   -0.0000    0.0000    0.3614   -0.0789   -0.0000    0.0000    0.0000   -0.0000
       63 FE2    5d1+      -0.0074   -0.0317   -0.0000    0.0000    0.2558   -0.0558   -0.0000   -0.0000    0.0000   -0.0000
       64 FE2    3d2+      -0.0000    0.0000   -0.0000    0.0000    0.0000    0.0000    0.0000   -0.0009    0.0596   -0.0000
       65 FE2    4d2+       0.0000   -0.0000    0.0000    0.0000    0.0000    0.0000    0.0000   -0.0117    0.8158   -0.0000
       66 FE2    5d2+       0.0000   -0.0000    0.0000    0.0000    0.0000    0.0000    0.0000   -0.0081    0.5686   -0.0000
       67 FE2    4f3-      -0.0000    0.0000    0.0000   -0.0000    0.0000    0.0000   -0.0000    0.0000   -0.0000   -0.0000
       68 FE2    5f3-      -0.0000    0.0000    0.0000   -0.0000    0.0000    0.0000   -0.0000    0.0000   -0.0000   -0.0000
       69 FE2    4f2-       0.0000    0.0000   -0.0000    0.0000   -0.0000    0.0000    0.0000    0.0028    0.0000   -0.0000
       70 FE2    5f2-       0.0000    0.0000   -0.0000    0.0000   -0.0000    0.0000    0.0000    0.0031    0.0000   -0.0000
       71 FE2    4f1-      -0.0005    0.0001   -0.0000    0.0000    0.0009    0.0040    0.0000   -0.0000   -0.0000    0.0000
       72 FE2    5f1-      -0.0012    0.0003   -0.0000    0.0000    0.0007    0.0033    0.0000   -0.0000   -0.0000    0.0000
       73 FE2    4f0        0.0000   -0.0000   -0.0027    0.0013   -0.0000   -0.0000    0.0078   -0.0000   -0.0000   -0.0001
       74 FE2    5f0        0.0000   -0.0000   -0.0022    0.0017   -0.0000   -0.0000    0.0084   -0.0000   -0.0000    0.0007
       75 FE2    4f1+       0.0001    0.0005    0.0000   -0.0000    0.0040   -0.0009   -0.0000    0.0000   -0.0000   -0.0000
       76 FE2    5f1+       0.0003    0.0012    0.0000   -0.0000    0.0033   -0.0007   -0.0000    0.0000   -0.0000   -0.0000
       77 FE2    4f2+       0.0000   -0.0000   -0.0000    0.0000   -0.0000   -0.0000    0.0000   -0.0000    0.0028   -0.0000
       78 FE2    5f2+       0.0000   -0.0000   -0.0000    0.0000   -0.0000   -0.0000    0.0000   -0.0000    0.0031   -0.0000
       79 FE2    4f3+       0.0000    0.0000   -0.0000    0.0000    0.0000   -0.0000    0.0000    0.0000    0.0000    0.0000
       80 FE2    5f3+       0.0000    0.0000   -0.0000    0.0000    0.0000   -0.0000    0.0000    0.0000    0.0000    0.0000
       81 FE2    5g4-      -0.0000   -0.0000    0.0000    0.0000   -0.0000    0.0000   -0.0000    0.0000    0.0000    0.0000
       82 FE2    5g3-       0.0000   -0.0000    0.0000   -0.0000    0.0000    0.0000    0.0000    0.0000   -0.0000   -0.0000
       83 FE2    5g2-       0.0000    0.0000    0.0000    0.0000   -0.0000    0.0000    0.0000    0.0009    0.0000   -0.0000
       84 FE2    5g1-       0.0002   -0.0000   -0.0000    0.0000    0.0000    0.0002   -0.0000   -0.0000    0.0000    0.0000
       85 FE2    5g0        0.0000   -0.0000   -0.0001   -0.0001   -0.0000   -0.0000    0.0007   -0.0000   -0.0000   -0.0002
       86 FE2    5g1+      -0.0000   -0.0002    0.0000   -0.0000    0.0002   -0.0000    0.0000    0.0000    0.0000   -0.0000
       87 FE2    5g2+       0.0000   -0.0000    0.0000    0.0000   -0.0000   -0.0000    0.0000   -0.0000    0.0009   -0.0000
       88 FE2    5g3+      -0.0000   -0.0000   -0.0000    0.0000    0.0000   -0.0000   -0.0000    0.0000    0.0000    0.0000
       89 FE2    5g4+      -0.0000    0.0000    0.0000    0.0000    0.0000    0.0000   -0.0000   -0.0000    0.0000    0.0000
--
 
 
  Input file to MOLDEN was generated!
 
 
++    Static properties:
      ------------------
 
 
      LoProp Charges per center
 

                   O1       FE2   
      Nuclear      8.0000  26.0000
      Electronic  -7.3177 -24.6823
 
      Total        0.6823   1.3177
--
 
 
      All orbitals with orbital energies smaller than  E(LUMO)+0.5 are printed
 
++    Molecular orbitals:
      -------------------
 
      Title: UHF orbitals (beta)

      Molecular orbitals for symmetry species 1: a  
 
          Orbital            1         2         3         4         5         6         7         8         9        10    
          Energy         -264.1130  -32.8041  -27.8780  -27.8775  -27.8775  -21.4111   -4.5209   -3.0406   -2.9972   -2.9972
          Occ. No.          1.0000    1.0000    1.0000    1.0000    1.0000    1.0000    1.0000    1.0000    1.0000    1.0000
 
        1 O1     1s         0.0000    0.0000   -0.0000    0.0000   -0.0000    1.0000   -0.0000   -0.0000   -0.0000    0.0000
        2 O1     2s         0.0000    0.0001   -0.0001    0.0000   -0.0000   -0.0019   -0.0001    0.0029    0.0000   -0.0000
        3 O1     3s        -0.0000    0.0001   -0.0001    0.0000   -0.0000   -0.0004   -0.0005    0.0004   -0.0000    0.0000
        4 O1     4s        -0.0000    0.0000   -0.0001    0.0000   -0.0000   -0.0009   -0.0002    0.0001   -0.0000    0.0000
        5 O1     2px       -0.0000    0.0000   -0.0000   -0.0000   -0.0000   -0.0000   -0.0000    0.0000    0.0023    0.0005
        6 O1     3px       -0.0000    0.0000    0.0000    0.0000    0.0000   -0.0000   -0.0000   -0.0000    0.0004    0.0001
        7 O1     4px       -0.0000    0.0000    0.0000    0.0000    0.0000   -0.0000   -0.0000   -0.0000    0.0002    0.0001
        8 O1     2py        0.0000   -0.0000    0.0000    0.0000   -0.0000    0.0000    0.0000   -0.0000    0.0005   -0.0023
        9 O1     3py        0.0000   -0.0000   -0.0000   -0.0000    0.0000    0.0000    0.0000    0.0000    0.0001   -0.0004
       10 O1     4py        0.0000   -0.0000   -0.0000   -0.0000    0.0000    0.0000    0.0000    0.0000    0.0001   -0.0002
       11 O1     2pz       -0.0000    0.0000    0.0000   -0.0000    0.0000    0.0002    0.0007   -0.0010    0.0000   -0.0000
       12 O1     3pz        0.0000    0.0000   -0.0000    0.0000   -0.0000    0.0005    0.0011    0.0015    0.0000   -0.0000
       13 O1     4pz       -0.0000   -0.0000   -0.0001    0.0000   -0.0000    0.0001   -0.0001    0.0007    0.0000   -0.0000
       14 O1     3d2-      -0.0000   -0.0000    0.0000    0.0000    0.0000    0.0000    0.0000    0.0000   -0.0000   -0.0000
       15 O1     4d2-      -0.0000   -0.0000   -0.0000    0.0000    0.0000   -0.0000    0.0000    0.0000   -0.0000   -0.0000
       16 O1     3d1-      -0.0000    0.0000   -0.0000   -0.0000    0.0000    0.0000    0.0000    0.0000   -0.0001    0.0004
       17 O1     4d1-      -0.0000    0.0000   -0.0000   -0.0000    0.0000   -0.0000    0.0000   -0.0000   -0.0000    0.0001
       18 O1     3d0       -0.0000   -0.0000   -0.0000   -0.0000    0.0000    0.0012   -0.0005   -0.0002   -0.0000    0.0000
       19 O1     4d0       -0.0000   -0.0000    0.0000   -0.0000    0.0000   -0.0013   -0.0006   -0.0004   -0.0000    0.0000
       20 O1     3d1+       0.0000   -0.0000    0.0000    0.0000    0.0000   -0.0000   -0.0000   -0.0000   -0.0004   -0.0001
       21 O1     4d1+       0.0000   -0.0000    0.0000    0.0000    0.0000    0.0000   -0.0000    0.0000   -0.0001   -0.0000
       22 O1     3d2+      -0.0000    0.0000   -0.0000   -0.0000    0.0000   -0.0000   -0.0000   -0.0000   -0.0000    0.0000
       23 O1     4d2+       0.0000    0.0000    0.0000   -0.0000    0.0000    0.0000   -0.0000   -0.0000   -0.0000    0.0000
       24 O1     4f3-      -0.0000    0.0000   -0.0000   -0.0000    0.0000   -0.0000   -0.0000   -0.0000   -0.0000    0.0000
       25 O1     4f2-      -0.0000   -0.0000    0.0000   -0.0000   -0.0000   -0.0000   -0.0000   -0.0000    0.0000    0.0000
       26 O1     4f1-       0.0000    0.0000    0.0000    0.0000   -0.0000    0.0000   -0.0000    0.0000    0.0000   -0.0001
       27 O1     4f0        0.0000    0.0000    0.0000   -0.0000    0.0000    0.0000    0.0001    0.0001   -0.0000    0.0000
       28 O1     4f1+      -0.0000   -0.0000   -0.0000   -0.0000   -0.0000   -0.0000    0.0000   -0.0000    0.0001    0.0000
       29 O1     4f2+       0.0000    0.0000   -0.0000    0.0000   -0.0000    0.0000    0.0000    0.0000    0.0000   -0.0000
       30 O1     4f3+       0.0000   -0.0000    0.0000    0.0000    0.0000    0.0000    0.0000    0.0000   -0.0000   -0.0000
       31 FE2    1s         1.0000    0.0000   -0.0000    0.0000   -0.0000    0.0000    0.0000    0.0000    0.0000   -0.0000
       32 FE2    2s        -0.0000    1.0000   -0.0010    0.0000   -0.0000    0.0000    0.0005    0.0000    0.0000   -0.0000
       33 FE2    3s         0.0000   -0.0004   -0.0000    0.0000   -0.0000    0.0001    1.0001   -0.0018    0.0000   -0.0000
       34 FE2    4s         0.0000    0.0002    0.0001   -0.0000    0.0000    0.0006    0.0068    0.0039    0.0000   -0.0000
       35 FE2    5s         0.0000   -0.0002    0.0000   -0.0000    0.0000   -0.0000   -0.0043   -0.0019   -0.0000    0.0000
       36 FE2    6s        -0.0000    0.0001    0.0000   -0.0000    0.0000   -0.0001    0.0020    0.0002   -0.0000    0.0000
       37 FE2    2px       -0.0000   -0.0000   -0.0000   -0.2230   -0.9748    0.0000   -0.0000    0.0000    0.0022    0.0005
       38 FE2    3px       -0.0000    0.0000    0.0000    0.0005    0.0022    0.0000    0.0000    0.0000    0.9761    0.2165
       39 FE2    4px        0.0000   -0.0000   -0.0000   -0.0001   -0.0004    0.0000   -0.0000   -0.0000    0.0046    0.0010
       40 FE2    5px       -0.0000    0.0000    0.0000    0.0002    0.0009    0.0000    0.0000    0.0000   -0.0067   -0.0015
       41 FE2    6px        0.0000   -0.0000   -0.0000   -0.0001   -0.0005    0.0000    0.0000    0.0000   -0.0010   -0.0002
       42 FE2    2py        0.0000    0.0000    0.0002    0.9748   -0.2230   -0.0000    0.0000   -0.0000    0.0005   -0.0022
       43 FE2    3py        0.0000   -0.0000   -0.0000   -0.0022    0.0005   -0.0000   -0.0000   -0.0000    0.2165   -0.9761
       44 FE2    4py       -0.0000    0.0000    0.0000    0.0004   -0.0001   -0.0000    0.0000    0.0000    0.0010   -0.0046
       45 FE2    5py        0.0000   -0.0000   -0.0000   -0.0009    0.0002   -0.0000   -0.0000   -0.0000   -0.0015    0.0067
       46 FE2    6py       -0.0000    0.0000    0.0000    0.0005   -0.0001   -0.0000   -0.0000   -0.0000   -0.0002    0.0010
       47 FE2    2pz        0.0000    0.0009    1.0000   -0.0002    0.0000    0.0000    0.0000    0.0015    0.0000   -0.0000
       48 FE2    3pz       -0.0000   -0.0000   -0.0015    0.0000   -0.0000    0.0001    0.0021    0.9999    0.0000   -0.0000
       49 FE2    4pz        0.0000   -0.0000    0.0004   -0.0000    0.0000    0.0006    0.0015    0.0085    0.0000   -0.0000
       50 FE2    5pz       -0.0000   -0.0000   -0.0007    0.0000   -0.0000    0.0001   -0.0003   -0.0083   -0.0000    0.0000
       51 FE2    6pz        0.0000   -0.0001    0.0005   -0.0000    0.0000   -0.0000   -0.0004   -0.0022   -0.0000    0.0000
       52 FE2    3d2-      -0.0000   -0.0000   -0.0000   -0.0000   -0.0000    0.0000   -0.0000   -0.0000    0.0000    0.0000
       53 FE2    4d2-      -0.0000   -0.0000    0.0000    0.0000    0.0000    0.0000   -0.0000    0.0000   -0.0000   -0.0000
       54 FE2    5d2-       0.0000    0.0000    0.0000   -0.0000   -0.0000    0.0000    0.0000    0.0000    0.0000    0.0000
       55 FE2    3d1-       0.0000    0.0000    0.0000    0.0001   -0.0000   -0.0000   -0.0000   -0.0000   -0.0002    0.0009
       56 FE2    4d1-      -0.0000   -0.0000   -0.0000   -0.0000    0.0000   -0.0000    0.0000    0.0000    0.0004   -0.0017
       57 FE2    5d1-      -0.0000    0.0000    0.0000    0.0001   -0.0000   -0.0000   -0.0000   -0.0000   -0.0001    0.0006
       58 FE2    3d0        0.0000    0.0001    0.0001   -0.0000    0.0000    0.0001    0.0020    0.0036    0.0000   -0.0000
       59 FE2    4d0        0.0000    0.0000   -0.0000    0.0000   -0.0000    0.0003    0.0007   -0.0004    0.0000   -0.0000
       60 FE2    5d0       -0.0000   -0.0001    0.0002   -0.0000    0.0000    0.0001   -0.0000   -0.0002   -0.0000    0.0000
       61 FE2    3d1+      -0.0000   -0.0000   -0.0000   -0.0000   -0.0001    0.0000    0.0000    0.0000   -0.0009   -0.0002
       62 FE2    4d1+       0.0000    0.0000    0.0000    0.0000    0.0000    0.0000   -0.0000   -0.0000    0.0017    0.0004
       63 FE2    5d1+       0.0000   -0.0000   -0.0000   -0.0000   -0.0001    0.0000    0.0000    0.0000   -0.0006   -0.0001
       64 FE2    3d2+       0.0000    0.0000    0.0000    0.0000   -0.0000    0.0000    0.0000    0.0000    0.0000   -0.0000
       65 FE2    4d2+       0.0000    0.0000   -0.0000   -0.0000    0.0000   -0.0000    0.0000   -0.0000   -0.0000    0.0000
       66 FE2    5d2+      -0.0000   -0.0000    0.0000   -0.0000    0.0000   -0.0000   -0.0000   -0.0000    0.0000   -0.0000
       67 FE2    4f3-      -0.0000    0.0000   -0.0000   -0.0000   -0.0000   -0.0000    0.0000   -0.0000   -0.0000    0.0000
       68 FE2    5f3-       0.0000   -0.0000    0.0000    0.0000   -0.0000   -0.0000   -0.0000   -0.0000    0.0000   -0.0000
       69 FE2    4f2-       0.0000   -0.0000   -0.0000    0.0000    0.0000    0.0000   -0.0000   -0.0000   -0.0000   -0.0000
       70 FE2    5f2-      -0.0000    0.0000    0.0000   -0.0000   -0.0000    0.0000    0.0000   -0.0000   -0.0000   -0.0000
       71 FE2    4f1-       0.0000   -0.0000    0.0000    0.0006   -0.0001   -0.0000   -0.0000   -0.0000    0.0024   -0.0110
       72 FE2    5f1-      -0.0000    0.0000   -0.0000   -0.0003    0.0001   -0.0000    0.0000    0.0000    0.0003   -0.0012
       73 FE2    4f0       -0.0000    0.0000   -0.0008    0.0000   -0.0000    0.0000    0.0004   -0.0165   -0.0000    0.0000
       74 FE2    5f0        0.0000   -0.0000    0.0006   -0.0000    0.0000    0.0001   -0.0001   -0.0003   -0.0000    0.0000
       75 FE2    4f1+      -0.0000    0.0000   -0.0000   -0.0001   -0.0006    0.0000    0.0000    0.0000    0.0110    0.0024
       76 FE2    5f1+       0.0000   -0.0000    0.0000    0.0001    0.0003    0.0000   -0.0000   -0.0000    0.0012    0.0003
       77 FE2    4f2+      -0.0000    0.0000    0.0000   -0.0000    0.0000   -0.0000    0.0000    0.0000   -0.0000    0.0000
       78 FE2    5f2+       0.0000   -0.0000   -0.0000    0.0000   -0.0000   -0.0000   -0.0000    0.0000   -0.0000    0.0000
       79 FE2    4f3+       0.0000   -0.0000    0.0000    0.0000    0.0000    0.0000   -0.0000    0.0000   -0.0000   -0.0000
       80 FE2    5f3+      -0.0000    0.0000   -0.0000   -0.0000   -0.0000    0.0000    0.0000    0.0000    0.0000    0.0000
       81 FE2    5g4-      -0.0000    0.0000   -0.0000   -0.0000   -0.0000   -0.0000    0.0000   -0.0000    0.0000    0.0000
       82 FE2    5g3-      -0.0000   -0.0000    0.0000    0.0000   -0.0000   -0.0000   -0.0000   -0.0000    0.0000   -0.0000
       83 FE2    5g2-      -0.0000   -0.0000    0.0000    0.0000    0.0000    0.0000   -0.0000    0.0000   -0.0000   -0.0000
       84 FE2    5g1-      -0.0000   -0.0000    0.0000    0.0000   -0.0000   -0.0000   -0.0000   -0.0000    0.0000   -0.0002
       85 FE2    5g0       -0.0000   -0.0003    0.0000   -0.0000    0.0000    0.0000   -0.0039   -0.0000   -0.0000    0.0000
       86 FE2    5g1+       0.0000    0.0000   -0.0000   -0.0000   -0.0000    0.0000    0.0000    0.0000    0.0002    0.0000
       87 FE2    5g2+       0.0000    0.0000   -0.0000   -0.0000    0.0000   -0.0000    0.0000   -0.0000   -0.0000    0.0000
       88 FE2    5g3+       0.0000    0.0000   -0.0000   -0.0000   -0.0000    0.0000    0.0000    0.0000    0.0000    0.0000
       89 FE2    5g4+      -0.0000    0.0000   -0.0000   -0.0000    0.0000   -0.0000    0.0000    0.0000   -0.0000    0.0000
 
          Orbital           11        12        13        14        15        16        17        18        19        20    
          Energy           -1.8301   -1.3268   -0.8063   -0.8063   -0.5675   -0.5675   -0.4279   -0.2949   -0.2949   -0.2858
          Occ. No.          1.0000    1.0000    1.0000    1.0000    0.0000    0.0000    0.0000    0.0000    0.0000    0.0000
 
        1 O1     1s         0.0016    0.0006   -0.0000    0.0000   -0.0000   -0.0000   -0.0166   -0.0000    0.0000   -0.0323
        2 O1     2s         0.9979    0.0284   -0.0000    0.0000    0.0000    0.0000   -0.1821   -0.0000    0.0000   -0.3105
        3 O1     3s        -0.0335   -0.0187   -0.0000    0.0000    0.0000    0.0000   -0.0229   -0.0000    0.0000   -0.0541
        4 O1     4s        -0.0066   -0.0034   -0.0000    0.0000    0.0000    0.0000   -0.0030   -0.0000    0.0000   -0.0074
        5 O1     2px        0.0000   -0.0000    0.3618    0.0788   -0.1901    0.8920    0.0000    0.0398    0.1883   -0.0000
        6 O1     3px       -0.0000    0.0000    0.0269    0.0059   -0.0253    0.1185    0.0000    0.0006    0.0028    0.0000
        7 O1     4px       -0.0000    0.0000   -0.0116   -0.0025    0.0007   -0.0032    0.0000   -0.0028   -0.0133    0.0000
        8 O1     2py       -0.0000    0.0000    0.0788   -0.3618    0.8920    0.1901   -0.0000   -0.1883    0.0398    0.0000
        9 O1     3py        0.0000   -0.0000    0.0059   -0.0269    0.1185    0.0253   -0.0000   -0.0028    0.0006   -0.0000
       10 O1     4py        0.0000   -0.0000   -0.0025    0.0116   -0.0032   -0.0007   -0.0000    0.0133   -0.0028   -0.0000
       11 O1     2pz       -0.0232    0.9877   -0.0000    0.0000   -0.0000   -0.0000    0.1343    0.0000   -0.0000    0.1596
       12 O1     3pz       -0.0116   -0.1056   -0.0000    0.0000   -0.0000   -0.0000   -0.0155    0.0000   -0.0000    0.0468
       13 O1     4pz        0.0029   -0.0132    0.0000   -0.0000    0.0000    0.0000   -0.0055    0.0000   -0.0000    0.0100
       14 O1     3d2-       0.0000   -0.0000   -0.0000   -0.0000    0.0000   -0.0000   -0.0000    0.0000    0.0000   -0.0000
       15 O1     4d2-       0.0000   -0.0000   -0.0000   -0.0000    0.0000   -0.0000   -0.0000    0.0000    0.0000   -0.0000
       16 O1     3d1-       0.0000   -0.0000   -0.0038    0.0173   -0.0115   -0.0025    0.0000   -0.0128    0.0027    0.0000
       17 O1     4d1-      -0.0000   -0.0000   -0.0021    0.0097   -0.0083   -0.0018    0.0000   -0.0064    0.0014    0.0000
       18 O1     3d0        0.0553   -0.0118    0.0000   -0.0000    0.0000    0.0000    0.0040   -0.0000    0.0000   -0.0091
       19 O1     4d0        0.0017   -0.0082    0.0000   -0.0000    0.0000    0.0000    0.0036   -0.0000    0.0000   -0.0051
       20 O1     3d1+      -0.0000    0.0000   -0.0173   -0.0038    0.0025   -0.0115   -0.0000    0.0027    0.0128   -0.0000
       21 O1     4d1+       0.0000    0.0000   -0.0097   -0.0021    0.0018   -0.0083   -0.0000    0.0014    0.0064   -0.0000
       22 O1     3d2+      -0.0000    0.0000   -0.0000    0.0000    0.0000    0.0000   -0.0000   -0.0000    0.0000   -0.0000
       23 O1     4d2+      -0.0000    0.0000   -0.0000    0.0000    0.0000    0.0000   -0.0000   -0.0000    0.0000   -0.0000
       24 O1     4f3-      -0.0000    0.0000   -0.0000    0.0000   -0.0000   -0.0000   -0.0000    0.0000    0.0000   -0.0000
       25 O1     4f2-      -0.0000    0.0000    0.0000    0.0000   -0.0000    0.0000    0.0000    0.0000    0.0000    0.0000
       26 O1     4f1-      -0.0000    0.0000    0.0015   -0.0068    0.0111    0.0024   -0.0000   -0.0014    0.0003    0.0000
       27 O1     4f0       -0.0013    0.0158   -0.0000    0.0000   -0.0000   -0.0000    0.0014    0.0000   -0.0000    0.0029
       28 O1     4f1+       0.0000   -0.0000    0.0068    0.0015   -0.0024    0.0111    0.0000    0.0003    0.0014   -0.0000
       29 O1     4f2+       0.0000   -0.0000   -0.0000    0.0000   -0.0000   -0.0000    0.0000    0.0000   -0.0000    0.0000
       30 O1     4f3+       0.0000   -0.0000   -0.0000   -0.0000    0.0000   -0.0000    0.0000    0.0000   -0.0000    0.0000
       31 FE2    1s        -0.0001    0.0001   -0.0000    0.0000   -0.0000   -0.0000    0.0000    0.0000   -0.0000    0.0003
       32 FE2    2s        -0.0007    0.0010   -0.0000    0.0000   -0.0000   -0.0000   -0.0000    0.0000   -0.0000    0.0023
       33 FE2    3s        -0.0051    0.0082    0.0000   -0.0000   -0.0000   -0.0000   -0.0047    0.0000   -0.0000    0.0125
       34 FE2    4s         0.0001   -0.0190    0.0000   -0.0000   -0.0000   -0.0000    1.0177    0.0000   -0.0000   -0.0080
       35 FE2    5s        -0.0019    0.0054   -0.0000    0.0000    0.0000    0.0000   -0.0295    0.0000   -0.0000    0.0757
       36 FE2    6s         0.0010    0.0011    0.0000   -0.0000   -0.0000   -0.0000   -0.0370    0.0000   -0.0000    0.0180
       37 FE2    2px        0.0000    0.0000   -0.0002   -0.0000    0.0001   -0.0003   -0.0000    0.0000    0.0002   -0.0000
       38 FE2    3px        0.0000   -0.0000   -0.0029   -0.0006    0.0019   -0.0090    0.0000    0.0005    0.0024    0.0000
       39 FE2    4px       -0.0000   -0.0000    0.0710    0.0155   -0.0030    0.0141    0.0000   -0.1969   -0.9315    0.0000
       40 FE2    5px        0.0000   -0.0000   -0.0008   -0.0002    0.0002   -0.0008    0.0000   -0.0508   -0.2401    0.0000
       41 FE2    6px        0.0000   -0.0000   -0.0048   -0.0011    0.0007   -0.0031    0.0000   -0.0327   -0.1549    0.0000
       42 FE2    2py       -0.0000   -0.0000   -0.0000    0.0002   -0.0003   -0.0001    0.0000   -0.0002    0.0000    0.0000
       43 FE2    3py       -0.0000    0.0000   -0.0006    0.0029   -0.0090   -0.0019   -0.0000   -0.0024    0.0005   -0.0000
       44 FE2    4py        0.0000    0.0000    0.0155   -0.0710    0.0141    0.0030   -0.0000    0.9315   -0.1969   -0.0000
       45 FE2    5py       -0.0000    0.0000   -0.0002    0.0008   -0.0008   -0.0002   -0.0000    0.2401   -0.0508   -0.0000
       46 FE2    6py       -0.0000    0.0000   -0.0011    0.0048   -0.0031   -0.0007   -0.0000    0.1549   -0.0327   -0.0000
       47 FE2    2pz       -0.0002    0.0004   -0.0000    0.0000   -0.0000   -0.0000    0.0000    0.0000   -0.0000    0.0002
       48 FE2    3pz       -0.0099    0.0146   -0.0000    0.0000   -0.0000   -0.0000   -0.0010   -0.0000    0.0000    0.0046
       49 FE2    4pz        0.0013   -0.0139    0.0000   -0.0000    0.0000    0.0000    0.1279    0.0000   -0.0000    1.0396
       50 FE2    5pz       -0.0017    0.0029    0.0000   -0.0000    0.0000    0.0000    0.0314    0.0000   -0.0000    0.2781
       51 FE2    6pz       -0.0016    0.0039   -0.0000    0.0000    0.0000    0.0000    0.0199    0.0000   -0.0000    0.1834
       52 FE2    3d2-       0.0000   -0.0000   -0.0001   -0.0000   -0.0000    0.0000   -0.0000   -0.0000   -0.0000   -0.0000
       53 FE2    4d2-       0.0000   -0.0000   -0.0000   -0.0000   -0.0000    0.0000   -0.0000   -0.0000   -0.0000   -0.0000
       54 FE2    5d2-       0.0000   -0.0000    0.0000    0.0000   -0.0000    0.0000   -0.0000   -0.0000   -0.0000   -0.0000
       55 FE2    3d1-       0.0000   -0.0000    0.1914   -0.8784   -0.4189   -0.0893   -0.0000   -0.0463    0.0098    0.0000
       56 FE2    4d1-       0.0000    0.0000    0.0206   -0.0947   -0.0312   -0.0067   -0.0000    0.0295   -0.0062   -0.0000
       57 FE2    5d1-       0.0000    0.0000    0.0023   -0.0106    0.0016    0.0003   -0.0000    0.0247   -0.0052   -0.0000
       58 FE2    3d0        0.0031   -0.0119   -0.0000    0.0000    0.0000    0.0000    0.0006    0.0000   -0.0000   -0.0100
       59 FE2    4d0        0.0007   -0.0054    0.0000   -0.0000    0.0000    0.0000    0.0027    0.0000   -0.0000    0.0179
       60 FE2    5d0       -0.0007    0.0000    0.0000   -0.0000    0.0000    0.0000    0.0040    0.0000   -0.0000    0.0158
       61 FE2    3d1+      -0.0000    0.0000    0.8784    0.1914    0.0893   -0.4189    0.0000    0.0098    0.0463   -0.0000
       62 FE2    4d1+      -0.0000   -0.0000    0.0947    0.0206    0.0067   -0.0312    0.0000   -0.0062   -0.0295    0.0000
       63 FE2    5d1+      -0.0000   -0.0000    0.0106    0.0023   -0.0003    0.0016    0.0000   -0.0052   -0.0247    0.0000
       64 FE2    3d2+       0.0000   -0.0000   -0.0000    0.0001    0.0000    0.0000   -0.0000    0.0000   -0.0000   -0.0000
       65 FE2    4d2+      -0.0000   -0.0000   -0.0000    0.0000    0.0000    0.0000   -0.0000    0.0000   -0.0000   -0.0000
       66 FE2    5d2+      -0.0000    0.0000    0.0000   -0.0000    0.0000    0.0000   -0.0000    0.0000   -0.0000   -0.0000
       67 FE2    4f3-      -0.0000    0.0000   -0.0000    0.0000   -0.0000   -0.0000   -0.0000   -0.0000    0.0000   -0.0000
       68 FE2    5f3-      -0.0000    0.0000   -0.0000    0.0000   -0.0000   -0.0000   -0.0000   -0.0000    0.0000   -0.0000
       69 FE2    4f2-       0.0000   -0.0000   -0.0000   -0.0000    0.0000   -0.0000   -0.0000    0.0000    0.0000   -0.0000
       70 FE2    5f2-       0.0000   -0.0000   -0.0000   -0.0000    0.0000   -0.0000   -0.0000    0.0000    0.0000   -0.0000
       71 FE2    4f1-       0.0000   -0.0000    0.0018   -0.0082    0.0040    0.0009   -0.0000    0.0026   -0.0005    0.0000
       72 FE2    5f1-       0.0000    0.0000    0.0014   -0.0066    0.0035    0.0007   -0.0000    0.0021   -0.0004    0.0000
       73 FE2    4f0        0.0004   -0.0017   -0.0000    0.0000    0.0000    0.0000   -0.0028   -0.0000    0.0000   -0.0058
       74 FE2    5f0        0.0003   -0.0014   -0.0000    0.0000    0.0000    0.0000   -0.0021   -0.0000    0.0000   -0.0054
       75 FE2    4f1+      -0.0000    0.0000    0.0082    0.0018   -0.0009    0.0040    0.0000   -0.0005   -0.0026   -0.0000
       76 FE2    5f1+      -0.0000   -0.0000    0.0066    0.0014   -0.0007    0.0035    0.0000   -0.0004   -0.0021   -0.0000
       77 FE2    4f2+      -0.0000   -0.0000   -0.0000    0.0000   -0.0000   -0.0000   -0.0000   -0.0000    0.0000    0.0000
       78 FE2    5f2+      -0.0000   -0.0000   -0.0000    0.0000   -0.0000   -0.0000   -0.0000   -0.0000    0.0000   -0.0000
       79 FE2    4f3+       0.0000   -0.0000   -0.0000   -0.0000    0.0000   -0.0000    0.0000    0.0000    0.0000    0.0000
       80 FE2    5f3+       0.0000   -0.0000   -0.0000   -0.0000    0.0000   -0.0000    0.0000    0.0000    0.0000    0.0000
       81 FE2    5g4-      -0.0000   -0.0000   -0.0000   -0.0000   -0.0000    0.0000   -0.0000   -0.0000   -0.0000    0.0000
       82 FE2    5g3-      -0.0000    0.0000    0.0000   -0.0000   -0.0000   -0.0000   -0.0000   -0.0000    0.0000   -0.0000
       83 FE2    5g2-       0.0000   -0.0000   -0.0000   -0.0000   -0.0000    0.0000    0.0000   -0.0000   -0.0000   -0.0000
       84 FE2    5g1-       0.0000    0.0000   -0.0002    0.0011    0.0011    0.0002    0.0000    0.0000   -0.0000    0.0000
       85 FE2    5g0        0.0000   -0.0001    0.0000   -0.0000   -0.0000   -0.0000   -0.0008   -0.0000    0.0000   -0.0001
       86 FE2    5g1+      -0.0000   -0.0000   -0.0011   -0.0002   -0.0002    0.0011   -0.0000   -0.0000   -0.0000   -0.0000
       87 FE2    5g2+      -0.0000   -0.0000   -0.0000    0.0000    0.0000    0.0000    0.0000    0.0000   -0.0000   -0.0000
       88 FE2    5g3+       0.0000   -0.0000    0.0000    0.0000    0.0000   -0.0000    0.0000    0.0000    0.0000    0.0000
       89 FE2    5g4+      -0.0000   -0.0000    0.0000   -0.0000   -0.0000   -0.0000   -0.0000   -0.0000    0.0000    0.0000
 
          Orbital           21        22        23        24        25        26        27    
          Energy           -0.2349   -0.2349   -0.2017   -0.1976   -0.0890   -0.0823   -0.0823
          Occ. No.          0.0000    0.0000    0.0000    0.0000    0.0000    0.0000    0.0000
 
        1 O1     1s        -0.0000    0.0000    0.0000   -0.0310   -0.0251    0.0000   -0.0000
        2 O1     2s        -0.0000    0.0000   -0.0135   -0.2780   -0.2155    0.0000   -0.0000
        3 O1     3s        -0.0000    0.0000    0.0294   -0.0328    0.0391   -0.0000    0.0000
        4 O1     4s         0.0000    0.0000    0.0093    0.0006    0.0269   -0.0000    0.0000
        5 O1     2px       -0.0000    0.0000    0.0000    0.0000    0.0000    0.0291    0.1557
        6 O1     3px        0.0000   -0.0000    0.0000    0.0000   -0.0000   -0.1151   -0.6154
        7 O1     4px        0.0000   -0.0000    0.0000    0.0000   -0.0000   -0.0534   -0.2852
        8 O1     2py       -0.0000   -0.0000   -0.0000   -0.0000   -0.0000   -0.1557    0.0291
        9 O1     3py        0.0000    0.0000   -0.0000   -0.0000    0.0000    0.6154   -0.1151
       10 O1     4py        0.0000    0.0000   -0.0000   -0.0000    0.0000    0.2852   -0.0534
       11 O1     2pz        0.0000   -0.0000    0.0798    0.1280    0.2280   -0.0000    0.0000
       12 O1     3pz        0.0000   -0.0000   -0.1664    0.1738    0.9993   -0.0001    0.0000
       13 O1     4pz        0.0000   -0.0000   -0.0522    0.0650    0.3683   -0.0000    0.0000
       14 O1     3d2-       0.0001   -0.0092   -0.0000   -0.0000    0.0000    0.0000    0.0000
       15 O1     4d2-       0.0001   -0.0059   -0.0000   -0.0000    0.0000    0.0000    0.0000
       16 O1     3d1-      -0.0000   -0.0000    0.0000   -0.0000   -0.0000   -0.0110    0.0021
       17 O1     4d1-      -0.0000   -0.0000    0.0000   -0.0000   -0.0000   -0.0062    0.0012
       18 O1     3d0        0.0000   -0.0000    0.0312   -0.0003   -0.0209    0.0000   -0.0000
       19 O1     4d0        0.0000   -0.0000    0.0183    0.0002   -0.0146    0.0000   -0.0000
       20 O1     3d1+      -0.0000    0.0000   -0.0000    0.0000    0.0000    0.0021    0.0110
       21 O1     4d1+      -0.0000    0.0000   -0.0000    0.0000    0.0000    0.0012    0.0062
       22 O1     3d2+       0.0092    0.0001   -0.0000   -0.0000    0.0000   -0.0000    0.0000
       23 O1     4d2+       0.0059    0.0001   -0.0000   -0.0000    0.0000   -0.0000    0.0000
       24 O1     4f3-      -0.0000   -0.0000   -0.0000    0.0000    0.0000    0.0000   -0.0000
       25 O1     4f2-      -0.0000    0.0013    0.0000    0.0000   -0.0000    0.0000    0.0000
       26 O1     4f1-       0.0000    0.0000    0.0000    0.0000   -0.0000   -0.0046    0.0009
       27 O1     4f0       -0.0000    0.0000   -0.0006   -0.0003    0.0004    0.0000   -0.0000
       28 O1     4f1+       0.0000   -0.0000   -0.0000   -0.0000    0.0000    0.0009    0.0046
       29 O1     4f2+      -0.0013   -0.0000    0.0000    0.0000    0.0000    0.0000   -0.0000
       30 O1     4f3+       0.0000   -0.0000    0.0000   -0.0000   -0.0000   -0.0000   -0.0000
       31 FE2    1s         0.0000   -0.0000   -0.0007    0.0009    0.0044   -0.0000    0.0000
       32 FE2    2s         0.0000   -0.0000   -0.0052    0.0062    0.0320   -0.0000    0.0000
       33 FE2    3s         0.0000   -0.0000   -0.0275    0.0300    0.1535   -0.0000    0.0000
       34 FE2    4s         0.0000   -0.0000   -0.1311    0.1859    0.5522   -0.0000    0.0000
       35 FE2    5s        -0.0000    0.0000   -0.7116    0.4463   -0.3207    0.0000   -0.0000
       36 FE2    6s        -0.0000   -0.0000   -0.3395    0.2522   -0.2636    0.0000   -0.0000
       37 FE2    2px       -0.0000    0.0000   -0.0000   -0.0000    0.0000    0.0002    0.0009
       38 FE2    3px       -0.0000    0.0000    0.0000   -0.0000    0.0000    0.0035    0.0187
[...]
       79 FE2    4f3+      -0.0000   -0.0000    0.0000    0.0000   -0.0000    0.0000    0.0000   -0.0000   -0.0023    0.6145
       80 FE2    5f3+      -0.0000    0.0000   -0.0000    0.0000   -0.0000   -0.0000    0.0000    0.0000    0.0030   -0.7889
       81 FE2    5g4-      -0.0000   -0.0000    0.0000    0.0000    0.0000   -0.0000   -0.0000   -0.0000   -0.0000    0.0000
       82 FE2    5g3-       0.0000    0.0001   -0.0000    0.0000    0.0000    1.0000    0.0000   -0.0000    0.0041    0.0000
       83 FE2    5g2-       0.0082    0.0145   -0.0002   -0.0001    0.0006    0.0000   -0.0000    0.0138    0.0000    0.0000
       84 FE2    5g1-      -0.0000    0.0000   -0.0000    0.0000   -0.0000    0.0000    0.0000    0.0000    0.0000   -0.0000
       85 FE2    5g0       -0.0000   -0.0000   -0.0000    0.0000    0.0000   -0.0000   -0.0000   -0.0000   -0.0000    0.0000
       86 FE2    5g1+       0.0000    0.0000   -0.0000    0.0000    0.0000    0.0000    0.0000   -0.0000    0.0000    0.0000
       87 FE2    5g2+      -0.0001    0.9998   -0.0138   -0.0082   -0.0000   -0.0001   -0.0006   -0.0002   -0.0000    0.0000
       88 FE2    5g3+       0.0000   -0.0000    0.0000   -0.0000    0.0000   -0.0045   -0.0000   -0.0000   -0.0000    0.0041
       89 FE2    5g4+       0.0000   -0.0000    0.0000    0.0000   -0.0000   -0.0000   -0.0000    0.0000   -0.0000   -0.0000
 
          Orbital           81        82        83        84        85        86        87    
          Energy            7.5422    7.5335    4.0722    3.3764    3.3764    7.5185    7.5185
          Occ. No.          0.0000    0.0000    0.0000    0.0000    0.0000    0.0000    0.0000
 
        1 O1     1s        -0.0000    0.0000    0.0000   -0.0000    0.0000    0.0000    0.0000
        2 O1     2s        -0.0000    0.0000    0.0000   -0.0000    0.0000    0.0000    0.0000
        3 O1     3s        -0.0000    0.0000    0.0000   -0.0000    0.0000   -0.0000   -0.0000
        4 O1     4s        -0.0000    0.0000    0.0000   -0.0000    0.0000    0.0000   -0.0000
        5 O1     2px       -0.0000   -0.0000   -0.0000   -0.0000   -0.0000    0.0000   -0.0000
        6 O1     3px       -0.0000   -0.0000   -0.0000   -0.0000    0.0000    0.0000   -0.0000
        7 O1     4px        0.0000    0.0000   -0.0000   -0.0000   -0.0000    0.0000   -0.0000
        8 O1     2py        0.0000    0.0000    0.0000    0.0000   -0.0000   -0.0000   -0.0000
        9 O1     3py        0.0000    0.0000    0.0000   -0.0000   -0.0000   -0.0000   -0.0000
       10 O1     4py       -0.0000    0.0000    0.0000    0.0000   -0.0000   -0.0000   -0.0000
       11 O1     2pz       -0.0000   -0.0000   -0.0000    0.0000   -0.0000    0.0000    0.0000
       12 O1     3pz       -0.0000    0.0000   -0.0000   -0.0000   -0.0000    0.0000    0.0000
       13 O1     4pz       -0.0000    0.0000   -0.0000    0.0000   -0.0000    0.0000    0.0000
       14 O1     3d2-      -0.0026   -0.0000    0.4847   -0.0000   -0.0000   -0.0000    0.0000
       15 O1     4d2-      -0.0179   -0.0000   -0.8756    0.0000    0.0000    0.0000    0.0000
       16 O1     3d1-      -0.0000   -0.0000    0.0000    0.0000    0.0000    0.0000    0.0000
       17 O1     4d1-      -0.0000   -0.0000   -0.0000    0.0000   -0.0000    0.0000    0.0000
       18 O1     3d0       -0.0000    0.0000    0.0000   -0.0000    0.0000    0.0000    0.0000
       19 O1     4d0        0.0000    0.0000   -0.0000   -0.0000    0.0000   -0.0000   -0.0000
       20 O1     3d1+       0.0000    0.0000   -0.0000    0.0000   -0.0000   -0.0000    0.0000
       21 O1     4d1+       0.0000    0.0000    0.0000   -0.0000   -0.0000   -0.0000    0.0000
       22 O1     3d2+       0.0000   -0.0000   -0.0076   -0.0000    0.0000   -0.0000   -0.0000
       23 O1     4d2+       0.0003    0.0000    0.0138    0.0000   -0.0000   -0.0000    0.0000
       24 O1     4f3-       0.0000   -0.0000    0.0000   -0.1930    0.9812   -0.0000   -0.0000
       25 O1     4f2-       0.0179    0.0000    0.0184    0.0000    0.0000   -0.0000   -0.0000
       26 O1     4f1-       0.0000    0.0000    0.0000    0.0000   -0.0000   -0.0000   -0.0000
       27 O1     4f0       -0.0000   -0.0000   -0.0000   -0.0000    0.0000    0.0000    0.0000
       28 O1     4f1+      -0.0000   -0.0000   -0.0000   -0.0000   -0.0000    0.0000   -0.0000
       29 O1     4f2+      -0.0003    0.0000   -0.0003    0.0000   -0.0000    0.0000   -0.0000
       30 O1     4f3+       0.0000   -0.0031    0.0000    0.9812    0.1930    0.0000   -0.0000
       31 FE2    1s        -0.0000    0.0000   -0.0000    0.0000   -0.0000    0.0000    0.0000
       32 FE2    2s        -0.0000    0.0000   -0.0000    0.0000   -0.0000    0.0000    0.0000
       33 FE2    3s        -0.0000    0.0000   -0.0000    0.0000   -0.0000    0.0000    0.0000
       34 FE2    4s        -0.0000    0.0000   -0.0000    0.0000   -0.0000    0.0000    0.0000
       35 FE2    5s         0.0000    0.0000   -0.0000    0.0000   -0.0000   -0.0000   -0.0000
       36 FE2    6s         0.0000    0.0000   -0.0000   -0.0000   -0.0000   -0.0000   -0.0000
       37 FE2    2px        0.0000    0.0000    0.0000    0.0000    0.0000   -0.0000    0.0000
       38 FE2    3px        0.0000    0.0000    0.0000    0.0000    0.0000   -0.0000    0.0000
       39 FE2    4px        0.0000    0.0000    0.0000   -0.0000   -0.0000   -0.0000    0.0000
       40 FE2    5px       -0.0000   -0.0000   -0.0000    0.0000    0.0000    0.0000   -0.0000
       41 FE2    6px        0.0000    0.0000   -0.0000    0.0000    0.0000   -0.0000    0.0000
       42 FE2    2py       -0.0000   -0.0000   -0.0000   -0.0000    0.0000    0.0000    0.0000
       43 FE2    3py       -0.0000   -0.0000   -0.0000   -0.0000    0.0000    0.0000    0.0000
       44 FE2    4py       -0.0000   -0.0000   -0.0000    0.0000   -0.0000    0.0000    0.0000
       45 FE2    5py        0.0000    0.0000    0.0000   -0.0000    0.0000   -0.0000   -0.0000
       46 FE2    6py       -0.0000    0.0000    0.0000   -0.0000    0.0000    0.0000    0.0000
       47 FE2    2pz       -0.0000    0.0000   -0.0000    0.0000   -0.0000    0.0000    0.0000
       48 FE2    3pz       -0.0000    0.0000   -0.0000    0.0000   -0.0000    0.0000    0.0000
       49 FE2    4pz       -0.0000   -0.0000   -0.0000    0.0000   -0.0000    0.0000    0.0000
       50 FE2    5pz        0.0000   -0.0000    0.0000    0.0000   -0.0000    0.0000    0.0000
       51 FE2    6pz        0.0000   -0.0000    0.0000   -0.0000    0.0000   -0.0000   -0.0000
       52 FE2    3d2-       0.0045    0.0000    0.0093    0.0000    0.0000   -0.0000   -0.0000
       53 FE2    4d2-       0.0003   -0.0000    0.0296    0.0000    0.0000    0.0000    0.0000
       54 FE2    5d2-       0.0016    0.0000    0.0629    0.0000    0.0000    0.0000    0.0000
       55 FE2    3d1-      -0.0000   -0.0000   -0.0000   -0.0000    0.0000    0.0000    0.0000
       56 FE2    4d1-       0.0000    0.0000   -0.0000   -0.0000    0.0000    0.0000    0.0000
       57 FE2    5d1-       0.0000   -0.0000    0.0000   -0.0000    0.0000    0.0000    0.0000
       58 FE2    3d0        0.0000   -0.0000   -0.0000    0.0000   -0.0000   -0.0000   -0.0000
       59 FE2    4d0        0.0000   -0.0000   -0.0000    0.0000   -0.0000   -0.0000   -0.0000
       60 FE2    5d0        0.0000   -0.0000   -0.0000    0.0000   -0.0000   -0.0000   -0.0000
       61 FE2    3d1+       0.0000    0.0000    0.0000    0.0000    0.0000   -0.0000    0.0000
       62 FE2    4d1+      -0.0000   -0.0000    0.0000    0.0000    0.0000   -0.0000    0.0000
       63 FE2    5d1+      -0.0000    0.0000    0.0000    0.0000    0.0000   -0.0000    0.0000
       64 FE2    3d2+      -0.0001    0.0000   -0.0001    0.0000   -0.0000    0.0000   -0.0000
       65 FE2    4d2+      -0.0000   -0.0000   -0.0005    0.0000   -0.0000   -0.0000    0.0000
       66 FE2    5d2+      -0.0000    0.0000   -0.0010    0.0000   -0.0000   -0.0000    0.0000
       67 FE2    4f3-       0.0000   -0.0000   -0.0000    0.0017   -0.0086   -0.0000   -0.0000
       68 FE2    5f3-      -0.0000    0.0000   -0.0000    0.0005   -0.0023    0.0000    0.0000
       69 FE2    4f2-      -0.0079   -0.0000    0.0543    0.0000    0.0000    0.0000   -0.0000
       70 FE2    5f2-       0.0117    0.0000    0.0067    0.0000    0.0000   -0.0000    0.0000
       71 FE2    4f1-      -0.0000    0.0000   -0.0000   -0.0000    0.0000   -0.0000   -0.0000
       72 FE2    5f1-      -0.0000   -0.0000   -0.0000   -0.0000    0.0000    0.0000    0.0000
       73 FE2    4f0       -0.0000   -0.0000   -0.0000   -0.0000    0.0000    0.0000    0.0000
       74 FE2    5f0       -0.0000   -0.0000   -0.0000   -0.0000    0.0000    0.0000    0.0000
       75 FE2    4f1+       0.0000   -0.0000    0.0000    0.0000    0.0000    0.0000   -0.0000
       76 FE2    5f1+       0.0000    0.0000    0.0000    0.0000    0.0000   -0.0000    0.0000
       77 FE2    4f2+       0.0001   -0.0000   -0.0009    0.0000   -0.0000    0.0000    0.0000
       78 FE2    5f2+      -0.0002    0.0000   -0.0001    0.0000   -0.0000   -0.0000   -0.0000
       79 FE2    4f3+       0.0000   -0.0028   -0.0000   -0.0086   -0.0017    0.0000   -0.0000
       80 FE2    5f3+      -0.0000    0.0030   -0.0000   -0.0023   -0.0005   -0.0000    0.0000
       81 FE2    5g4-      -0.0000    0.0000    0.0000    0.0000    0.0000    0.4128   -0.9108
       82 FE2    5g3-      -0.0000    0.0045   -0.0000   -0.0003    0.0015    0.0000    0.0000
       83 FE2    5g2-       0.9998    0.0001   -0.0075   -0.0000   -0.0000   -0.0000   -0.0000
       84 FE2    5g1-      -0.0000   -0.0000    0.0000    0.0000   -0.0000    0.0000    0.0000
       85 FE2    5g0        0.0000   -0.0000    0.0000    0.0000   -0.0000   -0.0000   -0.0000
       86 FE2    5g1+       0.0000    0.0000   -0.0000   -0.0000   -0.0000   -0.0000    0.0000
       87 FE2    5g2+      -0.0145    0.0000    0.0001   -0.0000    0.0000    0.0000   -0.0000
       88 FE2    5g3+      -0.0001    1.0000   -0.0000    0.0015    0.0003   -0.0000    0.0000
       89 FE2    5g4+       0.0000   -0.0000   -0.0000    0.0000   -0.0000    0.9108    0.4128
--
 
 
++    Molecular properties:
      ---------------------
 
      Charge (e):
                      =    2.0000
      Dipole Moment (Debye):
      Origin of the operator (Ang)=    0.0000    0.0000    0.0000
                   X=  7.4890E-07               Y= -3.0785E-05               Z=  3.2786E+00           Total=  3.2786E+00
      Center of Charge (Ang)
                     X=    0.00000008               Y=   -0.00000320               Z=    0.34129041
      Quadrupole Moment (Debye*Ang):
      Origin of the operator (Ang)=    0.0000    0.0000    0.0615
                  XX= -1.2404E+01              XY= -1.0975E-07              XZ=  1.1455E-06              YY= -1.2404E+01
                  YZ= -4.6989E-05              ZZ=  5.6553E+00
      In traceless form (Debye*Ang)
                  XX= -9.0298E+00              XY= -1.6462E-07              XZ=  1.7182E-06              YY= -9.0298E+00
                  YZ= -7.0483E-05              ZZ=  1.8060E+01
--
 
 
  Input file to MOLDEN was generated!
 
 ###############################################################################
 ###############################################################################
 ###                                                                         ###
 ###                                                                         ###
 ###    RunFile label nBas                                                   ###
 ###    was used       86 times                                              ###
 ###                                                                         ###
 ###                                                                         ###
 ###############################################################################
 ###############################################################################
forrtl: warning (528): IEEE_UNDERFLOW is signaling
--- Stop Module: scf at Thu Apr 17 23:35:10 2025 /rc=_RC_ALL_IS_WELL_ ---
*** files: 2.66.LprOrb 2.66.LoProp.molden 2.66.scf.molden 2.66.scf.h5 2.66.UhfOrb 2.66.UnaOrb xmldump
    saved to directory /home/grierjones/DDCASPT2/iron_oxo_DDCASPT2/MScaspt2iron/2.66
--- Module scf spent 1 second ---

>>> COPY /tmp/2.66/2.66.scf.h5 /home/grierjones/DDCASPT2/iron_oxo_DDCASPT2/MScaspt2iron/2.66/

*** symbolic link created: INPORB -> 2.66.UnaOrb
--- Start Module: rasscf at Thu Apr 17 23:35:10 2025 ---
 
()()()()()()()()()()()()()()()()()()()()()()()()()()()()()()()()()()()()()()()()()()()()()()()()()()

                                              &RASSCF

                                   only a single process is used
                       available to each process: 2.0 GB of memory, 1 thread?
()()()()()()()()()()()()()()()()()()()()()()()()()()()()()()()()()()()()()()()()()()()()()()()()()()
 
 ###############################################################################
 ###############################################################################
 ###                                                                         ###
 ###                                                                         ###
 ###    LUMORB input error.                                                  ###
 ###                                                                         ###
 ###                                                                         ###
 ###############################################################################
 ###############################################################################
  Keyword LUMORB used with file name StartOrbFile=
 /home/grierjones/DDCASPT2/iron_oxo_DDCASPT2/MScaspt2iron/2.64/2.64.RasOrb      
                                                  
  but that file cannot be used. Perhaps it does
  not exist?
 
      Header of the ONEINT file:
      --------------------------
      
      Integrals generated by seward 4.2.0  , Thu Apr 17 23:35:05 2025
 
 
      OrdInt status: non-squared
 
 
      Cartesian coordinates in Angstrom:
      -----------------------------------------------------
      No.  Label        X            Y            Z        
      -----------------------------------------------------
       1   O1         0.00000000   0.00000000   2.13000000
       2   FE2        0.00000000   0.00000000  -0.53000000
      -----------------------------------------------------
      Nuclear repulsion energy =   41.37927061
 
++    Wave function specifications:
      -----------------------------
 
      Number of closed shell electrons          22
      Number of electrons in active shells      10
      Max number of holes in RAS1 space          0
      Max nr of electrons in RAS3 space          0
      Number of inactive orbitals               11
      Number of active orbitals                 14
      Number of secondary orbitals              64
      Spin quantum number                      2.0
      State symmetry                             1
--
 
++    Orbital specifications:
      -----------------------
 
      Symmetry species                           1
                                                 a
      Frozen orbitals                            0
      Inactive orbitals                         11
      Active orbitals                           14
      RAS1 orbitals                              0
      RAS2 orbitals                             14
      RAS3 orbitals                              0
      Secondary orbitals                        64
      Deleted orbitals                           0
      Number of basis functions                 89
--
 
++    CI expansion specifications:
      ----------------------------
 
      Number of CSFs                        975975
      Number of determinants               1249248
      Number of root(s) required                 3
      Root chosen for geometry opt.              3
      CI roots used                              1     2     3
      weights                                0.333 0.333 0.333
      highest root included in the CI            3
      max. size of the explicit Hamiltonian    200
--
 
++    Optimization specifications:
      ----------------------------
 
      RASSCF algorithm: Conventional
      Maximum number of macro iterations       200
      Maximum number of SX iterations          100
      Threshold for RASSCF energy            0.100E-07
      Threshold for max MO rotation          0.100E+00
      Threshold for max BLB element          0.100E-03
      Level shift parameter                  0.500E+00
      Make Quasi-Newton update
--
 
 ###############################################################################
 ###############################################################################
 ###                                                                         ###
 ###                                                                         ###
 ###    Location: rdVec_                                                     ###
 ###    File: /home/grierjones/DDCASPT2/iron_oxo_DDCASPT2/MScaspt2iron/2.64/2.64.RasOrb\n\n\n
 ###    ile: /home/grierjones/DDCASPT2/iron_oxo_DDCASPT2/MScaspt2iron/2.64/2.64.RasOrb\n\n\n
 ###    le: /home/grierjones/DDCASPT2/iron_oxo_DDCASPT2/MScaspt2iron/2.64/2.64.RasOrb\n\n\n
 ###    e: /home/grierjones/DDCASPT2/iron_oxo_DDCASPT2/MScaspt2iron/2.64/2.64.RasOrb\n\n\n
 ###    : /home/grierjones/DDCASPT2/iron_oxo_DDCASPT2/MScaspt2iron/2.64/2.64.RasOrb\n\n\n
 ###     /home/grierjones/DDCASPT2/iron_oxo_DDCASPT2/MScaspt2iron/2.64/2.64.RasOrb\n\n\n
 ###    /home/grierjones/DDCASPT2/iron_oxo_DDCASPT2/MScaspt2iron/2.64/2.64.RasOrb\n\n\n
 ###    home/grierjones/DDCASPT2/iron_oxo_DDCASPT2/MScaspt2iron/2.64/2.64.RasOrb\n\n\n
 ###    ome/grierjones/DDCASPT2/iron_oxo_DDCASPT2/MScaspt2iron/2.64/2.64.RasOrb\n\n\n
 ###    me/grierjones/DDCASPT2/iron_oxo_DDCASPT2/MScaspt2iron/2.64/2.64.RasOrb\n\n\n
 ###    e/grierjones/DDCASPT2/iron_oxo_DDCASPT2/MScaspt2iron/2.64/2.64.RasOrb\n\n\n
 ###    /grierjones/DDCASPT2/iron_oxo_DDCASPT2/MScaspt2iron/2.64/2.64.RasOrb\n\n\n
 ###    grierjones/DDCASPT2/iron_oxo_DDCASPT2/MScaspt2iron/2.64/2.64.RasOrb\n\n\n
 ###    rierjones/DDCASPT2/iron_oxo_DDCASPT2/MScaspt2iron/2.64/2.64.RasOrb\n\n\n
 ###    ierjones/DDCASPT2/iron_oxo_DDCASPT2/MScaspt2iron/2.64/2.64.RasOrb\n\n\n
 ###    erjones/DDCASPT2/iron_oxo_DDCASPT2/MScaspt2iron/2.64/2.64.RasOrb\n\n\n
 ###    rjones/DDCASPT2/iron_oxo_DDCASPT2/MScaspt2iron/2.64/2.64.RasOrb\n\n\n
 ###    jones/DDCASPT2/iron_oxo_DDCASPT2/MScaspt2iron/2.64/2.64.RasOrb\n\n\n
 ###    ones/DDCASPT2/iron_oxo_DDCASPT2/MScaspt2iron/2.64/2.64.RasOrb\n\n\n  ###
 ###    nes/DDCASPT2/iron_oxo_DDCASPT2/MScaspt2iron/2.64/2.64.RasOrb\n\n\n   ###
 ###    es/DDCASPT2/iron_oxo_DDCASPT2/MScaspt2iron/2.64/2.64.RasOrb          ###
 ###                                                                         ###
 ###                                                                         ###
 ###    Error during reading INPORB                                          ###
 ###     not defined yet                                                     ###
 ###                                                                         ###
 ###                                                                         ###
 ###############################################################################
 ###############################################################################
[ process      0]: xquit (rc =    128): _INTERNAL_ERROR_
abort: 
--- Stop Module: rasscf at Thu Apr 17 23:35:10 2025 /rc=_RC_FLOATING_EXCEPTION_ ---
*** files: xmldump
    saved to directory /home/grierjones/DDCASPT2/iron_oxo_DDCASPT2/MScaspt2iron/2.66

.########################.
.# Non-zero return code #.
.########################.

    Timing: Wall=5.08 User=4.50 System=0.58
************************************
*** WorkDir at /tmp/2.66 cleaned ***
************************************
