[Molden Format]
[N_Atoms]
                     2
[Atoms] (AU)
B1          1      5           0.00000000      0.00000000      0.00000000
BE2         2      4           0.00000000      0.00000000      4.91328792
[Charge] (Mulliken)
 -3.409423932803612E-002
  3.409423932801303E-002
[GTO] (AU)
   1
   s  14
  3.336021700E+04  1.039699991E-04
  4.972095200E+03  5.254399956E-04
  1.125641700E+03  2.509059979E-03
  3.164913600E+02  1.031887991E-02
  1.020072600E+02  3.636632969E-02
  3.629587300E+01  1.064607991E-01
  1.397141000E+01  2.403999880E-01
  5.741156000E+00  3.748581168E-01
  2.494268000E+00  3.100066974E-01
  1.114202000E+00  7.922455933E-02
  4.215490000E-01 -4.947589958E-03
  1.696330000E-01 -7.737119935E-03
  6.853500000E-02 -1.501079987E-03
  2.398700000E-02 -1.333299989E-04
   s  14
  3.336021700E+04 -2.030000008E-05
  4.972095200E+03 -1.025700004E-04
  1.125641700E+03 -4.911300020E-04
  3.164913600E+02 -2.026570008E-03
  1.020072600E+02 -7.261010030E-03
  3.629587300E+01 -2.197722009E-02
  1.397141000E+01 -5.408428022E-02
  5.741156000E+00 -1.022402604E-01
  2.494268000E+00 -1.423595206E-01
  1.114202000E+00 -4.658690019E-02
  4.215490000E-01  3.799402916E-01
  1.696330000E-01  5.890463624E-01
  6.853500000E-02  1.749075107E-01
  2.398700000E-02 -1.142030005E-03
   p   9
  5.500000000E+01  1.229800005E-03
  1.336610100E+01  8.827380035E-03
  4.135394000E+00  3.843340015E-02
  1.481256000E+00  1.150031805E-01
  6.021360000E-01  2.733674011E-01
  2.556360000E-01  4.061972116E-01
  1.111510000E-01  3.014967912E-01
  4.764800000E-02  7.684809030E-02
  1.667700000E-02 -8.170000032E-06
 
   2
   s  14
  2.262859900E+04  8.443999941E-05
  3.372318100E+03  4.601499968E-04
  7.603504000E+02  2.285389984E-03
  2.117404800E+02  9.648129932E-03
  6.722346800E+01  3.494469975E-02
  2.337217700E+01  1.061099893E-01
  8.721373000E+00  2.458240383E-01
  3.468091000E+00  3.862428773E-01
  1.452144000E+00  3.105526078E-01
  6.086150000E-01  6.415933955E-02
  2.576860000E-01 -2.265049984E-03
  1.041760000E-01 -5.217499963E-04
  4.242700000E-02 -8.757499938E-04
  1.484900000E-02  1.242199991E-04
   s  14
  2.262859900E+04 -1.586999994E-05
  3.372318100E+03 -8.656999968E-05
  7.603504000E+02 -4.302199984E-04
  2.117404800E+02 -1.825079993E-03
  6.722346800E+01 -6.682749976E-03
  2.337217700E+01 -2.095119992E-02
  8.721373000E+00 -5.200308981E-02
  3.468091000E+00 -9.849176964E-02
  1.452144000E+00 -1.355800695E-01
  6.086150000E-01 -6.429875976E-02
  2.576860000E-01  3.125414989E-01
  1.041760000E-01  6.270468577E-01
  4.242700000E-02  2.110231492E-01
  1.484900000E-02 -4.104669985E-03
   p   9
  3.371018400E+01  1.069960000E-03
  8.057649500E+00  6.828550001E-03
  2.836471400E+00  2.119065000E-02
  1.099965700E+00  5.843696001E-02
  4.433964000E-01  2.020920800E-01
  1.822264000E-01  4.582953101E-01
  7.572410000E-02  3.691239601E-01
  3.168540000E-02  6.611471001E-02
  1.108990000E-02  1.405160000E-03
 
[MO]
Sym=     1a  
Ene=    -7.6257
Spin= Alpha
Occup=    2.00000
   1         0.99991711
   2         0.01449969
   3        -0.00000022
   4         0.00000012
   5         0.00052621
   6        -0.00005398
   7        -0.00036337
   8        -0.00000036
   9         0.00000021
  10         0.00043287
Sym=     2a  
Ene=    -4.7214
Spin= Alpha
Occup=    2.00000
   1        -0.00000931
   2         0.00012397
   3         0.00000023
   4        -0.00000013
   5         0.00003737
   6         0.99999509
   7         0.00210787
   8        -0.00000188
   9         0.00000110
  10        -0.00016221
Sym=     3a  
Ene=    -0.4928
Spin= Alpha
Occup=    2.00000
   1        -0.01973960
   2         0.89360863
   3        -0.00011452
   4         0.00006700
   5         0.03096388
   6        -0.01230681
   7         0.23051227
   8        -0.00000749
   9         0.00000433
  10        -0.07772609
Sym=     4a  
Ene=    -0.2941
Spin= Alpha
Occup=    2.00000
   1         0.00958557
   2         0.42789178
   3        -0.00026655
   4         0.00015665
   5        -0.15155053
   6         0.00160667
   7        -0.94157827
   8        -0.00023320
   9         0.00013667
  10        -0.03652106
Sym=     5a  
Ene=     0.1121
Spin= Alpha
Occup=   -0.00000
   1         0.00185520
   2         0.02512699
   3         0.27978930
   4        -0.00811440
   5        -0.12283605
   6         0.00347527
   7         0.04912314
   8        -0.83766182
   9         0.51571845
  10         0.08458909
Sym=     6a  
Ene=     0.0000
Spin= Alpha
Occup=    1.00000
   1         0.00000973
   2         0.00042267
   3         0.84573004
   4        -0.49506006
   5        -0.00394447
   6         0.00011683
   7         0.00129793
   8         0.08573676
   9        -0.05018869
  10         0.00103853
Sym=     7a  
Ene=     0.0530
Spin= Alpha
Occup=    0.00000
   1         0.01741355
   2         0.23164716
   3        -0.05508453
   4        -0.00867809
   5        -0.58382470
   6         0.01525714
   7         0.22027346
   8         0.11716783
   9        -0.11102554
  10         0.67713922
Sym=     8a  
Ene=     0.0720
Spin= Alpha
Occup=    0.00000
   1         0.00066883
   2         0.00889183
   3         0.23240171
   4         0.45296554
   5        -0.02104181
   6         0.00054400
   7         0.00785704
   8         0.49044330
   9         0.61549859
  10         0.02571586
Sym=     9a  
Ene=     0.1564
Spin= Alpha
Occup=    0.00000
   1         0.00014516
   2         0.00190861
   3        -0.41622756
   4        -0.75731709
   5        -0.00283520
   6         0.00006496
   7         0.00100558
   8         0.24495187
   9         0.60339156
  10         0.00524057
Sym=    10a  
Ene=     0.2714
Spin= Alpha
Occup=    0.00000
   1        -0.03351623
   2        -0.42878626
   3        -0.01006742
   4         0.00066649
   5        -0.91559425
   6         0.03290930
   7         0.43111160
   8         0.02530838
   9        -0.01421363
  10        -0.88808032
