[Molden Format]
[N_Atoms]
                     2
[Atoms] (AU)
B1          1      5           0.00000000      0.00000000      0.00000000
BE2         2      4           0.00000000      0.00000000      4.91328792
[Charge] (Mulliken)
 -6.907607455257914E-002
  6.907607455255116E-002
[GTO] (AU)
   1
   s  14
  3.336021700E+04  1.039699991E-04
  4.972095200E+03  5.254399956E-04
  1.125641700E+03  2.509059979E-03
  3.164913600E+02  1.031887991E-02
  1.020072600E+02  3.636632969E-02
  3.629587300E+01  1.064607991E-01
  1.397141000E+01  2.403999880E-01
  5.741156000E+00  3.748581168E-01
  2.494268000E+00  3.100066974E-01
  1.114202000E+00  7.922455933E-02
  4.215490000E-01 -4.947589958E-03
  1.696330000E-01 -7.737119935E-03
  6.853500000E-02 -1.501079987E-03
  2.398700000E-02 -1.333299989E-04
   s  14
  3.336021700E+04 -2.030000008E-05
  4.972095200E+03 -1.025700004E-04
  1.125641700E+03 -4.911300020E-04
  3.164913600E+02 -2.026570008E-03
  1.020072600E+02 -7.261010030E-03
  3.629587300E+01 -2.197722009E-02
  1.397141000E+01 -5.408428022E-02
  5.741156000E+00 -1.022402604E-01
  2.494268000E+00 -1.423595206E-01
  1.114202000E+00 -4.658690019E-02
  4.215490000E-01  3.799402916E-01
  1.696330000E-01  5.890463624E-01
  6.853500000E-02  1.749075107E-01
  2.398700000E-02 -1.142030005E-03
   p   9
  5.500000000E+01  1.229800005E-03
  1.336610100E+01  8.827380035E-03
  4.135394000E+00  3.843340015E-02
  1.481256000E+00  1.150031805E-01
  6.021360000E-01  2.733674011E-01
  2.556360000E-01  4.061972116E-01
  1.111510000E-01  3.014967912E-01
  4.764800000E-02  7.684809030E-02
  1.667700000E-02 -8.170000032E-06
 
   2
   s  14
  2.262859900E+04  8.443999941E-05
  3.372318100E+03  4.601499968E-04
  7.603504000E+02  2.285389984E-03
  2.117404800E+02  9.648129932E-03
  6.722346800E+01  3.494469975E-02
  2.337217700E+01  1.061099893E-01
  8.721373000E+00  2.458240383E-01
  3.468091000E+00  3.862428773E-01
  1.452144000E+00  3.105526078E-01
  6.086150000E-01  6.415933955E-02
  2.576860000E-01 -2.265049984E-03
  1.041760000E-01 -5.217499963E-04
  4.242700000E-02 -8.757499938E-04
  1.484900000E-02  1.242199991E-04
   s  14
  2.262859900E+04 -1.586999994E-05
  3.372318100E+03 -8.656999968E-05
  7.603504000E+02 -4.302199984E-04
  2.117404800E+02 -1.825079993E-03
  6.722346800E+01 -6.682749976E-03
  2.337217700E+01 -2.095119992E-02
  8.721373000E+00 -5.200308981E-02
  3.468091000E+00 -9.849176964E-02
  1.452144000E+00 -1.355800695E-01
  6.086150000E-01 -6.429875976E-02
  2.576860000E-01  3.125414989E-01
  1.041760000E-01  6.270468577E-01
  4.242700000E-02  2.110231492E-01
  1.484900000E-02 -4.104669985E-03
   p   9
  3.371018400E+01  1.069960000E-03
  8.057649500E+00  6.828550001E-03
  2.836471400E+00  2.119065000E-02
  1.099965700E+00  5.843696001E-02
  4.433964000E-01  2.020920800E-01
  1.822264000E-01  4.582953101E-01
  7.572410000E-02  3.691239601E-01
  3.168540000E-02  6.611471001E-02
  1.108990000E-02  1.405160000E-03
 
[MO]
Sym=     1a  
Ene=    -7.6269
Spin= Alpha
Occup=    1.00000
   1         0.99989354
   2         0.01625853
   3         0.00000000
   4         0.00000000
   5         0.00006961
   6        -0.00005254
   7        -0.00038531
   8        -0.00000000
   9        -0.00000000
  10         0.00050533
Sym=     1a  
Ene=    -7.6055
Spin= Beta
Occup=    1.00000
   1         0.99992507
   2         0.01318665
   3         0.00000000
   4         0.00000000
   5         0.00058496
   6        -0.00003968
   7        -0.00024053
   8        -0.00000000
   9         0.00000000
  10         0.00021759
Sym=     2a  
Ene=    -4.7324
Spin= Alpha
Occup=    1.00000
   1        -0.00004490
   2        -0.00006460
   3         0.00000000
   4         0.00000000
   5         0.00004785
   6         0.99999580
   7         0.00250955
   8        -0.00000000
   9         0.00000000
  10        -0.00079084
Sym=     2a  
Ene=    -4.7373
Spin= Beta
Occup=    1.00000
   1         0.00000977
   2         0.00037832
   3         0.00000000
   4         0.00000000
   5         0.00019585
   6         0.99998642
   7         0.00233398
   8        -0.00000000
   9         0.00000000
  10         0.00058989
Sym=     3a  
Ene=    -0.5465
Spin= Alpha
Occup=    1.00000
   1        -0.02178768
   2         0.90654137
   3        -0.00000000
   4         0.00000000
   5        -0.12855883
   6        -0.00753334
   7         0.18604676
   8        -0.00000000
   9         0.00000000
  10        -0.10530070
Sym=     3a  
Ene=    -0.4311
Spin= Beta
Occup=    1.00000
   1        -0.01806580
   2         0.81386666
   3        -0.00000000
   4        -0.00000000
   5         0.19528689
   6        -0.01688933
   7         0.34225663
   8         0.00000000
   9         0.00000000
  10        -0.03406376
Sym=     4a  
Ene=    -0.3170
Spin= Alpha
Occup=    1.00000
   1        -0.01872914
   2        -0.36759685
   3         0.00000000
   4        -0.00000000
   5         0.37413734
   6        -0.00960651
   7         0.78904848
   8         0.00000000
   9        -0.00000000
  10        -0.28073831
Sym=     4a  
Ene=    -0.3185
Spin= Beta
Occup=    1.00000
   1         0.00382745
   2        -0.38556480
   3         0.00000000
   4         0.00000000
   5        -0.04317120
   6         0.00374446
   7         0.86751160
   8        -0.00000000
   9         0.00000000
  10         0.39644672
Sym=     5a  
Ene=    -0.2872
Spin= Alpha
Occup=    1.00000
   1        -0.00000000
   2        -0.00000000
   3        -0.71778893
   4         0.66586464
   5         0.00000000
   6        -0.00000000
   7         0.00000000
   8        -0.07545255
   9         0.06999437
  10        -0.00000000
Sym=     5a  
Ene=     0.0746
Spin= Beta
Occup=    0.00000
   1        -0.00000000
   2         0.00000000
   3         0.24876438
   4         0.26816309
   5        -0.00000000
   6        -0.00000000
   7        -0.00000000
   8         0.59607234
   9         0.64255422
  10        -0.00000000
Sym=     6a  
Ene=     0.0668
Spin= Alpha
Occup=    0.00000
   1         0.00908532
   2        -0.05486639
   3         0.00000000
   4         0.00000000
   5        -0.56282318
   6         0.01739524
   7         0.63557365
   8         0.00000000
   9         0.00000000
  10         0.54463670
Sym=     6a  
Ene=     0.0837
Spin= Beta
Occup=    0.00000
   1         0.00000000
   2         0.00000000
   3        -0.17761630
   4         0.16476767
   5        -0.00000000
   6         0.00000000
   7        -0.00000000
   8        -0.68464859
   9         0.63512164
  10         0.00000000
Sym=     7a  
Ene=     0.0717
Spin= Alpha
Occup=    0.00000
   1        -0.00000000
   2         0.00000000
   3         0.40388619
   4         0.43538135
   5         0.00000000
   6        -0.00000000
   7        -0.00000000
   8         0.48890133
   9         0.52702598
  10        -0.00000000
Sym=     7a  
Ene=     0.0946
Spin= Beta
Occup=    0.00000
   1         0.02049850
   2         0.54574471
   3        -0.00000000
   4        -0.00000000
   5        -0.50958011
   6         0.00958900
   7        -0.18165633
   8         0.00000000
   9        -0.00000000
  10         0.67061403
Sym=     8a  
Ene=     0.1119
Spin= Alpha
Occup=    0.00000
   1        -0.00000000
   2        -0.00000000
   3         0.18739427
   4        -0.17383831
   5        -0.00000000
   6        -0.00000000
   7         0.00000000
   8        -0.73800032
   9         0.68461395
  10        -0.00000000
Sym=     8a  
Ene=     0.1765
Spin= Beta
Occup=    0.00000
   1         0.00000000
   2        -0.00000000
   3        -0.64164769
   4        -0.69168354
   5         0.00000000
   6        -0.00000000
   7         0.00000000
   8         0.34393784
   9         0.37075820
  10        -0.00000000
Sym=     9a  
Ene=     0.1555
Spin= Alpha
Occup=    0.00000
   1        -0.00000000
   2        -0.00000000
   3        -0.55719962
   4        -0.60065019
   5        -0.00000000
   6         0.00000000
   7         0.00000000
   8         0.48432527
   9         0.52209308
  10         0.00000000
Sym=     9a  
Ene=     0.2193
Spin= Beta
Occup=    0.00000
   1         0.00000000
   2        -0.00000000
   3        -0.72027079
   4         0.66816696
   5         0.00000000
   6        -0.00000000
   7         0.00000000
   8         0.28564642
   9        -0.26498298
  10        -0.00000000
Sym=    10a  
Ene=     0.2664
Spin= Alpha
Occup=    0.00000
   1         0.03242117
   2         0.50975579
   3         0.00000000
   4        -0.00000000
   5         0.86334796
   6        -0.03208090
   7        -0.33969698
   8         0.00000000
   9         0.00000000
  10         0.93589125
Sym=    10a  
Ene=     0.2920
Spin= Beta
Occup=    0.00000
   1         0.03368827
   2         0.33319640
   3         0.00000000
   4         0.00000000
   5         0.95863068
   6        -0.03329207
   7        -0.52330177
   8        -0.00000000
   9        -0.00000000
  10         0.80893187
