[Molden Format]
[N_Atoms]
                     2
[Atoms] (AU)
LI1         1      3           0.00000000      0.00000000      0.00000000
LI2         2      3           0.00000000      0.00000000      2.45664396
[Charge] (Mulliken)
  6.261657858885883E-013
 -6.346034808757395E-013
[GTO] (AU)
   1
   s  14
  9.497934400E+03  9.668999974E-05
  1.416811200E+03  6.087099984E-04
  3.214599400E+02  3.101519992E-03
  9.112416300E+01  1.266904997E-02
  2.999989100E+01  4.248012989E-02
  1.101763100E+01  1.150183297E-01
  4.372801000E+00  2.398650094E-01
  1.831256000E+00  3.584300090E-01
  8.022610000E-01  3.048527792E-01
  3.626480000E-01  8.824261976E-02
  1.139950000E-01 -8.445899977E-04
  5.123700000E-02 -7.943959979E-03
  2.246800000E-02 -3.764419990E-03
  7.860000000E-03 -8.868999976E-05
   s  14
  9.497934400E+03 -1.244999993E-05
  1.416811200E+03 -7.838999954E-05
  3.214599400E+02 -4.007099976E-04
  9.112416300E+01 -1.645249990E-03
  2.999989100E+01 -5.634599967E-03
  1.101763100E+01 -1.590780991E-02
  4.372801000E+00 -3.612581979E-02
  1.831256000E+00 -6.459927962E-02
  8.022610000E-01 -1.008321794E-01
  3.626480000E-01 -9.757613942E-02
  1.139950000E-01  2.301215886E-01
  5.123700000E-02  6.102389764E-01
  2.246800000E-02  2.849406083E-01
  7.860000000E-03  4.026899976E-03
   p   9
  1.311950400E+01  1.524940000E-03
  3.077424200E+00  8.314830000E-03
  1.098800500E+00  1.933203000E-02
  4.357784000E-01  4.934293000E-02
  1.802432000E-01  1.623554000E-01
  7.613330000E-02  3.847505400E-01
  3.254650000E-02  4.336100400E-01
  1.401820000E-02  1.287005900E-01
  4.906400000E-03 -1.018520000E-03
 
   2
   s  14
  9.497934400E+03  9.668999974E-05
  1.416811200E+03  6.087099984E-04
  3.214599400E+02  3.101519992E-03
  9.112416300E+01  1.266904997E-02
  2.999989100E+01  4.248012989E-02
  1.101763100E+01  1.150183297E-01
  4.372801000E+00  2.398650094E-01
  1.831256000E+00  3.584300090E-01
  8.022610000E-01  3.048527792E-01
  3.626480000E-01  8.824261976E-02
  1.139950000E-01 -8.445899977E-04
  5.123700000E-02 -7.943959979E-03
  2.246800000E-02 -3.764419990E-03
  7.860000000E-03 -8.868999976E-05
   s  14
  9.497934400E+03 -1.244999993E-05
  1.416811200E+03 -7.838999954E-05
  3.214599400E+02 -4.007099976E-04
  9.112416300E+01 -1.645249990E-03
  2.999989100E+01 -5.634599967E-03
  1.101763100E+01 -1.590780991E-02
  4.372801000E+00 -3.612581979E-02
  1.831256000E+00 -6.459927962E-02
  8.022610000E-01 -1.008321794E-01
  3.626480000E-01 -9.757613942E-02
  1.139950000E-01  2.301215886E-01
  5.123700000E-02  6.102389764E-01
  2.246800000E-02  2.849406083E-01
  7.860000000E-03  4.026899976E-03
   p   9
  1.311950400E+01  1.524940000E-03
  3.077424200E+00  8.314830000E-03
  1.098800500E+00  1.933203000E-02
  4.357784000E-01  4.934293000E-02
  1.802432000E-01  1.623554000E-01
  7.613330000E-02  3.847505400E-01
  3.254650000E-02  4.336100400E-01
  1.401820000E-02  1.287005900E-01
  4.906400000E-03 -1.018520000E-03
 
[MO]
Sym=     1a  
Ene=    -2.6424
Spin= Alpha
Occup=    1.00000
   1         0.69174289
   2         0.00576846
   3         0.00000000
   4         0.00000000
   5         0.00919567
   6         0.69174289
   7         0.00576846
   8        -0.00000000
   9        -0.00000000
  10        -0.00919567
Sym=     1a  
Ene=    -2.6424
Spin= Beta
Occup=    1.00000
   1         0.69174289
   2         0.00576846
   3         0.00000000
   4         0.00000000
   5         0.00919567
   6         0.69174289
   7         0.00576846
   8        -0.00000000
   9        -0.00000000
  10        -0.00919567
Sym=     2a  
Ene=    -2.5527
Spin= Alpha
Occup=    1.00000
   1        -0.72301969
   2        -0.01357293
   3        -0.00000000
   4         0.00000000
   5        -0.00250690
   6         0.72301969
   7         0.01357293
   8        -0.00000000
   9        -0.00000000
  10        -0.00250690
Sym=     2a  
Ene=    -2.5527
Spin= Beta
Occup=    1.00000
   1        -0.72301969
   2        -0.01357293
   3        -0.00000000
   4         0.00000000
   5        -0.00250690
   6         0.72301969
   7         0.01357293
   8        -0.00000000
   9        -0.00000000
  10        -0.00250690
Sym=     3a  
Ene=    -0.2105
Spin= Alpha
Occup=    1.00000
   1        -0.10625448
   2         0.51107773
   3         0.00000000
   4         0.00000000
   5         0.06652890
   6        -0.10625448
   7         0.51107773
   8         0.00000000
   9         0.00000000
  10        -0.06652890
Sym=     3a  
Ene=    -0.2105
Spin= Beta
Occup=    1.00000
   1        -0.10625448
   2         0.51107773
   3         0.00000000
   4         0.00000000
   5         0.06652890
   6        -0.10625448
   7         0.51107773
   8         0.00000000
   9         0.00000000
  10        -0.06652890
Sym=     4a  
Ene=     0.0032
Spin= Alpha
Occup=    0.00000
   1         0.00000000
   2        -0.00000000
   3         0.25612137
   4         0.45410018
   5         0.00000000
   6        -0.00000000
   7         0.00000000
   8         0.25612137
   9         0.45410018
  10         0.00000000
Sym=     4a  
Ene=     0.0032
Spin= Beta
Occup=    0.00000
   1         0.00000000
   2        -0.00000000
   3         0.25612137
   4         0.45410018
   5         0.00000000
   6        -0.00000000
   7         0.00000000
   8         0.25612137
   9         0.45410018
  10         0.00000000
Sym=     5a  
Ene=     0.0032
Spin= Alpha
Occup=    0.00000
   1        -0.00000000
   2         0.00000000
   3         0.45410018
   4        -0.25612137
   5        -0.00000000
   6         0.00000000
   7        -0.00000000
   8         0.45410018
   9        -0.25612137
  10        -0.00000000
Sym=     5a  
Ene=     0.0032
Spin= Beta
Occup=    0.00000
   1        -0.00000000
   2         0.00000000
   3         0.45410018
   4        -0.25612137
   5        -0.00000000
   6         0.00000000
   7        -0.00000000
   8         0.45410018
   9        -0.25612137
  10        -0.00000000
Sym=     6a  
Ene=     0.0209
Spin= Alpha
Occup=    0.00000
   1         0.03129871
   2        -0.44698397
   3         0.00000000
   4        -0.00000000
   5         0.44555151
   6        -0.03129871
   7         0.44698397
   8        -0.00000000
   9        -0.00000000
  10         0.44555151
Sym=     6a  
Ene=     0.0209
Spin= Beta
Occup=    0.00000
   1         0.03129871
   2        -0.44698397
   3         0.00000000
   4        -0.00000000
   5         0.44555151
   6        -0.03129871
   7         0.44698397
   8        -0.00000000
   9        -0.00000000
  10         0.44555151
Sym=     7a  
Ene=     0.1379
Spin= Alpha
Occup=    0.00000
   1         0.23799950
   2         0.27883412
   3        -0.00000000
   4        -0.00000000
   5        -1.25689384
   6         0.23799950
   7         0.27883412
   8         0.00000000
   9         0.00000000
  10         1.25689384
Sym=     7a  
Ene=     0.1379
Spin= Beta
Occup=    0.00000
   1         0.23799950
   2         0.27883412
   3        -0.00000000
   4        -0.00000000
   5        -1.25689384
   6         0.23799950
   7         0.27883412
   8         0.00000000
   9         0.00000000
  10         1.25689384
Sym=     8a  
Ene=     0.1708
Spin= Alpha
Occup=    0.00000
   1        -0.00000000
   2        -0.00000000
   3        -0.43667584
   4        -1.71044217
   5         0.00000000
   6        -0.00000000
   7        -0.00000000
   8         0.43667584
   9         1.71044217
  10        -0.00000000
Sym=     8a  
Ene=     0.1708
Spin= Beta
Occup=    0.00000
   1        -0.00000000
   2        -0.00000000
   3        -0.43667584
   4        -1.71044217
   5         0.00000000
   6        -0.00000000
   7        -0.00000000
   8         0.43667584
   9         1.71044217
  10        -0.00000000
Sym=     9a  
Ene=     0.1708
Spin= Alpha
Occup=    0.00000
   1        -0.00000000
   2        -0.00000000
   3        -1.71044217
   4         0.43667584
   5         0.00000000
   6        -0.00000000
   7         0.00000000
   8         1.71044217
   9        -0.43667584
  10        -0.00000000
Sym=     9a  
Ene=     0.1708
Spin= Beta
Occup=    0.00000
   1        -0.00000000
   2        -0.00000000
   3        -1.71044217
   4         0.43667584
   5         0.00000000
   6        -0.00000000
   7         0.00000000
   8         1.71044217
   9        -0.43667584
  10        -0.00000000
Sym=    10a  
Ene=     1.4933
Spin= Alpha
Occup=    0.00000
   1        -2.24540068
   2        -9.34528952
   3         0.00000000
   4         0.00000000
   5        -2.74064894
   6         2.24540068
   7         9.34528952
   8        -0.00000000
   9         0.00000000
  10        -2.74064894
Sym=    10a  
Ene=     1.4933
Spin= Beta
Occup=    0.00000
   1        -2.24540068
   2        -9.34528952
   3         0.00000000
   4         0.00000000
   5        -2.74064894
   6         2.24540068
   7         9.34528952
   8        -0.00000000
   9         0.00000000
  10        -2.74064894
