[Molden Format]
[N_Atoms]
                     2
[Atoms] (AU)
LI1         1      3           0.00000000      0.00000000      0.00000000
LI2         2      3           0.00000000      0.00000000      2.45664396
[Charge] (Mulliken)
   1.00360525504784     
  0.996394744952153     
[GTO] (AU)
   1
   s  14
  9.497934400E+03  9.668999974E-05
  1.416811200E+03  6.087099984E-04
  3.214599400E+02  3.101519992E-03
  9.112416300E+01  1.266904997E-02
  2.999989100E+01  4.248012989E-02
  1.101763100E+01  1.150183297E-01
  4.372801000E+00  2.398650094E-01
  1.831256000E+00  3.584300090E-01
  8.022610000E-01  3.048527792E-01
  3.626480000E-01  8.824261976E-02
  1.139950000E-01 -8.445899977E-04
  5.123700000E-02 -7.943959979E-03
  2.246800000E-02 -3.764419990E-03
  7.860000000E-03 -8.868999976E-05
   s  14
  9.497934400E+03 -1.244999993E-05
  1.416811200E+03 -7.838999954E-05
  3.214599400E+02 -4.007099976E-04
  9.112416300E+01 -1.645249990E-03
  2.999989100E+01 -5.634599967E-03
  1.101763100E+01 -1.590780991E-02
  4.372801000E+00 -3.612581979E-02
  1.831256000E+00 -6.459927962E-02
  8.022610000E-01 -1.008321794E-01
  3.626480000E-01 -9.757613942E-02
  1.139950000E-01  2.301215886E-01
  5.123700000E-02  6.102389764E-01
  2.246800000E-02  2.849406083E-01
  7.860000000E-03  4.026899976E-03
   p   9
  1.311950400E+01  1.524940000E-03
  3.077424200E+00  8.314830000E-03
  1.098800500E+00  1.933203000E-02
  4.357784000E-01  4.934293000E-02
  1.802432000E-01  1.623554000E-01
  7.613330000E-02  3.847505400E-01
  3.254650000E-02  4.336100400E-01
  1.401820000E-02  1.287005900E-01
  4.906400000E-03 -1.018520000E-03
 
   2
   s  14
  9.497934400E+03  9.668999974E-05
  1.416811200E+03  6.087099984E-04
  3.214599400E+02  3.101519992E-03
  9.112416300E+01  1.266904997E-02
  2.999989100E+01  4.248012989E-02
  1.101763100E+01  1.150183297E-01
  4.372801000E+00  2.398650094E-01
  1.831256000E+00  3.584300090E-01
  8.022610000E-01  3.048527792E-01
  3.626480000E-01  8.824261976E-02
  1.139950000E-01 -8.445899977E-04
  5.123700000E-02 -7.943959979E-03
  2.246800000E-02 -3.764419990E-03
  7.860000000E-03 -8.868999976E-05
   s  14
  9.497934400E+03 -1.244999993E-05
  1.416811200E+03 -7.838999954E-05
  3.214599400E+02 -4.007099976E-04
  9.112416300E+01 -1.645249990E-03
  2.999989100E+01 -5.634599967E-03
  1.101763100E+01 -1.590780991E-02
  4.372801000E+00 -3.612581979E-02
  1.831256000E+00 -6.459927962E-02
  8.022610000E-01 -1.008321794E-01
  3.626480000E-01 -9.757613942E-02
  1.139950000E-01  2.301215886E-01
  5.123700000E-02  6.102389764E-01
  2.246800000E-02  2.849406083E-01
  7.860000000E-03  4.026899976E-03
   p   9
  1.311950400E+01  1.524940000E-03
  3.077424200E+00  8.314830000E-03
  1.098800500E+00  1.933203000E-02
  4.357784000E-01  4.934293000E-02
  1.802432000E-01  1.623554000E-01
  7.613330000E-02  3.847505400E-01
  3.254650000E-02  4.336100400E-01
  1.401820000E-02  1.287005900E-01
  4.906400000E-03 -1.018520000E-03
 
[MO]
Sym=     1a  
Ene=    -3.2040
Spin= Alpha
Occup=    2.00000
   1         0.03878404
   2        -0.01517348
   3        -0.00000000
   4         0.00000000
   5         0.00259935
   6         0.99940785
   7         0.02262125
   8         0.00000000
   9         0.00000000
  10        -0.01286680
Sym=     2a  
Ene=    -3.1931
Spin= Alpha
Occup=    1.99972
   1        -1.00125795
   2        -0.02008583
   3         0.00000000
   4        -0.00000000
   5        -0.01152203
   6         0.08740354
   7         0.01325201
   8        -0.00000000
   9        -0.00000000
  10         0.00295378
Sym=     3a  
Ene=    -0.0028
Spin= Alpha
Occup=    0.00028
   1        -1.96164194
   2        -7.40331621
   3        -0.00000000
   4         0.00000000
   5        -1.89833277
   6         1.71625167
   7         7.64291166
   8        -0.00000000
   9        -0.00000000
  10        -2.78176987
Sym=     4a  
Ene=    -0.3689
Spin= Alpha
Occup=    0.00000
   1         0.00000000
   2         0.00000000
   3         0.24008489
   4         0.46306510
   5         0.00000000
   6        -0.00000000
   7         0.00000000
   8         0.23985106
   9         0.46261410
  10         0.00000000
Sym=     5a  
Ene=    -0.3689
Spin= Alpha
Occup=    0.00000
   1        -0.00000000
   2        -0.00000000
   3        -0.46306510
   4         0.24008489
   5        -0.00000000
   6         0.00000000
   7        -0.00000000
   8        -0.46261410
   9         0.23985106
  10        -0.00000000
Sym=     6a  
Ene=    -0.3655
Spin= Alpha
Occup=    0.00000
   1         0.11629860
   2         0.56287014
   3        -0.00000000
   4         0.00000000
   5         0.28623153
   6        -0.16833483
   7         0.21182516
   8        -0.00000000
   9         0.00000000
  10         0.65656368
Sym=     7a  
Ene=    -0.2973
Spin= Alpha
Occup=    0.00000
   1        -0.24789774
   2        -1.19365262
   3         0.00000000
   4         0.00000000
   5         0.98387234
   6        -0.02040604
   7         0.37909071
   8         0.00000000
   9        -0.00000000
  10        -0.81576689
Sym=     8a  
Ene=    -0.2280
Spin= Alpha
Occup=    0.00000
   1         0.00000000
   2        -0.00000000
   3         0.45142217
   4         1.70653195
   5        -0.00000000
   6         0.00000000
   7         0.00000000
   8        -0.45146054
   9        -1.70667700
  10         0.00000000
Sym=     9a  
Ene=    -0.2280
Spin= Alpha
Occup=    0.00000
   1        -0.00000000
   2        -0.00000000
   3        -1.70653195
   4         0.45142217
   5        -0.00000000
   6         0.00000000
   7         0.00000000
   8         1.70667700
   9        -0.45146054
  10         0.00000000
Sym=    10a  
Ene=     0.0955
Spin= Alpha
Occup=    0.00000
   1        -1.08856046
   2        -5.59660998
   3         0.00000000
   4        -0.00000000
   5        -2.15411971
   6         1.45988872
   7         5.41017851
   8         0.00000000
   9         0.00000000
  10        -0.67749720
