[Molden Format]
[N_Atoms]
                     2
[Atoms] (AU)
LI1         1      3           0.00000000      0.00000000      0.00000000
LI2         2      3           0.00000000      0.00000000      2.45664396
[Charge] (Mulliken)
  0.000000000000000E+000
  0.000000000000000E+000
[GTO] (AU)
   1
   s  14
  9.497934400E+03  9.668999974E-05
  1.416811200E+03  6.087099984E-04
  3.214599400E+02  3.101519992E-03
  9.112416300E+01  1.266904997E-02
  2.999989100E+01  4.248012989E-02
  1.101763100E+01  1.150183297E-01
  4.372801000E+00  2.398650094E-01
  1.831256000E+00  3.584300090E-01
  8.022610000E-01  3.048527792E-01
  3.626480000E-01  8.824261976E-02
  1.139950000E-01 -8.445899977E-04
  5.123700000E-02 -7.943959979E-03
  2.246800000E-02 -3.764419990E-03
  7.860000000E-03 -8.868999976E-05
   s  14
  9.497934400E+03 -1.244999993E-05
  1.416811200E+03 -7.838999954E-05
  3.214599400E+02 -4.007099976E-04
  9.112416300E+01 -1.645249990E-03
  2.999989100E+01 -5.634599967E-03
  1.101763100E+01 -1.590780991E-02
  4.372801000E+00 -3.612581979E-02
  1.831256000E+00 -6.459927962E-02
  8.022610000E-01 -1.008321794E-01
  3.626480000E-01 -9.757613942E-02
  1.139950000E-01  2.301215886E-01
  5.123700000E-02  6.102389764E-01
  2.246800000E-02  2.849406083E-01
  7.860000000E-03  4.026899976E-03
   p   9
  1.311950400E+01  1.524940000E-03
  3.077424200E+00  8.314830000E-03
  1.098800500E+00  1.933203000E-02
  4.357784000E-01  4.934293000E-02
  1.802432000E-01  1.623554000E-01
  7.613330000E-02  3.847505400E-01
  3.254650000E-02  4.336100400E-01
  1.401820000E-02  1.287005900E-01
  4.906400000E-03 -1.018520000E-03
 
   2
   s  14
  9.497934400E+03  9.668999974E-05
  1.416811200E+03  6.087099984E-04
  3.214599400E+02  3.101519992E-03
  9.112416300E+01  1.266904997E-02
  2.999989100E+01  4.248012989E-02
  1.101763100E+01  1.150183297E-01
  4.372801000E+00  2.398650094E-01
  1.831256000E+00  3.584300090E-01
  8.022610000E-01  3.048527792E-01
  3.626480000E-01  8.824261976E-02
  1.139950000E-01 -8.445899977E-04
  5.123700000E-02 -7.943959979E-03
  2.246800000E-02 -3.764419990E-03
  7.860000000E-03 -8.868999976E-05
   s  14
  9.497934400E+03 -1.244999993E-05
  1.416811200E+03 -7.838999954E-05
  3.214599400E+02 -4.007099976E-04
  9.112416300E+01 -1.645249990E-03
  2.999989100E+01 -5.634599967E-03
  1.101763100E+01 -1.590780991E-02
  4.372801000E+00 -3.612581979E-02
  1.831256000E+00 -6.459927962E-02
  8.022610000E-01 -1.008321794E-01
  3.626480000E-01 -9.757613942E-02
  1.139950000E-01  2.301215886E-01
  5.123700000E-02  6.102389764E-01
  2.246800000E-02  2.849406083E-01
  7.860000000E-03  4.026899976E-03
   p   9
  1.311950400E+01  1.524940000E-03
  3.077424200E+00  8.314830000E-03
  1.098800500E+00  1.933203000E-02
  4.357784000E-01  4.934293000E-02
  1.802432000E-01  1.623554000E-01
  7.613330000E-02  3.847505400E-01
  3.254650000E-02  4.336100400E-01
  1.401820000E-02  1.287005900E-01
  4.906400000E-03 -1.018520000E-03
 
[MO]
Sym=     1a  
Ene=    -2.5724
Spin= Alpha
Occup=    2.00000
   1         0.69304327
   2         0.01013434
   3        -0.00000000
   4         0.00000000
   5        -0.00000000
   6         0.69304327
   7         0.01013434
   8         0.00000000
   9        -0.00000000
  10        -0.00000000
Sym=     2a  
Ene=    -2.3947
Spin= Alpha
Occup=    2.00000
   1        -0.71842222
   2         0.00983026
   3        -0.00000000
   4        -0.00000000
   5        -0.00000000
   6         0.71842222
   7        -0.00983026
   8         0.00000000
   9        -0.00000000
  10        -0.00000000
Sym=     3a  
Ene=    -0.3552
Spin= Alpha
Occup=    2.00000
   1        -0.09686523
   2         0.52505896
   3        -0.00000000
   4        -0.00000000
   5         0.00000000
   6        -0.09686523
   7         0.52505896
   8         0.00000000
   9         0.00000000
  10         0.00000000
Sym=     4a  
Ene=    -0.0260
Spin= Alpha
Occup=    0.00000
   1        -0.33502925
   2        -1.94076473
   3        -0.00000000
   4         0.00000000
   5         0.00000000
   6         0.33502925
   7         1.94076473
   8         0.00000000
   9        -0.00000000
  10         0.00000000
Sym=     5a  
Ene=     3.1409
Spin= Alpha
Occup=    0.00000
   1         0.00000000
   2         0.00000000
   3         0.00000000
   4         0.52134933
   5         0.00000000
   6        -0.00000000
   7        -0.00000000
   8        -0.00000000
   9         0.52134933
  10        -0.00000000
Sym=     6a  
Ene=     3.1409
Spin= Alpha
Occup=    0.00000
   1         0.00000000
   2         0.00000000
   3         0.52134933
   4        -0.00000000
   5        -0.00000000
   6        -0.00000000
   7        -0.00000000
   8         0.52134933
   9         0.00000000
  10         0.00000000
Sym=     7a  
Ene=     3.3257
Spin= Alpha
Occup=    0.00000
   1        -0.00000000
   2        -0.00000000
   3        -0.00000000
   4        -1.76530400
   5         0.00000000
   6        -0.00000000
   7        -0.00000000
   8         0.00000000
   9         1.76530400
  10        -0.00000000
Sym=     8a  
Ene=     3.3257
Spin= Alpha
Occup=    0.00000
   1        -0.00000000
   2        -0.00000000
   3        -1.76530400
   4         0.00000000
   5        -0.00000000
   6         0.00000000
   7         0.00000000
   8         1.76530400
   9        -0.00000000
  10        -0.00000000
Sym=     9a  
Ene=     3.5593
Spin= Alpha
Occup=    0.00000
   1         0.23822291
   2         0.25138134
   3         0.00000000
   4        -0.00000000
   5        -1.25868693
   6         0.23822291
   7         0.25138134
   8        -0.00000000
   9         0.00000000
  10         1.25868693
Sym=    10a  
Ene=     6.7112
Spin= Alpha
Occup=    0.00000
   1        -2.22197800
   2        -9.15247238
   3         0.00000000
   4        -0.00000000
   5        -2.77663088
   6         2.22197800
   7         9.15247238
   8        -0.00000000
   9         0.00000000
  10        -2.77663088
