   This run of MOLCAS is using the pymolcas driver

                             OPE
                             OPE          NMOL  CASOP  ENMOLC A   SO
                 OPE        NMOLC        AS  OP EN  MO LC     AS  OP
                OPENM       OL CA        SO  PE NM  OL CA     SOP EN
                OP EN      MO   LC       AS  OP ENMOL  CASO   PENMOL
                OP  EN     MO   LC       AS  OP EN     MO     LC ASO
               OP   E  NMOL  C  AS       OP  EN MO     LC     AS  OP
               OP  E   NMO   LC AS        OPEN  MO     LCASOP EN   M
               O  PEN   MO  LCA  SO
            OPE   NMO   L   CAS    OP
        OPENMOL  CASOP     ENMOL   CASOPE
     OPENMOLCA   SOPENMOLCASOPEN   MOLCASOPE
    OPENMOLCAS   OP           EN   MOL    CAS
    OPENMOLCAS       OP  ENM        O     LCA
    OPENMOLCAS    OPEN  MOLCASO     P  E  NMO
    OPENMOLCAS     OP               E  N  MOL
    OPENMOLCA   SO           PENM   O  L  CAS    OPEN    MO    LCAS
    OPENMOLCA   SOP           ENM   O  L  CAS   OP  EN  MOLC  AS   O
    OPENMOLCA   SOPE           NM      O  LCA   S      OP  EN MO
    OPENMOLC                AS         O  PEN   M      OL  CA  SOPE
    OPENMO        LCASOPE  NMOL        C  ASO   P      ENMOLC     AS
    OPE     NMO      LCA  SO     P     E   NM   OL  CA SO  PE N   MO
          OPENMOLCA            SOPE   NMO        LCAS  O    P  ENMO
     OPENMOLCASOPENMOLCASOPENMOLCASOPENMOLCA
        OPENMOLCASOPENMOLCASOPENMOLCASOPE
            OPENMOLCASOPENMOLCASOPENM
               OPENMOLCASOPENMOLCA        version: 44d3b5344-dirty
                   OPENMOLCASO
                       OPE                tag:

 OpenMolcas is free software; you can redistribute it and/or modify it
 under the terms of the GNU Lesser General Public License version 2.1.
 OpenMolcas is distributed in the hope that it will be useful, but it
 is provided "as is" and without any express or implied warranties.
 For more details see the full text of the license in the file
 LICENSE or in <http://www.gnu.org/licenses/>.

                 Copyright (C) The OpenMolcas Authors
           For the author list and the recommended citation,
                   consult the file CONTRIBUTORS.md

           *************************************************
           * pymolcas version py2.28                       *
           *   build c4a6d18ded8cb6cad61d2372a9abd97c      *
           *   (after the EMIL interpreter by V. Veryazov) *
           *************************************************

configuration info
------------------
C Compiler ID: Intel
C flags: -std=gnu99
Fortran Compiler ID: Intel
Fortran flags: -fpp -i8 -r8 -heap-arrays
Definitions: _MOLCAS_;_I8_;_LINUX_
Parallel: OFF (GA=OFF)


   ---------------------------------------------------------------------------------
  |
  |              Project: O3_180.50
  |       Submitted from: /home/grierjones/DDCASPT2/ozone/basis_sets/MB/O3/O3_180.50
  |         Scratch area: /tmp/O3_180.50
  |      Save outputs to: /home/grierjones/DDCASPT2/ozone/basis_sets/MB/O3/O3_180.50
  |               Molcas: /home/grierjones/Test/build
  |
  | Scratch area is empty
  |
  |       MOLCAS_DRIVER = /usr/local/pymolcas
  | MOLCAS_KEEP_WORKDIR = NO
  |  MOLCAS_NEW_WORKDIR = YES
  |       MOLCAS_NPROCS = 1
  |       MOLCAS_SOURCE = /home/grierjones/Test/build
  |    MOLCAS_STRUCTURE = 0
  |
   ---------------------------------------------------------------------------------

++ ---------   Input file   ---------

&GATEWAY
coord=O3_180.50.xyz
Basis = ANO-RCC-MB
Group = nosymm
Expert
End of Input

&SEWARD
End of Input

&MOTRA
Frozen=0

>>> COPY $WorkDir/GMJ_one_int_indx.csv $CurrDir/O3_180.50.GMJ_one_int_indx.csv

>>> COPY $WorkDir/GMJ_one_int.csv $CurrDir/O3_180.50.GMJ_one_int.csv

>>> COPY $WorkDir/GMJ_two_int_indx.csv $CurrDir/O3_180.50.GMJ_two_int_indx.csv

>>> COPY $WorkDir/GMJ_two_int.csv $CurrDir/O3_180.50.GMJ_two_int.csv

&SCF

>>> COPY $WorkDir/O3_180.50.scf.h5 $CurrDir/

&RASSCF
Title= RASSCF
FileOrb
/home/grierjones/DDCASPT2/ozone/basis_sets/MB/O3/O3_180.00/O3_180.00.RasOrb

NACTEL
4 0 0
Inactive
10
RAS2
3
Symmetry
1
Spin
1
orblisting
all
ITERation
200 100
CIMX
200
SDAV
500
PRWF
0
PRSD

>>> COPY $WorkDir/O3_180.50.rasscf.h5 $CurrDir/

>>> COPY $WorkDir/GMJ_Fock_MO.csv $CurrDir/O3_180.50.GMJ_Fock_MO.csv

&CASPT2
Frozen
0
Imaginary Shift
0.0

>>> FOREACH i IN (B,E,F,G,H)

  >>> FOREACH j IN (P,M)

    >>> IF (-FILE GMJ_e2_${i}_${j}.csv)

      >>> COPY $WorkDir/GMJ_RHS_${i}_${j}.csv $CurrDir/GMJ_RHS_${i}_${j}.csv

      >>> COPY $WorkDir/GMJ_IVECW_${i}_${j}.csv $CurrDir/GMJ_IVECW_${i}_${j}.csv

      >>> COPY $WorkDir/GMJ_e2_${i}_${j}.csv $CurrDir/GMJ_e2_${i}_${j}.csv

    >>> END IF

  >>> END FOREACH

>>> END FOREACH

>>> FOREACH i IN (A,C,D)

  >>> IF (-FILE GMJ_e2_$i.csv)

    >>> COPY $WorkDir/GMJ_RHS_$i.csv $CurrDir/GMJ_RHS_$i.csv

    >>> COPY $WorkDir/GMJ_IVECW_$i.csv $CurrDir/GMJ_IVECW_$i.csv

    >>> COPY $WorkDir/GMJ_e2_$i.csv $CurrDir/GMJ_e2_$i.csv

  >>> END IF

>>> END FOREACH

-- ----------------------------------

--- Start Module: gateway at Sat Nov  2 12:44:06 2024 ---
 
()()()()()()()()()()()()()()()()()()()()()()()()()()()()()()()()()()()()()()()()()()()()()()()()()()

                                              &GATEWAY

                                   only a single process is used
                       available to each process: 2.0 GB of memory, 1 thread?
()()()()()()()()()()()()()()()()()()()()()()()()()()()()()()()()()()()()()()()()()()()()()()()()()()
 
 ###############################################################################
 ###############################################################################
 ###                                                                         ###
 ###                                                                         ###
 ###                                                                         ###
 ###    WARNING: EXPERT option is ON!                                        ###
 ###                                                                         ###
 ###                                                                         ###
 ###############################################################################
 ###############################################################################
 
++    Symmetry information:
      ---------------------
 
                    Character Table for C1 
 
                             E  
                    a        1  x, y, xy, Rz, z, xz, Ry, yz, Rx, I
--
 
 
++    Basis set information:
      ----------------------
 
 
      Basis set label: O.ANO-RCC...2S1P.
 
      Electronic valence basis set:
      ------------------
      Associated Effective Charge   8.000000 au
      Associated Actual Charge      8.000000 au
      Nuclear Model: Point charge
 
      Shell  nPrim  nBasis  Cartesian Spherical Contaminant
         s      14       2        X                  
         p       9       1        X                  
--
 
 
++    Molecular structure info:
      -------------------------
 
                    ************************************************ 
                    **** Cartesian Coordinates / Bohr, Angstrom **** 
                    ************************************************ 
 
     Center  Label                x              y              z                     x              y              z
        1      O1              -0.010537       2.415047       0.000000             -0.005576       1.277988       0.000000
        2      O2               0.000000       0.000000       0.000000              0.000000       0.000000       0.000000
        3      O3              -0.010537      -2.415047       0.000000             -0.005576      -1.277988       0.000000
 
                    *************************************** 
                    *    InterNuclear Distances / Bohr    * 
                    *************************************** 
 
               1 O1            2 O2            3 O3    
    1 O1       0.000000
    2 O2       2.415070        0.000000
    3 O3       4.830095        2.415070        0.000000
 
                    ******************************************* 
                    *    InterNuclear Distances / Angstrom    * 
                    ******************************************* 
 
               1 O1            2 O2            3 O3    
    1 O1       0.000000
    2 O2       1.278000        0.000000
    3 O3       2.555976        1.278000        0.000000
 
                    ************************************** 
                    *    Valence Bond Angles / Degree    * 
                    ************************************** 
                          Atom centers                 Phi
                      1 O1       2 O2       3 O3       179.50
--
 
 
            Nuclear Potential Energy             66.25078560 au
 
 ###############################################################################
 ###############################################################################
 ###                                                                         ###
 ###                                                                         ###
 ###    There were warnings during the execution                             ###
 ###    Please, check the output with care!                                  ###
 ###                                                                         ###
 ###                                                                         ###
 ###############################################################################
 ###############################################################################
--- Stop Module: gateway at Sat Nov  2 12:44:06 2024 /rc=_RC_ALL_IS_WELL_ ---
*** files: xmldump
    saved to directory /home/grierjones/DDCASPT2/ozone/basis_sets/MB/O3/O3_180.50

--- Start Module: seward at Sat Nov  2 12:44:06 2024 ---
 
()()()()()()()()()()()()()()()()()()()()()()()()()()()()()()()()()()()()()()()()()()()()()()()()()()

                                              &SEWARD

                                   only a single process is used
                       available to each process: 2.0 GB of memory, 1 thread?
()()()()()()()()()()()()()()()()()()()()()()()()()()()()()()()()()()()()()()()()()()()()()()()()()()
 
 ###############################################################################
 ###############################################################################
 ###                                                                         ###
 ###                                                                         ###
 ###                                                                         ###
 ###    WARNING: EXPERT option is ON!                                        ###
 ###                                                                         ###
 ###                                                                         ###
 ###############################################################################
 ###############################################################################
               SEWARD will generate:
                  Multipole Moment integrals up to order  2
                  Kinetic Energy integrals
                  Nuclear Attraction integrals (point charge)
                  One-Electron Hamiltonian integrals
                  Velocity integrals
                  Relativistic Douglas-Kroll-Hess integrals:
                    - Parametrization         : EXP
                    - DKH order of Hamiltonian: 2
                    - DKH order of Properties : 0
                         - multipole moment operators
                         - electric potential operators
                         - contact operators
                  Atomic mean-field integrals
                  Two-Electron Repulsion integrals
 
                   Integrals are discarded if absolute value <: 0.10E-13
                   Integral cutoff threshold is set to       <: 0.10E-15
 
            Nuclear Potential Energy             66.25078560 au
 
 
      Basis set specifications :
      Symmetry species         a  
      Basis functions           15
 
 
  Input file to MOLDEN was generated!
 
 ###############################################################################
 ###############################################################################
 ###                                                                         ###
 ###                                                                         ###
 ###    There were warnings during the execution                             ###
 ###    Please, check the output with care!                                  ###
 ###                                                                         ###
 ###                                                                         ###
 ###############################################################################
 ###############################################################################
--- Stop Module: seward at Sat Nov  2 12:44:06 2024 /rc=_RC_ALL_IS_WELL_ ---
*** files: O3_180.50.GssOrb O3_180.50.guessorb.h5 O3_180.50.guessorb.molden xmldump
    saved to directory /home/grierjones/DDCASPT2/ozone/basis_sets/MB/O3/O3_180.50

*** symbolic link created: INPORB -> O3_180.50.GssOrb
--- Start Module: motra at Sat Nov  2 12:44:06 2024 ---
 
()()()()()()()()()()()()()()()()()()()()()()()()()()()()()()()()()()()()()()()()()()()()()()()()()()

                                               &MOTRA

                                   only a single process is used
                       available to each process: 2.0 GB of memory, 1 thread?
()()()()()()()()()()()()()()()()()()()()()()()()()()()()()()()()()()()()()()()()()()()()()()()()()()
 
 
      *** WARNING: Default frozen orbitals is overwritten by user input.
      *** Default values:   3
 
      Header of the integral files:
      
       Integrals generated by seward 4.2.0  , Sat Nov  2 12:44:06 2024
 
 
      Header of MO coefficients source file:
      *Guess orbitals                                                                 
 
 
      Cartesian coordinates in Angstrom:
      -----------------------------------------------------
      No.  Label        X            Y            Z        
      -----------------------------------------------------
       1   O1        -0.00557600   1.27798800   0.00000000
       2   O2         0.00000000   0.00000000   0.00000000
       3   O3        -0.00557600  -1.27798800   0.00000000
      -----------------------------------------------------
      Nuclear repulsion energy =   66.25078560
 
      Orbital specifications:
      -----------------------
 
      Symmetry species:              1
      Number of basis functions:    15
      Frozen orbitals:               0
      Deleted orbitals:              0
      Number of orbitals used:      15

       SYMMETRY  BASIS FUNCTIONS       ORBITALS      INTEGRALS   CPU(SEC)  I/O(SEC)
 
        1 1 1 1   15  15  15  15    15  15  15  15        7260       0.00      0.00

       TOTAL CPU TIME(SEC)    0.05TOTAL I/O TIME(SEC)    0.08
 
--- Stop Module: motra at Sat Nov  2 12:44:07 2024 /rc=_RC_ALL_IS_WELL_ ---
*** files: xmldump
    saved to directory /home/grierjones/DDCASPT2/ozone/basis_sets/MB/O3/O3_180.50

>>> COPY /tmp/O3_180.50/GMJ_one_int_indx.csv /home/grierjones/DDCASPT2/ozone/basis_sets/MB/O3/O3_180.50/O3_180.50.GMJ_one_int_indx.csv

>>> COPY /tmp/O3_180.50/GMJ_one_int.csv /home/grierjones/DDCASPT2/ozone/basis_sets/MB/O3/O3_180.50/O3_180.50.GMJ_one_int.csv

>>> COPY /tmp/O3_180.50/GMJ_two_int_indx.csv /home/grierjones/DDCASPT2/ozone/basis_sets/MB/O3/O3_180.50/O3_180.50.GMJ_two_int_indx.csv

>>> COPY /tmp/O3_180.50/GMJ_two_int.csv /home/grierjones/DDCASPT2/ozone/basis_sets/MB/O3/O3_180.50/O3_180.50.GMJ_two_int.csv

*** symbolic link created: INPORB -> O3_180.50.GssOrb
--- Start Module: scf at Sat Nov  2 12:44:07 2024 ---
 
()()()()()()()()()()()()()()()()()()()()()()()()()()()()()()()()()()()()()()()()()()()()()()()()()()

                                                &SCF

                                   only a single process is used
                       available to each process: 2.0 GB of memory, 1 thread?
()()()()()()()()()()()()()()()()()()()()()()()()()()()()()()()()()()()()()()()()()()()()()()()()()()
 
++    Input section:
      --------------
 
      Header of the integral files:
      
       Integrals generated by seward 4.2.0  , Sat Nov  2 12:44:06 2024
 
 
      Cartesian coordinates in Angstrom:
      -----------------------------------------------------
      No.  Label        X            Y            Z        
      -----------------------------------------------------
       1   O1        -0.00557600   1.27798800   0.00000000
       2   O2         0.00000000   0.00000000   0.00000000
       3   O3        -0.00557600  -1.27798800   0.00000000
      -----------------------------------------------------
      Nuclear repulsion energy =   66.25078560
--
 
++    Orbital specifications:
      -----------------------
 
      Symmetry species               1
                                     a
      Frozen orbitals                0
      Aufbau                        12
      Start temperature = 0.500
      End temperature   = 0.010
      Temperature Factor= 0.460
      Deleted orbitals               0
      Total number of orbitals      15
      Number of basis functions     15
--
 
      Molecular charge                           0.000
 
++    Optimization specifications:
      ----------------------------
 
      SCF Algorithm: Conventional
      Minimized density differences are used
      Number of density matrices in core                5
      Maximum number of NDDO SCF iterations           400
      Maximum number of HF SCF iterations             400
      Threshold for SCF energy change            0.10E-08
      Threshold for density matrix               0.10E-03
      Threshold for Fock matrix                  0.15E-03
      Threshold for linear dependence            0.10E-08
      Threshold at which DIIS is turned on       0.15E+00
      Threshold at which QNR/C2DIIS is turned on 0.75E-01
      Threshold for Norm(delta) (QNR/C2DIIS)     0.20E-04
      DIIS extrapolation of the SCF procedure
      All orbitals punched on: SCFORB
--
 
      Input vectors read from INPORB
      Orbital file label: *Guess orbitals
 
 
++ Convergence information
                                   SCF        iterations: Energy and convergence statistics
 
Iter     Tot. SCF        One-elec.       Two-elec.     Energy      Max Dij or  Max Fij      DNorm      TNorm      AccCon     Time
         Energy          Energy          Energy        Change      Delta Norm                                                in Sec.
   1  -221.452387225  -440.156050835   152.452878006   0.00E+00    0.68E-01*   0.13E+00*    0.77E+01   0.50E+02   None         0.
   2  -222.904848584  -439.299492584   150.143858395  -0.15E+01*   0.57E-01*   0.44E-01*    0.30E+01   0.50E+02   EDIIS        0.
   3  -223.678628377  -438.927691277   148.998277296  -0.77E+00*   0.39E-01*   0.26E-01*    0.15E+01   0.49E+02   EDIIS        0.
   4  -223.949897110  -438.334275775   148.133593060  -0.27E+00*   0.83E-01*   0.57E-01*    0.29E+00   0.49E+02   EDIIS        0.
   5  -223.960185298  -438.681323437   148.470352534  -0.10E-01*   0.57E-01*   0.29E-01*    0.25E+00   0.49E+02   EDIIS        0.
   6  -223.961313763  -438.402834731   148.190735363  -0.11E-02*   0.20E-01*   0.16E-01*    0.98E-01   0.49E+02   EDIIS        0.
   7  -223.966991172  -438.570921923   148.353145146  -0.57E-02*   0.21E-01*   0.10E-01*    0.33E+00   0.49E+02   EDIIS        0.
   8  -224.182802902  -438.491107362   148.057518855  -0.22E+00*   0.38E-01*   0.25E-01*    0.56E-01   0.49E+02   EDIIS        0.
   9  -224.183816240  -438.469830293   148.035228448  -0.10E-02*   0.15E-01*   0.73E-02*    0.55E-01   0.49E+02   EDIIS        0.
 
       Fermi aufbau procedure completed!
      nOcc=   12
 
  10  -224.184155665  -438.486723909   148.051782639  -0.34E-03*   0.12E-01*   0.44E-02*    0.22E-02   0.49E+02   EDIIS        0.
  11  -224.184270124  -438.482339860   148.047284131  -0.11E-03*   0.52E-02*   0.25E-02*    0.15E-02   0.49E+02   EDIIS        0.
  12  -224.184308751  -438.487526034   148.052431678  -0.39E-04*   0.40E-02*   0.14E-02*    0.15E-03   0.49E+02   EDIIS        0.
  13  -224.184321800  -438.486552768   148.051445363  -0.13E-04*   0.18E-02*   0.82E-03*    0.73E-04   0.49E+02   EDIIS        0.
  14  -224.184326210  -438.488104960   148.052993145  -0.44E-05*   0.82E-03*   0.10E-02*    0.77E-04   0.49E+02   c2DIIS       0.
  15  -224.184328382  -438.487675460   148.052561474  -0.22E-05*   0.18E-03*   0.16E-03*    0.39E-04   0.49E+02   QNRc2DIIS    0.
  16  -224.184328438  -438.488875535   148.053761492  -0.56E-07*   0.84E-04*   0.87E-04     0.50E-01   0.49E+02   QNRc2DIIS    0.
  17  -224.184328458  -438.488553368   148.053439305  -0.20E-07*   0.81E-04*   0.27E-04     0.44E-02   0.49E+02   QNRc2DIIS    0.
  18  -224.184328463  -438.488531829   148.053417761  -0.48E-08*   0.69E-05    0.12E-05     0.31E-01   0.49E+02   QNRc2DIIS    0.
  19  -224.184328463  -438.488531512   148.053417443  -0.20E-10    0.10E-06    0.46E-07     0.12E-02   0.49E+02   QNRc2DIIS    0.
 
       Convergence after 19 Macro Iterations
--
 
 *****************************************************************************************************************************
 *                                                                                                                           *
 *                                             SCF/KS-DFT Program, Final results                                             *
 *                                                                                                                           *
 *                                                                                                                           *
 *                                                                                                                           *
 *                                                       Final Results                                                       *
 *                                                                                                                           *
 *****************************************************************************************************************************
 
::    Total SCF energy                               -224.1843284632
      One-electron energy                            -438.4885315115
      Two-electron energy                             148.0534174435
      Nuclear repulsion energy                         66.2507856048
      Kinetic energy (interpolated)                   224.7831706552
      Virial theorem                                    0.9973359118
      Total spin, S(S+1)                                0.0000000000
      Total spin, S                                     0.0000000000
      Max non-diagonal density matrix element           0.0000001430
      Max non-diagonal Fock matrix element              0.0000000270
 
 
      All orbitals with orbital energies smaller than  E(LUMO)+0.5 are printed
 
++    Molecular orbitals:
      -------------------
 
      Title: SCF orbitals

      Molecular orbitals for symmetry species 1: a  
 
          Orbital            1         2         3         4         5         6         7         8         9        10    
          Energy          -20.9877  -20.8142  -20.8142   -1.7461   -1.5117   -1.1003   -0.8785   -0.8021   -0.8010   -0.6620
          Occ. No.          2.0000    2.0000    2.0000    2.0000    2.0000    2.0000    2.0000    2.0000    2.0000    2.0000
 
        1 O1     1s         0.0012   -0.7071    0.7071   -0.0151    0.0167    0.0141    0.0002   -0.0000   -0.0284   -0.0002
        2 O1     2s        -0.0003   -0.0002    0.0000    0.3192   -0.5312    0.6616    0.0028   -0.0000   -0.4692   -0.0023
        3 O1     2px        0.0000   -0.0000    0.0000    0.0005   -0.0004   -0.0011    0.3055   -0.0000    0.0052   -0.7159
        4 O1     2py        0.0000    0.0013   -0.0011   -0.1051    0.1046    0.1602    0.0030   -0.0000   -0.4170   -0.0055
        5 O1     2pz        0.0000   -0.0000   -0.0000    0.0000   -0.0000   -0.0000    0.0000    0.3935    0.0000   -0.0000
        6 O2     1s         1.0000    0.0000   -0.0020   -0.0241   -0.0000   -0.0136    0.0001   -0.0000   -0.0000    0.0000
        7 O2     2s         0.0002    0.0000   -0.0010    0.6592    0.0000   -0.6167    0.0009   -0.0000   -0.0000    0.0000
        8 O2     2px       -0.0000   -0.0000    0.0000   -0.0017   -0.0000   -0.0021    0.7797   -0.0000   -0.0000    0.0000
        9 O2     2py        0.0000    0.0007    0.0000    0.0000   -0.3621   -0.0000   -0.0000    0.0000    0.6035    0.0035
       10 O2     2pz       -0.0000    0.0000   -0.0000   -0.0000    0.0000   -0.0000    0.0000    0.6769   -0.0000    0.0000
       11 O3     1s         0.0012    0.7071    0.7071   -0.0151   -0.0167    0.0141    0.0002   -0.0000    0.0284    0.0002
       12 O3     2s        -0.0003    0.0002    0.0000    0.3192    0.5312    0.6616    0.0028   -0.0000    0.4692    0.0023
       13 O3     2px        0.0000    0.0000    0.0000    0.0005    0.0004   -0.0011    0.3055   -0.0000   -0.0052    0.7159
       14 O3     2py       -0.0000    0.0013    0.0011    0.1051    0.1046   -0.1602   -0.0030    0.0000   -0.4170   -0.0055
       15 O3     2pz        0.0000   -0.0000   -0.0000    0.0000    0.0000   -0.0000    0.0000    0.3935   -0.0000    0.0000
 
          Orbital           11        12        13        14    
          Energy           -0.5451   -0.5279   -0.0871    0.1118
          Occ. No.          2.0000    2.0000    0.0000    0.0000
 
        1 O1     1s        -0.0000   -0.0001    0.0000    0.0152
        2 O1     2s        -0.0000   -0.0004    0.0000    0.2244
        3 O1     2px        0.0000    0.6641   -0.0000    0.0004
        4 O1     2py        0.0000   -0.0009    0.0000   -0.7666
        5 O1     2pz       -0.7160    0.0000    0.6160    0.0000
        6 O2     1s         0.0000   -0.0004    0.0000   -0.0835
        7 O2     2s         0.0000   -0.0042    0.0000   -0.8669
        8 O2     2px        0.0000   -0.6978    0.0000    0.0072
        9 O2     2py        0.0000   -0.0000   -0.0000   -0.0000
       10 O2     2pz        0.0000   -0.0000   -0.7979   -0.0000
       11 O3     1s         0.0000   -0.0001    0.0000    0.0152
       12 O3     2s         0.0000   -0.0004    0.0000    0.2244
       13 O3     2px       -0.0000    0.6641   -0.0000    0.0004
       14 O3     2py        0.0000    0.0009   -0.0000    0.7666
       15 O3     2pz        0.7160    0.0000    0.6160    0.0000
--
 
 
++    Molecular charges:
      ------------------
 
      Mulliken charges per centre and basis function type
      ---------------------------------------------------
 
                O1      O2      O3    
      1s       2.0001  2.0000  2.0001
      2s       1.9205  1.6507  1.9205
      2px      2.0000  1.9999  2.0000
      2pz      1.4295  1.1410  1.4295
      2py      0.6859  1.1363  0.6859
      Total    8.0360  7.9280  8.0360
 
      N-E     -0.0360  0.0720 -0.0360
 
      Total electronic charge=   24.000000
 
      Total            charge=   -0.000000
--
 
 
  Input file to MOLDEN was generated!
 
 
++    Static properties:
      ------------------
 
 
      LoProp Charges per center
 

                   O1       O2       O3    
      Nuclear      8.0000   8.0000   8.0000
      Electronic  -8.0852  -7.8297  -8.0852
 
      Total       -0.0852   0.1703  -0.0852
--
 
 
++    Natural Bond Order analysis
      ---------------------------
      Based on LoProp computed density
      -------------------------------------------------------------------------------------
      Atom A       Atom B       Bond Order | Atom A       Atom B       Bond Order
        O1           O2             2.000  |   O2           O3             2.000
      -------------------------------------------------------------------------------------
      NBO located     12.000 core electrons.
      NBO located      3.972 lone pair electrons.
      NBO located      8.000 electrons involved in    2 bonds.
      The remaining    0.028 electrons are to be considered as diffuse
--
 
 
++    Molecular properties:
      ---------------------
 
      Charge (e):
                      =   -0.0000
      Dipole Moment (Debye):
      Origin of the operator (Ang)=    0.0000    0.0000    0.0000
                   X= -5.3365E-03               Y= -8.5807E-10               Z= -3.3435E-12           Total=  5.3365E-03
      Quadrupole Moment (Debye*Ang):
      Origin of the operator (Ang)=   -0.0037    0.0000    0.0000
                  XX= -1.7463E+01              XY=  1.5595E-12              XZ= -1.1167E-09              YY= -1.7621E+01
                  YZ=  3.2445E-13              ZZ= -1.5873E+01
      In traceless form (Debye*Ang)
                  XX= -7.1672E-01              XY=  2.3392E-12              XZ= -1.6750E-09              YY= -9.5284E-01
                  YZ=  4.8667E-13              ZZ=  1.6696E+00
--
 
 
  Input file to MOLDEN was generated!
 
 ###############################################################################
 ###############################################################################
 ###                                                                         ###
 ###                                                                         ###
 ###    RunFile label nBas                                                   ###
 ###    was used       78 times                                              ###
 ###                                                                         ###
 ###                                                                         ###
 ###############################################################################
 ###############################################################################
--- Stop Module: scf at Sat Nov  2 12:44:07 2024 /rc=_RC_ALL_IS_WELL_ ---
*** files: O3_180.50.LprOrb O3_180.50.LoProp.molden O3_180.50.scf.molden O3_180.50.ScfOrb O3_180.50.scf.h5 xmldump
    saved to directory /home/grierjones/DDCASPT2/ozone/basis_sets/MB/O3/O3_180.50

>>> COPY /tmp/O3_180.50/O3_180.50.scf.h5 /home/grierjones/DDCASPT2/ozone/basis_sets/MB/O3/O3_180.50/

*** symbolic link created: INPORB -> O3_180.50.ScfOrb
--- Start Module: rasscf at Sat Nov  2 12:44:07 2024 ---
 
()()()()()()()()()()()()()()()()()()()()()()()()()()()()()()()()()()()()()()()()()()()()()()()()()()

                                              &RASSCF

                                   only a single process is used
                       available to each process: 2.0 GB of memory, 1 thread?
()()()()()()()()()()()()()()()()()()()()()()()()()()()()()()()()()()()()()()()()()()()()()()()()()()
 
 
      Header of the ONEINT file:
      --------------------------
      
      Integrals generated by seward 4.2.0  , Sat Nov  2 12:44:06 2024
 
 
      OrdInt status: non-squared
 
 
      Cartesian coordinates in Angstrom:
      -----------------------------------------------------
      No.  Label        X            Y            Z        
      -----------------------------------------------------
       1   O1        -0.00557600   1.27798800   0.00000000
       2   O2         0.00000000   0.00000000   0.00000000
       3   O3        -0.00557600  -1.27798800   0.00000000
      -----------------------------------------------------
      Nuclear repulsion energy =   66.25078560
 
++    Wave function specifications:
      -----------------------------
 
      Number of closed shell electrons          20
      Number of electrons in active shells       4
      Max number of holes in RAS1 space          0
      Max nr of electrons in RAS3 space          0
      Number of inactive orbitals               10
      Number of active orbitals                  3
      Number of secondary orbitals               2
      Spin quantum number                      0.0
      State symmetry                             1
--
 
++    Orbital specifications:
      -----------------------
 
      Symmetry species                           1
                                                 a
      Frozen orbitals                            0
      Inactive orbitals                         10
      Active orbitals                            3
      RAS1 orbitals                              0
      RAS2 orbitals                              3
      RAS3 orbitals                              0
      Secondary orbitals                         2
      Deleted orbitals                           0
      Number of basis functions                 15
--
 
++    CI expansion specifications:
      ----------------------------
 
      Number of CSFs                             6
      Number of determinants                     6
      Number of root(s) required                 1
      Root chosen for geometry opt.              1
      CI root used                               1
         
      highest root included in the CI            1
      max. size of the explicit Hamiltonian      6
--
 
++    Optimization specifications:
      ----------------------------
 
      RASSCF algorithm: Conventional
      Maximum number of macro iterations       200
      Maximum number of SX iterations          100
      Threshold for RASSCF energy            0.100E-07
      Threshold for max MO rotation          0.100E+00
      Threshold for max BLB element          0.100E-03
      Level shift parameter                  0.500E+00
      Make Quasi-Newton update
--
 
      The MO-coefficients are taken from the file:
      /home/grierjones/DDCASPT2/ozone/basis_sets/MB/O3/O3_180.00/O3_180.00.RasOrb                                                     
      Title: RASSCF average (pseudo-natural) orbitals                                      
 
      Total molecular charge    0.00
 
      ************************************************************************************************************************
      *                                                                                                                      *
      *                                            Wave function control section                                             *
      *                                                                                                                      *
      ************************************************************************************************************************
 
 
                                         RASSCF iterations: Energy and convergence statistics
                                         ----------------------------------------------------
 
      Iter CI   SX   CI       RASSCF       Energy    max ROT     max BLB   max BLB  Level Ln srch  Step   QN   Walltime
          iter iter root      energy       change     param      element    value   shift minimum  type update hh:mm:ss
 Nr of preliminary CI iterations:   1
        1   1    3    1  -224.27236910    0.00E+00   0.14E-02    9  15 1  0.35E-02*  0.24   0.00    SX    NO    0:00:00
        2   1    3    1  -224.27238658   -0.17E-04* -0.85E-03    7  14 1 -0.20E-02*  0.24   0.00    SX    NO    0:00:00
        3   1    3    1  -224.27239173   -0.52E-05*  0.49E-03    7  14 1 -0.12E-02*  0.24   0.00    SX    NO    0:00:00
        4   1    3    1  -224.27239337   -0.16E-05* -0.29E-03    7  14 1 -0.65E-03*  0.24   0.00    SX    NO    0:00:00
        5   1    3    1  -224.27239393   -0.56E-06* -0.43E-03    7  14 1 -0.36E-03*  0.24   2.49    LS   YES    0:00:00
        6   1    3    1  -224.27239424   -0.31E-06*  0.86E-04    9  15 1 -0.15E-03*  0.24   1.00    QN   YES    0:00:00
        7   1    3    1  -224.27239427   -0.32E-07* -0.13E-03    9  15 1 -0.97E-04   0.24   2.50    LS   YES    0:00:00
        8   1    2    1  -224.27239430   -0.30E-07* -0.13E-03    7  14 1  0.56E-04   0.24   1.87    QN   YES    0:00:00
        9   1    2    1  -224.27239431   -0.12E-07*  0.17E-04    9  15 1  0.26E-04   0.24   1.11    QN   YES    0:00:00
       10   1    2    1  -224.27239432   -0.68E-09   0.55E-05    9  15 1  0.11E-04   0.24   1.42    QN   YES    0:00:00
      Convergence after 10 iterations
       11   1    2    1  -224.27239432   -0.95E-10   0.55E-05    9  15 1  0.49E-06   0.24   1.42    QN   YES    0:00:00
 
      ************************************************************************************************************************
                                                      Wave function printout:
                       occupation of active orbitals, and spin coupling of open shells (u,d: Spin up or down)
      ************************************************************************************************************************
 
      Note: transformation to natural orbitals
      has been made, which may change the order of the CSFs.
 
      printout of CI-coefficients larger than  0.00 for root  1
      energy=    -224.272394
      conf/sym  111     Coeff  Weight
             1  220  -0.92116 0.84853
 
   + sqrt(     1/1     )  |220|
 
             2  2ud  -0.00000 0.00000
 
   + sqrt(     1/2     )  |2ab|
   - sqrt(     1/2     )  |2ba|
 
             3  202   0.37626 0.14157
 
   + sqrt(     1/1     )  |202|
 
             4  u2d   0.00000 0.00000
 
   - sqrt(     1/2     )  |a2b|
   + sqrt(     1/2     )  |b2a|
 
             5  ud2   0.00000 0.00000
 
   + sqrt(     1/2     )  |ab2|
   - sqrt(     1/2     )  |ba2|
 
             6  022   0.09948 0.00990
 
   + sqrt(     1/1     )  |022|
 
 
      Natural orbitals and occupation numbers for root  1
      sym 1:   1.980207   1.716854   0.302939
 
      ************************************************************************************************************************
      *                                                                                                                      *
      *                                                    Final results                                                     *
      *                                                                                                                      *
      ************************************************************************************************************************
 
 
++    Wave function specifications:
      -----------------------------
 
      Number of closed shell electrons          20
      Number of electrons in active shells       4
      Max number of holes in RAS1 space          0
      Max nr of electrons in RAS3 space          0
      Number of inactive orbitals               10
      Number of active orbitals                  3
      Number of secondary orbitals               2
      Spin quantum number                      0.0
      State symmetry                             1
--
 
++    Orbital specifications:
      -----------------------
 
      Symmetry species                           1
                                                 a
      Frozen orbitals                            0
      Inactive orbitals                         10
      Active orbitals                            3
      RAS1 orbitals                              0
      RAS2 orbitals                              3
      RAS3 orbitals                              0
      Secondary orbitals                         2
      Deleted orbitals                           0
      Number of basis functions                 15
--
 
++    CI expansion specifications:
      ----------------------------
 
      Number of CSFs                             6
      Number of determinants                     6
      Number of root(s) required                 1
      CI root used                               1
      highest root included in the CI            1
      Root passed to geometry opt.               1
--
 
++    Final optimization conditions:
      ------------------------------
 
      Average CI energy                            -224.27239432
      RASSCF energy for state  1                   -224.27239432
      Super-CI energy                                -0.00000000
      RASSCF energy change                           -0.00000000
      Max change in MO coefficients              -0.617E-05
      Max non-diagonal density matrix element     0.547E-05
      Maximum BLB matrix element                  0.495E-06
      (orbital pair   9,  15 in symmetry   1)
      Norm of electronic gradient            0.807E-06
--
 
 
      Final state energy(ies):
      ------------------------
 
::    RASSCF root number  1 Total energy:   -224.27239432
 
++    Molecular orbitals:
      -------------------
 
      Pseudonatural active orbitals and approximate occupation numbers
 
 
 
 
      Molecular orbitals for symmetry species 1: a  
 
 
      Orbital                1         2         3         4         5         6         7         8         9        10
      Energy          -20.8548  -20.8547  -20.8528   -1.7097   -1.5023   -1.0941   -0.8417   -0.7931   -0.6779   -0.5110
      Occ. No.          2.0000    2.0000    2.0000    2.0000    2.0000    2.0000    2.0000    2.0000    2.0000    2.0000
 
    1 O1     1s        -0.7071    0.7001    0.0994   -0.0141    0.0146    0.0144    0.0001   -0.0263   -0.0002   -0.0001
    2 O1     2s        -0.0001   -0.0001    0.0003    0.3561   -0.5573    0.6368    0.0021   -0.4232   -0.0027   -0.0001
    3 O1     2px       -0.0000    0.0000   -0.0000    0.0005   -0.0003   -0.0012    0.3842    0.0064   -0.7159    0.6219
    4 O1     2py        0.0012   -0.0011   -0.0003   -0.1104    0.1005    0.1913    0.0032   -0.4555   -0.0063   -0.0020
    5 O1     2pz       -0.0000    0.0000    0.0000   -0.0000   -0.0000   -0.0000    0.0000   -0.0000   -0.0000    0.0000
    6 O2     1s        -0.0000    0.1403   -0.9901   -0.0265    0.0000   -0.0092    0.0001    0.0000    0.0000   -0.0005
    7 O2     2s         0.0000   -0.0009   -0.0008    0.6117    0.0000   -0.6189    0.0014   -0.0000    0.0000   -0.0058
    8 O2     2px        0.0000   -0.0000    0.0000   -0.0018    0.0000   -0.0012    0.6888   -0.0000   -0.0000   -0.7877
    9 O2     2py        0.0006    0.0000   -0.0000   -0.0000   -0.3201   -0.0000    0.0000    0.5608    0.0041   -0.0000
   10 O2     2pz       -0.0000   -0.0000   -0.0000    0.0000   -0.0000   -0.0000    0.0000    0.0000    0.0000   -0.0000
   11 O3     1s         0.7071    0.7001    0.0994   -0.0141   -0.0146    0.0144    0.0001    0.0263    0.0002   -0.0001
   12 O3     2s         0.0001   -0.0001    0.0003    0.3561    0.5573    0.6368    0.0021    0.4232    0.0027   -0.0001
   13 O3     2px        0.0000    0.0000   -0.0000    0.0005    0.0003   -0.0012    0.3842   -0.0064    0.7159    0.6219
   14 O3     2py        0.0012    0.0011    0.0003    0.1104    0.1005   -0.1913   -0.0032   -0.4555   -0.0063    0.0020
   15 O3     2pz        0.0000    0.0000    0.0000   -0.0000    0.0000    0.0000    0.0000    0.0000    0.0000    0.0000
 
 
      Orbital               11        12        13        14        15
      Energy            0.0000    0.0000    0.0000    0.1042    0.5859
      Occ. No.          1.9802    1.7169    0.3029    0.0000    0.0000
 
    1 O1     1s        -0.0000    0.0000   -0.0000   -0.0159   -0.0564
    2 O1     2s        -0.0000    0.0000    0.0000   -0.2401   -0.5134
    3 O1     2px       -0.0000    0.0000   -0.0000    0.0002   -0.0037
    4 O1     2py        0.0000   -0.0000   -0.0000    0.7586    0.6808
    5 O1     2pz        0.3060   -0.7160    0.6639    0.0000   -0.0000
    6 O2     1s         0.0000    0.0000    0.0000    0.0832   -0.0000
    7 O2     2s         0.0000   -0.0000   -0.0000    0.8995   -0.0000
    8 O2     2px       -0.0000   -0.0000    0.0000   -0.0084    0.0000
    9 O2     2py        0.0000   -0.0000    0.0000    0.0000    1.1290
   10 O2     2pz        0.7792    0.0000   -0.6984   -0.0000   -0.0000
   11 O3     1s         0.0000   -0.0000   -0.0000   -0.0159    0.0564
   12 O3     2s         0.0000   -0.0000    0.0000   -0.2401    0.5134
   13 O3     2px       -0.0000   -0.0000   -0.0000    0.0002    0.0037
   14 O3     2py        0.0000    0.0000    0.0000   -0.7586    0.6808
   15 O3     2pz        0.3060    0.7160    0.6639    0.0000   -0.0000
--
 
      Von Neumann Entropy (Root  1) =  0.61570
 

      Mulliken population analysis for root number:  1
      -----------------------------------------------
 
 
++    Molecular charges:
      ------------------
 
      Mulliken charges per centre and basis function type
      ---------------------------------------------------
 
                O1      O2      O3    
      1s       2.0001  2.0001  2.0001
      2s       1.9135  1.5841  1.9135
      2px      2.0000  1.9999  2.0000
      2pz      1.2551  1.4899  1.2551
      2py      0.7826  1.0235  0.7826
      Total    7.9513  8.0975  7.9513
 
      N-E      0.0487 -0.0975  0.0487
 
      Total electronic charge=   24.000000
 
      Total            charge=   -0.000000
--
 
 

      Expectation values of various properties for root number:  1
      -----------------------------------------------------------
 
 
++    Molecular properties:
      ---------------------
 
      Charge (e):
                      =   -0.0000
      Dipole Moment (Debye):
      Origin of the operator (Ang)=    0.0000    0.0000    0.0000
                   X= -1.3313E-02               Y=  1.1682E-11               Z= -6.0004E-14           Total=  1.3313E-02
      Quadrupole Moment (Debye*Ang):
      Origin of the operator (Ang)=   -0.0037    0.0000    0.0000
                  XX= -1.7412E+01              XY=  1.3672E-14              XZ= -2.7829E-13              YY= -1.6595E+01
                  YZ= -1.1074E-13              ZZ= -1.5685E+01
      In traceless form (Debye*Ang)
                  XX= -1.2715E+00              XY=  2.0509E-14              XZ= -4.1743E-13              YY= -4.7289E-02
                  YZ= -1.6611E-13              ZZ=  1.3188E+00
--
 

      LoProp population analysis for root number:  1
      -----------------------------------------------
 
 
++    LoProp analysis:
      ----------------
 
 
 
  Input file to MOLDEN was generated!
 
 
++    Static properties:
      ------------------
 
 
      LoProp Charges per center
 

                   O1       O2       O3    
      Nuclear      8.0000   8.0000   8.0000
      Electronic  -7.9903  -8.0193  -7.9903
 
      Total        0.0097  -0.0193   0.0097
--
 
 
      Natural Bond Order analysis for root number:  1
 
++    Natural Bond Order analysis
      ---------------------------
      Based on LoProp computed density
      -------------------------------------------------------------------------------------
      Atom A       Atom B       Bond Order | Atom A       Atom B       Bond Order
        O1           O2             1.962  |   O2           O3             1.962
      -------------------------------------------------------------------------------------
      NBO located     12.000 core electrons.
      NBO located      3.972 lone pair electrons.
      NBO located      7.849 electrons involved in    2 bonds.
      The remaining    0.179 electrons are to be considered as diffuse
--
 
--
 
 
  Input file to MOLDEN was generated!
 
      Average orbitals are written to the RASORB file
      Natural orbitals for root   1 are written to the RASORB.1 file
      Spin density orbitals for root   1 are written to the SPDORB.1 file
 
--- Stop Module: rasscf at Sat Nov  2 12:44:07 2024 /rc=_RC_ALL_IS_WELL_ ---
*** files: O3_180.50.LprOrb O3_180.50.rasscf.molden O3_180.50.LoProp.molden O3_180.50.RasOrb O3_180.50.RasOrb.1 O3_180.50.rasscf.h5 O3_180.50.SpdOrb.1 xmldump
    saved to directory /home/grierjones/DDCASPT2/ozone/basis_sets/MB/O3/O3_180.50

>>> COPY /tmp/O3_180.50/O3_180.50.rasscf.h5 /home/grierjones/DDCASPT2/ozone/basis_sets/MB/O3/O3_180.50/

>>> COPY /tmp/O3_180.50/GMJ_Fock_MO.csv /home/grierjones/DDCASPT2/ozone/basis_sets/MB/O3/O3_180.50/O3_180.50.GMJ_Fock_MO.csv

*** symbolic link created: INPORB -> O3_180.50.RasOrb
--- Start Module: caspt2 at Sat Nov  2 12:44:07 2024 ---
 
()()()()()()()()()()()()()()()()()()()()()()()()()()()()()()()()()()()()()()()()()()()()()()()()()()

                                              &CASPT2

                                   only a single process is used
                       available to each process: 2.0 GB of memory, 1 thread?
()()()()()()()()()()()()()()()()()()()()()()()()()()()()()()()()()()()()()()()()()()()()()()()()()()
 
 Cholesky algorithm in CASPT2 =    1
 
 ###############################################################################
 ###############################################################################
 ###                                                                         ###
 ###                                                                         ###
 ###    User changed nr of frozen orbitals.                                  ###
 ###                                                                         ###
 ###                                                                         ###
 ###############################################################################
 ###############################################################################
 
++    Wave function specifications:
      -----------------------------
 
      Number of closed shell electrons          20
      Number of electrons in active shells       4
      Max number of holes in RAS1 space          0
      Max number of electrons in RAS3 space      0
      Number of inactive orbitals               10
      Number of active orbitals                  3
      Number of secondary orbitals               2
      Spin quantum number                      0.0
      State symmetry                             1
      Number of CSFs                             6
      Number of root(s) available                1
      Root passed to geometry opt.               1
      A file JOBMIX will be created.
      This is a CASSCF or RASSCF reference function
--
 
++    Orbital specifications:
      -----------------------
 
      Symmetry species                           1
                                                 a
      Frozen orbitals                            0
      Inactive orbitals                         10
      Active orbitals                            3
      Secondary orbitals                         2
      Deleted orbitals                           0
      Number of basis functions                 15
--
 
      Type of Fock operator: STANDARD
      Type of 0-order Hamiltonian: STANDARD WITH DEFAULT IPEA
        "IP-EA" denominator shift =      0.25
      The input orbitals and the CI vector will be transformed.
 
--------------------------------------------------------------------------------
 Estimated memory requirements:
  POLY3 :                   250202
  RHS:                      251368
  SIGMA :                   251440
  PRPCTL:                        0
 Available workspace:    230399382
 
++ CASPT2 computation for group   1
 
********************************************************************************
 Multi-State initialization phase begins for group   1
--------------------------------------------------------------------------------
********************************************************************************
 Compute H0 matrices for state    1
--------------------------------------------------------------------------------
--------------------------------------------------------------------------------
 H0 matrices have been computed.
 
********************************************************************************
  CASPT2 EQUATION SOLUTION
--------------------------------------------------------------------------------
 
  Total nr of CASPT2 parameters:
   Before reduction:        2100
   After  reduction:        1232
-------------------------------------------------------------------------------------------------------------------
 
  FINAL CASPT2 RESULT:
 
  Correlation energy /Case, /Symm, and sums:
 VJTU     -0.00000000 -0.00000000
 VJTIP    -0.00124316 -0.00124316
 VJTIM     0.00000000  0.00000000
 ATVX     -0.00000000 -0.00000000
 AIVX     -0.05244382 -0.05244382
 VJAIP    -0.00000000 -0.00000000
 VJAIM    -0.00000000 -0.00000000
 BVATP    -0.00061742 -0.00061742
 BVATM    -0.00000460 -0.00000460
 BJATP    -0.00000000 -0.00000000
 BJATM    -0.00000000 -0.00000000
 BJAIP    -0.03465363 -0.03465363
 BJAIM    -0.00642594 -0.00642594
 Summed:  -0.09538857 -0.09538857
 
      Reference energy:        -224.2723943152
      E2 (Non-variational):      -0.0953885681
      E2 (Variational):          -0.0953885692
      Total energy:            -224.3677828844
      Residual norm:              0.0000000454
      Reference weight:           0.95397
 
      Contributions to the CASPT2 correlation energy
      Active & Virtual Only:         -0.0006220223
      One Inactive Excited:          -0.0524438230
      Two Inactive Excited:          -0.0423227228
 
 
++ Denominators, etc.
----------------------------------------------------------------------------------------------------
 Report on small energy denominators, large coefficients, and large energy contributions.
CASE  SYMM ACTIVE-MIX  NON-ACTIVE INDICES          DENOMINATOR     RHS VALUE       COEFFICIENT     CONTRIBUTION
AIVX     1  Mu1.0005  In1.004 Se1.014               2.54741096     -0.08502344      0.03337641     -0.00283778
AIVX     1  Mu1.0003  In1.005 Se1.014               2.01617430     -0.05489988      0.02722973     -0.00149491
AIVX     1  Mu1.0004  In1.006 Se1.014               1.77890204     -0.07823731      0.04398067     -0.00344093
AIVX     1  Mu1.0005  In1.006 Se1.014               1.93181095      0.07569278     -0.03918229     -0.00296582
AIVX     1  Mu1.0002  In1.008 Se1.014               1.21248816      0.12499162     -0.10308688     -0.01288500
AIVX     1  Mu1.0003  In1.008 Se1.014               1.30692303      0.07480962     -0.05724103     -0.00428218
AIVX     1  Mu1.0007  In1.008 Se1.014               1.90912982      0.05551236     -0.02907731     -0.00161415
AIVX     1  Mu1.0004  In1.005 Se1.015               2.66882680     -0.07247394      0.02715573     -0.00196808
AIVX     1  Mu1.0001  In1.008 Se1.015               1.31978963      0.03567604     -0.02703161     -0.00096438
AIVX     1  Mu1.0004  In1.008 Se1.015               1.95957553      0.12840816     -0.06552856     -0.00841440
AIVX     1  Mu1.0005  In1.008 Se1.015               2.11248444     -0.08548302      0.04046563     -0.00345912
BJAIP    1  Se1.014 In1.004 Se1.015 In1.005         3.90215054     -0.10126320      0.02595061     -0.00262784
BJAIP    1  Se1.014 In1.006 Se1.014 In1.006         2.39662578      0.08453759     -0.03527359     -0.00298194
BJAIP    1  Se1.014 In1.004 Se1.015 In1.008         3.19289927      0.08270817     -0.02590378     -0.00214245
BJAIP    1  Se1.014 In1.006 Se1.015 In1.008         2.57729926     -0.10108917      0.03922291     -0.00396501
BJAIP    1  Se1.014 In1.008 Se1.014 In1.008         1.79453001      0.11584053     -0.06455202     -0.00747774
BJAIP    1  Se1.015 In1.008 Se1.015 In1.008         2.75797275      0.11381683     -0.04126829     -0.00469703
BJAIP    1  Se1.014 In1.010 Se1.014 In1.010         1.23035245      0.03240310     -0.02633644     -0.00085338
BJAIM    1  Se1.014 In1.006 Se1.014 In1.008         2.57729926     -0.10351104      0.04016260     -0.00415727
--
 
   (Skipping property calculation,
    use PROP keyword to activate)
--
 
  Total CASPT2 energies:
::    CASPT2 Root  1     Total energy:   -224.36778288
 
  A NEW JOBIPH FILE NAMED 'JOBMIX' IS PREPARED.
********************************************************************************
--- Stop Module: caspt2 at Sat Nov  2 12:44:07 2024 /rc=_RC_ALL_IS_WELL_ ---
*** files: xmldump
    saved to directory /home/grierjones/DDCASPT2/ozone/basis_sets/MB/O3/O3_180.50

>>> EXPORT i = B

>>> EXPORT j = P

>>> IF (-FILE GMJ_e2_${i}_${j}.csv)

>>> COPY /tmp/O3_180.50/GMJ_RHS_B_P.csv /home/grierjones/DDCASPT2/ozone/basis_sets/MB/O3/O3_180.50/GMJ_RHS_B_P.csv

>>> COPY /tmp/O3_180.50/GMJ_IVECW_B_P.csv /home/grierjones/DDCASPT2/ozone/basis_sets/MB/O3/O3_180.50/GMJ_IVECW_B_P.csv

>>> COPY /tmp/O3_180.50/GMJ_e2_B_P.csv /home/grierjones/DDCASPT2/ozone/basis_sets/MB/O3/O3_180.50/GMJ_e2_B_P.csv

>>> END FOREACH

>>> EXPORT j = M

>>> IF (-FILE GMJ_e2_${i}_${j}.csv)
(Skipped)

>>> END FOREACH

>>> END FOREACH

>>> EXPORT i = E

>>> EXPORT j = P

>>> IF (-FILE GMJ_e2_${i}_${j}.csv)

>>> COPY /tmp/O3_180.50/GMJ_RHS_E_P.csv /home/grierjones/DDCASPT2/ozone/basis_sets/MB/O3/O3_180.50/GMJ_RHS_E_P.csv

>>> COPY /tmp/O3_180.50/GMJ_IVECW_E_P.csv /home/grierjones/DDCASPT2/ozone/basis_sets/MB/O3/O3_180.50/GMJ_IVECW_E_P.csv

>>> COPY /tmp/O3_180.50/GMJ_e2_E_P.csv /home/grierjones/DDCASPT2/ozone/basis_sets/MB/O3/O3_180.50/GMJ_e2_E_P.csv

>>> END FOREACH

>>> EXPORT j = M

>>> IF (-FILE GMJ_e2_${i}_${j}.csv)

>>> COPY /tmp/O3_180.50/GMJ_RHS_E_M.csv /home/grierjones/DDCASPT2/ozone/basis_sets/MB/O3/O3_180.50/GMJ_RHS_E_M.csv

>>> COPY /tmp/O3_180.50/GMJ_IVECW_E_M.csv /home/grierjones/DDCASPT2/ozone/basis_sets/MB/O3/O3_180.50/GMJ_IVECW_E_M.csv

>>> COPY /tmp/O3_180.50/GMJ_e2_E_M.csv /home/grierjones/DDCASPT2/ozone/basis_sets/MB/O3/O3_180.50/GMJ_e2_E_M.csv

>>> END FOREACH

>>> END FOREACH

>>> EXPORT i = F

>>> EXPORT j = P

>>> IF (-FILE GMJ_e2_${i}_${j}.csv)

>>> COPY /tmp/O3_180.50/GMJ_RHS_F_P.csv /home/grierjones/DDCASPT2/ozone/basis_sets/MB/O3/O3_180.50/GMJ_RHS_F_P.csv

>>> COPY /tmp/O3_180.50/GMJ_IVECW_F_P.csv /home/grierjones/DDCASPT2/ozone/basis_sets/MB/O3/O3_180.50/GMJ_IVECW_F_P.csv

>>> COPY /tmp/O3_180.50/GMJ_e2_F_P.csv /home/grierjones/DDCASPT2/ozone/basis_sets/MB/O3/O3_180.50/GMJ_e2_F_P.csv

>>> END FOREACH

>>> EXPORT j = M

>>> IF (-FILE GMJ_e2_${i}_${j}.csv)

>>> COPY /tmp/O3_180.50/GMJ_RHS_F_M.csv /home/grierjones/DDCASPT2/ozone/basis_sets/MB/O3/O3_180.50/GMJ_RHS_F_M.csv

>>> COPY /tmp/O3_180.50/GMJ_IVECW_F_M.csv /home/grierjones/DDCASPT2/ozone/basis_sets/MB/O3/O3_180.50/GMJ_IVECW_F_M.csv

>>> COPY /tmp/O3_180.50/GMJ_e2_F_M.csv /home/grierjones/DDCASPT2/ozone/basis_sets/MB/O3/O3_180.50/GMJ_e2_F_M.csv

>>> END FOREACH

>>> END FOREACH

>>> EXPORT i = G

>>> EXPORT j = P

>>> IF (-FILE GMJ_e2_${i}_${j}.csv)

>>> COPY /tmp/O3_180.50/GMJ_RHS_G_P.csv /home/grierjones/DDCASPT2/ozone/basis_sets/MB/O3/O3_180.50/GMJ_RHS_G_P.csv

>>> COPY /tmp/O3_180.50/GMJ_IVECW_G_P.csv /home/grierjones/DDCASPT2/ozone/basis_sets/MB/O3/O3_180.50/GMJ_IVECW_G_P.csv

>>> COPY /tmp/O3_180.50/GMJ_e2_G_P.csv /home/grierjones/DDCASPT2/ozone/basis_sets/MB/O3/O3_180.50/GMJ_e2_G_P.csv

>>> END FOREACH

>>> EXPORT j = M

>>> IF (-FILE GMJ_e2_${i}_${j}.csv)

>>> COPY /tmp/O3_180.50/GMJ_RHS_G_M.csv /home/grierjones/DDCASPT2/ozone/basis_sets/MB/O3/O3_180.50/GMJ_RHS_G_M.csv

>>> COPY /tmp/O3_180.50/GMJ_IVECW_G_M.csv /home/grierjones/DDCASPT2/ozone/basis_sets/MB/O3/O3_180.50/GMJ_IVECW_G_M.csv

>>> COPY /tmp/O3_180.50/GMJ_e2_G_M.csv /home/grierjones/DDCASPT2/ozone/basis_sets/MB/O3/O3_180.50/GMJ_e2_G_M.csv

>>> END FOREACH

>>> END FOREACH

>>> EXPORT i = H

>>> EXPORT j = P

>>> IF (-FILE GMJ_e2_${i}_${j}.csv)

>>> COPY /tmp/O3_180.50/GMJ_RHS_H_P.csv /home/grierjones/DDCASPT2/ozone/basis_sets/MB/O3/O3_180.50/GMJ_RHS_H_P.csv

>>> COPY /tmp/O3_180.50/GMJ_IVECW_H_P.csv /home/grierjones/DDCASPT2/ozone/basis_sets/MB/O3/O3_180.50/GMJ_IVECW_H_P.csv

>>> COPY /tmp/O3_180.50/GMJ_e2_H_P.csv /home/grierjones/DDCASPT2/ozone/basis_sets/MB/O3/O3_180.50/GMJ_e2_H_P.csv

>>> END FOREACH

>>> EXPORT j = M

>>> IF (-FILE GMJ_e2_${i}_${j}.csv)

>>> COPY /tmp/O3_180.50/GMJ_RHS_H_M.csv /home/grierjones/DDCASPT2/ozone/basis_sets/MB/O3/O3_180.50/GMJ_RHS_H_M.csv

>>> COPY /tmp/O3_180.50/GMJ_IVECW_H_M.csv /home/grierjones/DDCASPT2/ozone/basis_sets/MB/O3/O3_180.50/GMJ_IVECW_H_M.csv

>>> COPY /tmp/O3_180.50/GMJ_e2_H_M.csv /home/grierjones/DDCASPT2/ozone/basis_sets/MB/O3/O3_180.50/GMJ_e2_H_M.csv

>>> END FOREACH

>>> END FOREACH

>>> EXPORT i = A

>>> IF (-FILE GMJ_e2_$i.csv)

>>> COPY /tmp/O3_180.50/GMJ_RHS_A.csv /home/grierjones/DDCASPT2/ozone/basis_sets/MB/O3/O3_180.50/GMJ_RHS_A.csv

>>> COPY /tmp/O3_180.50/GMJ_IVECW_A.csv /home/grierjones/DDCASPT2/ozone/basis_sets/MB/O3/O3_180.50/GMJ_IVECW_A.csv

>>> COPY /tmp/O3_180.50/GMJ_e2_A.csv /home/grierjones/DDCASPT2/ozone/basis_sets/MB/O3/O3_180.50/GMJ_e2_A.csv

>>> END FOREACH

>>> EXPORT i = C

>>> IF (-FILE GMJ_e2_$i.csv)

>>> COPY /tmp/O3_180.50/GMJ_RHS_C.csv /home/grierjones/DDCASPT2/ozone/basis_sets/MB/O3/O3_180.50/GMJ_RHS_C.csv

>>> COPY /tmp/O3_180.50/GMJ_IVECW_C.csv /home/grierjones/DDCASPT2/ozone/basis_sets/MB/O3/O3_180.50/GMJ_IVECW_C.csv

>>> COPY /tmp/O3_180.50/GMJ_e2_C.csv /home/grierjones/DDCASPT2/ozone/basis_sets/MB/O3/O3_180.50/GMJ_e2_C.csv

>>> END FOREACH

>>> EXPORT i = D

>>> IF (-FILE GMJ_e2_$i.csv)

>>> COPY /tmp/O3_180.50/GMJ_RHS_D.csv /home/grierjones/DDCASPT2/ozone/basis_sets/MB/O3/O3_180.50/GMJ_RHS_D.csv

>>> COPY /tmp/O3_180.50/GMJ_IVECW_D.csv /home/grierjones/DDCASPT2/ozone/basis_sets/MB/O3/O3_180.50/GMJ_IVECW_D.csv

>>> COPY /tmp/O3_180.50/GMJ_e2_D.csv /home/grierjones/DDCASPT2/ozone/basis_sets/MB/O3/O3_180.50/GMJ_e2_D.csv

>>> END FOREACH

.########################.
.# Non-zero return code #.
.########################.

    Timing: Wall=1.14 User=0.85 System=0.29
*****************************************
*** WorkDir at /tmp/O3_180.50 cleaned ***
*****************************************
