   This run of MOLCAS is using the pymolcas driver

                             OPE
                             OPE          NMOL  CASOP  ENMOLC A   SO
                 OPE        NMOLC        AS  OP EN  MO LC     AS  OP
                OPENM       OL CA        SO  PE NM  OL CA     SOP EN
                OP EN      MO   LC       AS  OP ENMOL  CASO   PENMOL
                OP  EN     MO   LC       AS  OP EN     MO     LC ASO
               OP   E  NMOL  C  AS       OP  EN MO     LC     AS  OP
               OP  E   NMO   LC AS        OPEN  MO     LCASOP EN   M
               O  PEN   MO  LCA  SO
            OPE   NMO   L   CAS    OP
        OPENMOL  CASOP     ENMOL   CASOPE
     OPENMOLCA   SOPENMOLCASOPEN   MOLCASOPE
    OPENMOLCAS   OP           EN   MOL    CAS
    OPENMOLCAS       OP  ENM        O     LCA
    OPENMOLCAS    OPEN  MOLCASO     P  E  NMO
    OPENMOLCAS     OP               E  N  MOL
    OPENMOLCA   SO           PENM   O  L  CAS    OPEN    MO    LCAS
    OPENMOLCA   SOP           ENM   O  L  CAS   OP  EN  MOLC  AS   O
    OPENMOLCA   SOPE           NM      O  LCA   S      OP  EN MO
    OPENMOLC                AS         O  PEN   M      OL  CA  SOPE
    OPENMO        LCASOPE  NMOL        C  ASO   P      ENMOLC     AS
    OPE     NMO      LCA  SO     P     E   NM   OL  CA SO  PE N   MO
          OPENMOLCA            SOPE   NMO        LCAS  O    P  ENMO
     OPENMOLCASOPENMOLCASOPENMOLCASOPENMOLCA
        OPENMOLCASOPENMOLCASOPENMOLCASOPE
            OPENMOLCASOPENMOLCASOPENM
               OPENMOLCASOPENMOLCA        version: ea724fe96-dirty
                   OPENMOLCASO
                       OPE                tag:

 OpenMolcas is free software; you can redistribute it and/or modify it
 under the terms of the GNU Lesser General Public License version 2.1.
 OpenMolcas is distributed in the hope that it will be useful, but it
 is provided "as is" and without any express or implied warranties.
 For more details see the full text of the license in the file
 LICENSE or in <http://www.gnu.org/licenses/>.

                 Copyright (C) The OpenMolcas Authors
           For the author list and the recommended citation,
                   consult the file CONTRIBUTORS.md

           *************************************************
           * pymolcas version py2.28                       *
           *   build c4a6d18ded8cb6cad61d2372a9abd97c      *
           *   (after the EMIL interpreter by V. Veryazov) *
           *************************************************

configuration info
------------------
C Compiler ID: Intel
C flags: -std=gnu99
Fortran Compiler ID: Intel
Fortran flags: -fpp -i8 -r8 -heap-arrays
Definitions: _MOLCAS_;_I8_;_LINUX_
Parallel: OFF (GA=OFF)


   -------------------------------------------------------------------------------
  |
  |              Project: 5.58
  |       Submitted from: /home/grierjones/DDCASPT2/iron_oxo_DDCASPT2/cluster/5.58
  |         Scratch area: /tmp/5.58
  |      Save outputs to: /home/grierjones/DDCASPT2/iron_oxo_DDCASPT2/cluster/5.58
  |               Molcas: /home/grierjones/Test/build
  |
  | Scratch area is empty
  |
  |       MOLCAS_DRIVER = /usr/local/pymolcas
  | MOLCAS_KEEP_WORKDIR = NO
  |  MOLCAS_NEW_WORKDIR = YES
  |       MOLCAS_NPROCS = 1
  |        MOLCAS_PRINT = NORMAL
  |       MOLCAS_SOURCE = /home/grierjones/Test/build
  |    MOLCAS_STRUCTURE = 0
  |
   -------------------------------------------------------------------------------

++ ---------   Input file   ---------

&GATEWAY
coord=5.58.xyz
Basis = ANO-RCC-VDZP
Group = nosymm
Expert
End of Input

&SEWARD
End of Input

&SCF
UHF
charge
2
spin
5
FileOrb
/home/grierjones/DDCASPT2/iron_oxo_DDCASPT2/cluster/5.57/5.57.UhfOrb

>>> COPY $WorkDir/5.58.scf.h5 $CurrDir/

&RASSCF
Title= RASSCF
FileOrb
/home/grierjones/DDCASPT2/iron_oxo_DDCASPT2/cluster/5.57/5.57.RasOrb
NACTEL
10 0 0
RAS2
14
Symmetry
1
Spin
5
charge
2
orblisting
all
ITERation
300 200

>>> COPY $WorkDir/5.58.rasscf.h5 $CurrDir/

>>> COPY $WorkDir/GMJ_Fock_MO.csv $CurrDir/5.58.GMJ_Fock_MO.csv

>>> COPY $WorkDir/GMJ_PT2_Fock_MO.csv $CurrDir/5.58.GMJ_PT2_Fock_MO.csv

&MOTRA
Frozen=0
LUMORB

>>> COPY $WorkDir/GMJ_one_int_indx.csv $CurrDir/5.58.GMJ_one_int_indx.csv

>>> COPY $WorkDir/GMJ_one_int.csv $CurrDir/5.58.GMJ_one_int.csv

>>> COPY $WorkDir/GMJ_two_int_indx.csv $CurrDir/5.58.GMJ_two_int_indx.csv

>>> COPY $WorkDir/GMJ_two_int.csv $CurrDir/5.58.GMJ_two_int.csv

&CASPT2
Frozen
0
MAXITER
50

>>> FOREACH i IN (B,E,F,G,H)

  >>> FOREACH j IN (P,M)

    >>> IF (-FILE GMJ_e2_${i}_${j}.csv)

      >>> COPY $WorkDir/GMJ_RHS_${i}_${j}.csv $CurrDir/GMJ_RHS_${i}_${j}.csv

      >>> COPY $WorkDir/GMJ_IVECW_${i}_${j}.csv $CurrDir/GMJ_IVECW_${i}_${j}.csv

      >>> COPY $WorkDir/GMJ_IVECX_${i}_${j}.csv $CurrDir/GMJ_IVECX_${i}_${j}.csv

      >>> COPY $WorkDir/GMJ_IVECC2_${i}_${j}.csv $CurrDir/GMJ_IVECC2_${i}_${j}.csv

      >>> COPY $WorkDir/GMJ_e2_${i}_${j}.csv $CurrDir/GMJ_e2_${i}_${j}.csv

    >>> END IF

  >>> END FOREACH

>>> END FOREACH

>>> FOREACH i IN (A,C,D)

  >>> IF (-FILE GMJ_e2_$i.csv)

    >>> COPY $WorkDir/GMJ_RHS_$i.csv $CurrDir/GMJ_RHS_$i.csv

    >>> COPY $WorkDir/GMJ_IVECW_$i.csv $CurrDir/GMJ_IVECW_$i.csv

    >>> COPY $WorkDir/GMJ_IVECX_$i.csv $CurrDir/GMJ_IVECX_$i.csv

    >>> COPY $WorkDir/GMJ_IVECC2_$i.csv $CurrDir/GMJ_IVECC2_$i.csv

    >>> COPY $WorkDir/GMJ_e2_$i.csv $CurrDir/GMJ_e2_$i.csv

  >>> END IF

>>> END FOREACH

-- ----------------------------------

--- Start Module: gateway at Wed Dec 25 09:04:52 2024 ---
 
()()()()()()()()()()()()()()()()()()()()()()()()()()()()()()()()()()()()()()()()()()()()()()()()()()

                                              &GATEWAY

                                   only a single process is used
                       available to each process: 2.0 GB of memory, 1 thread?
()()()()()()()()()()()()()()()()()()()()()()()()()()()()()()()()()()()()()()()()()()()()()()()()()()
 
 ###############################################################################
 ###############################################################################
 ###                                                                         ###
 ###                                                                         ###
 ###                                                                         ###
 ###    WARNING: EXPERT option is ON!                                        ###
 ###                                                                         ###
 ###                                                                         ###
 ###############################################################################
 ###############################################################################
 
++    Symmetry information:
      ---------------------
 
                    Character Table for C1 
 
                             E  
                    a        1  x, y, xy, Rz, z, xz, Ry, yz, Rx, I
--
 
 
++    Basis set information:
      ----------------------
 
 
      Basis set label: O.ANO-RCC...3S2P1D.
 
      Electronic valence basis set:
      ------------------
      Associated Effective Charge   8.000000 au
      Associated Actual Charge      8.000000 au
      Nuclear Model: Point charge
 
      Shell  nPrim  nBasis  Cartesian Spherical Contaminant
         s      14       3        X                  
         p       9       2        X                  
         d       4       1                 X         
 
 
      Basis set label: FE.ANO-RCC...5S4P2D1F.
 
      Electronic valence basis set:
      ------------------
      Associated Effective Charge  26.000000 au
      Associated Actual Charge     26.000000 au
      Nuclear Model: Point charge
 
      Shell  nPrim  nBasis  Cartesian Spherical Contaminant
         s      21       5        X                  
         p      15       4        X                  
         d      10       2                 X         
         f       6       1                 X         
--
 
 
++    Molecular structure info:
      -------------------------
 
                    ************************************************ 
                    **** Cartesian Coordinates / Bohr, Angstrom **** 
                    ************************************************ 
 
     Center  Label                x              y              z                     x              y              z
        1      O1               0.000000       0.000000       6.783701              0.000000       0.000000       3.589780
        2      FE2              0.000000       0.000000      -3.760139              0.000000       0.000000      -1.989780
--
 
 
            Nuclear Potential Energy             19.72715766 au
 
 ###############################################################################
 ###############################################################################
 ###                                                                         ###
 ###                                                                         ###
 ###    There were warnings during the execution                             ###
 ###    Please, check the output with care!                                  ###
 ###                                                                         ###
 ###                                                                         ###
 ###############################################################################
 ###############################################################################
--- Stop Module: gateway at Wed Dec 25 09:04:52 2024 /rc=_RC_ALL_IS_WELL_ ---
*** files: xmldump
    saved to directory /home/grierjones/DDCASPT2/iron_oxo_DDCASPT2/cluster/5.58

--- Start Module: seward at Wed Dec 25 09:04:52 2024 ---
 
()()()()()()()()()()()()()()()()()()()()()()()()()()()()()()()()()()()()()()()()()()()()()()()()()()

                                              &SEWARD

                                   only a single process is used
                       available to each process: 2.0 GB of memory, 1 thread?
()()()()()()()()()()()()()()()()()()()()()()()()()()()()()()()()()()()()()()()()()()()()()()()()()()
 
 ###############################################################################
 ###############################################################################
 ###                                                                         ###
 ###                                                                         ###
 ###                                                                         ###
 ###    WARNING: EXPERT option is ON!                                        ###
 ###                                                                         ###
 ###                                                                         ###
 ###############################################################################
 ###############################################################################
               SEWARD will generate:
                  Multipole Moment integrals up to order  2
                  Kinetic Energy integrals
                  Nuclear Attraction integrals (point charge)
                  One-Electron Hamiltonian integrals
                  Velocity integrals
                  Relativistic Douglas-Kroll-Hess integrals:
                    - Parametrization         : EXP
                    - DKH order of Hamiltonian: 2
                    - DKH order of Properties : 0
                         - multipole moment operators
                         - electric potential operators
                         - contact operators
                  Atomic mean-field integrals
                  Two-Electron Repulsion integrals
 
                   Integrals are discarded if absolute value <: 0.10E-13
                   Integral cutoff threshold is set to       <: 0.10E-15
 
            Nuclear Potential Energy             19.72715766 au
 
 
      Basis set specifications :
      Symmetry species         a  
      Basis functions           48
 
 
  Input file to MOLDEN was generated!
 
 ###############################################################################
 ###############################################################################
 ###                                                                         ###
 ###                                                                         ###
 ###    There were warnings during the execution                             ###
 ###    Please, check the output with care!                                  ###
 ###                                                                         ###
 ###                                                                         ###
 ###############################################################################
 ###############################################################################
--- Stop Module: seward at Wed Dec 25 09:04:53 2024 /rc=_RC_ALL_IS_WELL_ ---
*** files: 5.58.GssOrb 5.58.guessorb.h5 5.58.guessorb.molden xmldump
    saved to directory /home/grierjones/DDCASPT2/iron_oxo_DDCASPT2/cluster/5.58

*** symbolic link created: INPORB -> 5.58.GssOrb
--- Start Module: scf at Wed Dec 25 09:04:53 2024 ---
 
()()()()()()()()()()()()()()()()()()()()()()()()()()()()()()()()()()()()()()()()()()()()()()()()()()

                                                &SCF

                                   only a single process is used
                       available to each process: 2.0 GB of memory, 1 thread?
()()()()()()()()()()()()()()()()()()()()()()()()()()()()()()()()()()()()()()()()()()()()()()()()()()
 
 *** Possible bug in opening file
 *** isFreeUnit resets the unit number
++    Input section:
      --------------
 
      Header of the integral files:
      
       Integrals generated by seward 4.2.0  , Wed Dec 25 09:04:53 2024
 
 
      Cartesian coordinates in Angstrom:
      -----------------------------------------------------
      No.  Label        X            Y            Z        
      -----------------------------------------------------
       1   O1         0.00000000   0.00000000   3.58978000
       2   FE2        0.00000000   0.00000000  -1.98978000
      -----------------------------------------------------
      Nuclear repulsion energy =   19.72715766
--
 
++    Orbital specifications:
      -----------------------
 
      Symmetry species               1
                                     a
      Frozen orbitals                0
      Occupied orbitals alpha       18
      Occupied orbitals beta        14
      Secondary orbitals alpha      30
      Secondary orbitals beta       34
      Deleted orbitals               0
      Total number of orbitals      48
      Number of basis functions     48
--
 
      Molecular charge                           2.000
 
++    Optimization specifications:
      ----------------------------
 
      SCF Algorithm: Conventional USCF
      D(i)-D(i-1) density differences are used
      Number of density matrices in core                5
      Maximum number of NDDO SCF iterations           400
      Maximum number of HF SCF iterations             400
      Threshold for SCF energy change            0.10E-08
      Threshold for density matrix               0.10E-03
      Threshold for Fock matrix                  0.15E-03
      Threshold for linear dependence            0.10E-08
      Threshold at which DIIS is turned on       0.15E+00
      Threshold at which QNR/C2DIIS is turned on 0.75E-01
      Threshold for Norm(delta) (QNR/C2DIIS)     0.20E-04
      DIIS extrapolation of the SCF procedure
      All orbitals punched on: UHFORB
--
 
      Input vectors read from INPORB
      Orbital file label: * UHF orbitals
 
 
++ Convergence information
                               UHF SCF        iterations: Energy and convergence statistics
 
Iter     Tot. SCF        One-elec.       Two-elec.     Energy      Max Dij or  Max Fij      DNorm      TNorm      AccCon     Time
         Energy          Energy          Energy        Change      Delta Norm                                                in Sec.
 
 The total and one-electron energies are shifted by a value of      1000. a.u.
 
   1  -345.264037878  -887.852370307   522.861174764   0.00E+00    0.66E-04    0.27E-04     0.80E+01   0.18E+03   None         0.
   2  -345.264037886  -887.852809129   522.861613577  -0.80E-08*   0.32E-04    0.85E-05     0.24E-03   0.18E+03   EDIIS        0.
   3  -345.264037888  -887.852372406   522.861176854  -0.13E-08*   0.23E-04    0.14E-04     0.10E-03   0.18E+03   c2DIIS       0.
   4  -345.264037888  -887.853377397   522.862181845   0.16E-09    0.60E-04*   0.16E-04     0.93E-04   0.18E+03   QNRc2DIIS    0.
   5  -345.264037888  -887.851818628   522.860623076  -0.13E-09    0.28E-04*   0.15E-04     0.85E-04   0.18E+03   QNRc2DIIS    0.
   6  -345.264037888  -887.852567282   522.861371729  -0.70E-09    0.38E-04*   0.12E-05     0.40E-04   0.18E+03   QNRc2DIIS    0.
   7  -345.264037888  -887.852577309   522.861381756  -0.91E-10    0.26E-04*   0.15E-05     0.53E-04   0.18E+03   QNRc2DIIS    0.
   8  -345.264037889  -887.852575876   522.861380323  -0.74E-10    0.31E-04*   0.18E-05     0.36E-04   0.18E+03   QNRc2DIIS    0.
   9  -345.264037889  -887.852573777   522.861378223  -0.97E-10    0.17E-04    0.21E-05     0.44E-04   0.18E+03   QNRc2DIIS    0.
 
       Convergence after  9 Macro Iterations
--
 
 *****************************************************************************************************************************
 *                                                                                                                           *
 *                                             SCF/KS-DFT Program, Final results                                             *
 *                                                                                                                           *
 *                                                                                                                           *
 *                                                                                                                           *
 *                                                       Final Results                                                       *
 *                                                                                                                           *
 *****************************************************************************************************************************
 
::    Total SCF energy                              -1345.2640378886
      One-electron energy                           -1887.8525737766
      Two-electron energy                             522.8613782233
      Nuclear repulsion energy                         19.7271576646
      Kinetic energy (interpolated)                  1399.3965208748
      Virial theorem                                    0.9613172663
      Total spin, S(S+1)                                7.0175474583
      Total spin, S                                     2.1958389155
      Max non-diagonal density matrix element           0.0000098449
      Max non-diagonal Fock matrix element              0.0000042879
 
 
      All orbitals with orbital energies smaller than  E(LUMO)+0.5 are printed
 
++    Molecular orbitals:
      -------------------
 
      Title: UHF orbitals (alpha)

      Molecular orbitals for symmetry species 1: a  
 
          Orbital            1         2         3         4         5         6         7         8         9        10    
          Energy         -263.8707  -32.6472  -27.7307  -27.7307  -27.6999  -21.4933   -4.5612   -3.1385   -3.1385   -3.0670
          Occ. No.          1.0000    1.0000    1.0000    1.0000    1.0000    1.0000    1.0000    1.0000    1.0000    1.0000
 
        1 O1     1s         0.0000   -0.0000   -0.0000    0.0000   -0.0000    1.0000    0.0000    0.0000   -0.0000    0.0000
        2 O1     2s        -0.0000   -0.0000   -0.0000    0.0000   -0.0000    0.0003    0.0001    0.0000   -0.0000    0.0001
        3 O1     3s        -0.0000   -0.0000   -0.0000    0.0000   -0.0000   -0.0010    0.0001    0.0000   -0.0000    0.0001
        4 O1     2px        0.0000    0.0000   -0.0000   -0.0000    0.0000   -0.0000    0.0000    0.0000    0.0000   -0.0000
        5 O1     3px        0.0000    0.0000   -0.0000   -0.0000    0.0000    0.0000    0.0000    0.0000    0.0000   -0.0000
        6 O1     2py       -0.0000   -0.0000    0.0000   -0.0000   -0.0000    0.0000   -0.0000   -0.0000    0.0000    0.0000
        7 O1     3py       -0.0000   -0.0000    0.0000   -0.0000   -0.0000   -0.0000   -0.0000   -0.0000    0.0000    0.0000
        8 O1     2pz        0.0000    0.0000    0.0000   -0.0000    0.0000   -0.0000   -0.0000   -0.0000    0.0000   -0.0000
        9 O1     3pz        0.0000    0.0000    0.0000   -0.0000    0.0000    0.0000   -0.0001   -0.0000    0.0000   -0.0001
       10 O1     3d2-       0.0000    0.0000    0.0000    0.0000    0.0000    0.0000   -0.0000   -0.0000    0.0000   -0.0000
       11 O1     3d1-       0.0000    0.0000   -0.0000    0.0000    0.0000    0.0000    0.0000    0.0000   -0.0000   -0.0000
       12 O1     3d0       -0.0000   -0.0000   -0.0000    0.0000   -0.0000   -0.0015    0.0000    0.0000   -0.0000    0.0000
       13 O1     3d1+      -0.0000   -0.0000    0.0000    0.0000   -0.0000   -0.0000   -0.0000   -0.0000   -0.0000    0.0000
       14 O1     3d2+      -0.0000    0.0000    0.0000   -0.0000    0.0000    0.0000    0.0000   -0.0000   -0.0000   -0.0000
       15 FE2    1s         1.0000    0.0000   -0.0000    0.0000   -0.0000    0.0000   -0.0000    0.0000   -0.0000    0.0000
       16 FE2    2s        -0.0000    1.0000   -0.0000    0.0000   -0.0003   -0.0000   -0.0023   -0.0000    0.0000   -0.0000
       17 FE2    3s         0.0000    0.0023   -0.0000    0.0000   -0.0000    0.0000    0.9999   -0.0000    0.0000   -0.0014
       18 FE2    4s        -0.0000   -0.0001    0.0000   -0.0000    0.0000    0.0000    0.0063    0.0000   -0.0000    0.0007
       19 FE2    5s         0.0000    0.0001    0.0000   -0.0000    0.0000    0.0000   -0.0044   -0.0000    0.0000   -0.0004
       20 FE2    2px       -0.0000   -0.0000    0.7930    0.6092   -0.0000   -0.0000    0.0000   -0.0017   -0.0012    0.0000
       21 FE2    3px        0.0000   -0.0000    0.0016    0.0012   -0.0000    0.0000   -0.0000    0.8122    0.5833   -0.0000
       22 FE2    4px       -0.0000    0.0000   -0.0002   -0.0001    0.0000   -0.0000    0.0000    0.0027    0.0019   -0.0000
       23 FE2    5px        0.0000   -0.0000    0.0005    0.0004   -0.0000   -0.0000   -0.0000   -0.0035   -0.0025    0.0000
       24 FE2    2py        0.0000    0.0000   -0.6092    0.7930    0.0001    0.0000   -0.0000    0.0012   -0.0017   -0.0000
       25 FE2    3py       -0.0000    0.0000   -0.0012    0.0016    0.0000   -0.0000    0.0000   -0.5833    0.8122    0.0001
       26 FE2    4py        0.0000   -0.0000    0.0001   -0.0002   -0.0000    0.0000   -0.0000   -0.0019    0.0027    0.0000
       27 FE2    5py       -0.0000    0.0000   -0.0004    0.0005    0.0000    0.0000    0.0000    0.0025   -0.0035   -0.0000
       28 FE2    2pz        0.0000    0.0003    0.0001   -0.0001    1.0000   -0.0000   -0.0000   -0.0000    0.0000   -0.0016
       29 FE2    3pz       -0.0000    0.0000    0.0000   -0.0000    0.0016    0.0000    0.0014    0.0001   -0.0001    1.0000
       30 FE2    4pz        0.0000    0.0000   -0.0000    0.0000   -0.0001    0.0000    0.0001    0.0000   -0.0000    0.0057
       31 FE2    5pz       -0.0000    0.0000    0.0000   -0.0000    0.0003    0.0000   -0.0001   -0.0000    0.0000   -0.0057
       32 FE2    3d2-       0.0000    0.0000    0.0000    0.0000   -0.0000   -0.0000    0.0000    0.0000    0.0000   -0.0000
       33 FE2    4d2-      -0.0000   -0.0000   -0.0000   -0.0000    0.0000   -0.0000   -0.0000   -0.0000   -0.0000    0.0000
       34 FE2    3d1-      -0.0000   -0.0000   -0.0000    0.0000    0.0000    0.0000   -0.0000   -0.0004    0.0006    0.0000
       35 FE2    4d1-       0.0000    0.0000    0.0000   -0.0000   -0.0000    0.0000    0.0000   -0.0000    0.0001    0.0000
       36 FE2    3d0       -0.0000   -0.0005    0.0000   -0.0000    0.0000    0.0000   -0.0124    0.0000   -0.0000    0.0008
       37 FE2    4d0        0.0000    0.0004   -0.0000    0.0000   -0.0000    0.0000    0.0041    0.0000   -0.0000    0.0002
       38 FE2    3d1+       0.0000    0.0000    0.0000    0.0000   -0.0000   -0.0000    0.0000    0.0006    0.0004   -0.0000
       39 FE2    4d1+      -0.0000   -0.0000   -0.0000   -0.0000    0.0000   -0.0000   -0.0000    0.0001    0.0000   -0.0000
       40 FE2    3d2+       0.0000    0.0000    0.0000   -0.0000    0.0000    0.0000    0.0000    0.0000   -0.0000    0.0000
       41 FE2    4d2+      -0.0000   -0.0000   -0.0000    0.0000   -0.0000   -0.0000   -0.0000   -0.0000    0.0000   -0.0000
       42 FE2    4f3-      -0.0000   -0.0000   -0.0000    0.0000    0.0000   -0.0000   -0.0000   -0.0000    0.0000    0.0000
       43 FE2    4f2-       0.0000   -0.0000   -0.0000   -0.0000    0.0000   -0.0000   -0.0000   -0.0000   -0.0000    0.0000
       44 FE2    4f1-      -0.0000   -0.0000    0.0002   -0.0002   -0.0000    0.0000   -0.0000    0.0047   -0.0065   -0.0000
       45 FE2    4f0        0.0000   -0.0000   -0.0000    0.0000   -0.0001    0.0000   -0.0000   -0.0000    0.0000   -0.0018
       46 FE2    4f1+       0.0000    0.0000   -0.0002   -0.0002    0.0000   -0.0000    0.0000   -0.0065   -0.0047    0.0000
       47 FE2    4f2+      -0.0000    0.0000   -0.0000    0.0000    0.0000   -0.0000    0.0000   -0.0000    0.0000   -0.0000
       48 FE2    4f3+      -0.0000   -0.0000    0.0000    0.0000    0.0000   -0.0000   -0.0000    0.0000    0.0000    0.0000
 
          Orbital           11        12        13        14        15        16        17        18        19        20    
          Energy           -2.0050   -1.3903   -1.3903   -0.8725   -0.8725   -0.8336   -0.7986   -0.7986   -0.5498   -0.3251
          Occ. No.          1.0000    1.0000    1.0000    1.0000    1.0000    1.0000    1.0000    1.0000    0.0000    0.0000
 
        1 O1     1s        -0.0004    0.0000    0.0000   -0.0000    0.0000   -0.0000   -0.0000    0.0000   -0.0000   -0.0007
        2 O1     2s         0.9962    0.0000    0.0000   -0.0000    0.0000   -0.0006   -0.0000    0.0000    0.0056   -0.0074
        3 O1     3s        -0.0712   -0.0000   -0.0000    0.0000    0.0000   -0.0003   -0.0000    0.0000   -0.0053    0.0041
        4 O1     2px       -0.0000   -0.2757    0.9506    0.0000   -0.0000   -0.0000   -0.0001   -0.0001    0.0000    0.0000
        5 O1     3px        0.0000    0.0398   -0.1373    0.0000   -0.0000    0.0000   -0.0003   -0.0003    0.0000    0.0000
        6 O1     2py        0.0000    0.9506    0.2757   -0.0000   -0.0000    0.0000    0.0001   -0.0001   -0.0001   -0.0000
        7 O1     3py       -0.0000   -0.1373   -0.0398   -0.0000   -0.0000   -0.0000    0.0003   -0.0003   -0.0000   -0.0000
        8 O1     2pz       -0.0062    0.0001    0.0000   -0.0000   -0.0000    0.0004    0.0000   -0.0000    0.9945    0.0234
        9 O1     3pz       -0.0003   -0.0000   -0.0000   -0.0000   -0.0000    0.0014    0.0000   -0.0000    0.1059   -0.0064
       10 O1     3d2-       0.0000   -0.0000    0.0000    0.0000   -0.0000   -0.0000   -0.0000   -0.0000    0.0000   -0.0000
       11 O1     3d1-       0.0000   -0.0017   -0.0005    0.0000    0.0000   -0.0000    0.0000   -0.0000    0.0000   -0.0000
       12 O1     3d0       -0.0509   -0.0000   -0.0000    0.0000    0.0000   -0.0000    0.0000   -0.0000   -0.0029    0.0008
       13 O1     3d1+      -0.0000    0.0005   -0.0017   -0.0000    0.0000    0.0000   -0.0000   -0.0000   -0.0000    0.0000
       14 O1     3d2+       0.0000   -0.0000   -0.0000    0.0000    0.0000   -0.0000   -0.0000    0.0000    0.0000   -0.0000
       15 FE2    1s        -0.0000   -0.0000   -0.0000    0.0000   -0.0000    0.0000    0.0000   -0.0000    0.0000   -0.0000
       16 FE2    2s        -0.0000   -0.0000   -0.0000    0.0000   -0.0000    0.0004    0.0000   -0.0000    0.0001    0.0001
       17 FE2    3s        -0.0000   -0.0000   -0.0000    0.0000   -0.0000    0.0124    0.0000   -0.0000    0.0005   -0.0058
       18 FE2    4s        -0.0001   -0.0000   -0.0000    0.0000   -0.0000   -0.0118    0.0000   -0.0000    0.0010    0.9916
       19 FE2    5s        -0.0004   -0.0000   -0.0000   -0.0000    0.0000    0.0072    0.0000   -0.0000    0.0025    0.0707
       20 FE2    2px        0.0000   -0.0000    0.0000    0.0000   -0.0000    0.0000   -0.0000   -0.0000   -0.0000    0.0000
       21 FE2    3px       -0.0000   -0.0000    0.0000    0.0000   -0.0000    0.0000   -0.0006   -0.0005   -0.0000    0.0000
       22 FE2    4px       -0.0000   -0.0001    0.0005   -0.0000    0.0000   -0.0000    0.0070    0.0068   -0.0000    0.0000
       23 FE2    5px       -0.0000   -0.0001    0.0002   -0.0000    0.0000   -0.0000    0.0003    0.0003   -0.0000    0.0000
       24 FE2    2py       -0.0000    0.0000    0.0000   -0.0000   -0.0000   -0.0000    0.0000   -0.0000    0.0000   -0.0000
       25 FE2    3py        0.0000    0.0000    0.0000   -0.0000   -0.0000   -0.0000    0.0005   -0.0006    0.0000   -0.0000
       26 FE2    4py        0.0000    0.0005    0.0001    0.0000    0.0000    0.0000   -0.0068    0.0070    0.0000   -0.0000
       27 FE2    5py        0.0000    0.0002    0.0001    0.0000    0.0000    0.0000   -0.0003    0.0003    0.0000   -0.0000
       28 FE2    2pz       -0.0000   -0.0000   -0.0000    0.0000    0.0000   -0.0000   -0.0000    0.0000    0.0000    0.0000
       29 FE2    3pz       -0.0000   -0.0000   -0.0000    0.0000    0.0000   -0.0008   -0.0000    0.0000    0.0004   -0.0012
       30 FE2    4pz       -0.0002   -0.0000   -0.0000    0.0000   -0.0000    0.0114    0.0000   -0.0000    0.0011    0.1014
       31 FE2    5pz       -0.0001   -0.0000   -0.0000   -0.0000   -0.0000    0.0005    0.0000   -0.0000    0.0004    0.0146
       32 FE2    3d2-       0.0000    0.0000   -0.0000    0.9658   -0.2594   -0.0000    0.0000    0.0000    0.0000   -0.0000
       33 FE2    4d2-      -0.0000    0.0000   -0.0000    0.0029   -0.0008   -0.0000    0.0000    0.0000   -0.0000    0.0000
       34 FE2    3d1-       0.0000    0.0001    0.0000    0.0000    0.0001    0.0002   -0.6961    0.7174   -0.0000    0.0000
       35 FE2    4d1-       0.0000    0.0003    0.0001   -0.0000    0.0000    0.0000   -0.0189    0.0194    0.0000   -0.0000
       36 FE2    3d0       -0.0000   -0.0000   -0.0000    0.0000   -0.0000    0.9997    0.0001   -0.0001    0.0022    0.0103
       37 FE2    4d0       -0.0000   -0.0000   -0.0000    0.0000   -0.0000    0.0156    0.0000   -0.0000    0.0002   -0.0064
       38 FE2    3d1+      -0.0000   -0.0000    0.0001   -0.0000    0.0001   -0.0000    0.7174    0.6961    0.0000   -0.0000
       39 FE2    4d1+      -0.0000   -0.0001    0.0003    0.0000    0.0000   -0.0000    0.0194    0.0189   -0.0000    0.0000
       40 FE2    3d2+       0.0000    0.0000    0.0000    0.2594    0.9658   -0.0000    0.0000   -0.0001    0.0000   -0.0000
       41 FE2    4d2+       0.0000    0.0000    0.0000    0.0008    0.0029   -0.0000    0.0000   -0.0000    0.0000    0.0000
       42 FE2    4f3-       0.0000   -0.0000   -0.0000   -0.0000    0.0000    0.0000    0.0000   -0.0000    0.0000    0.0000
       43 FE2    4f2-       0.0000   -0.0000    0.0000    0.0006   -0.0002   -0.0000    0.0000    0.0000    0.0000    0.0000
       44 FE2    4f1-       0.0000    0.0000    0.0000    0.0000    0.0000    0.0000   -0.0006    0.0006   -0.0000    0.0000
       45 FE2    4f0        0.0000   -0.0000   -0.0000   -0.0000   -0.0000    0.0009    0.0000   -0.0000   -0.0000    0.0001
       46 FE2    4f1+      -0.0000   -0.0000    0.0000   -0.0000    0.0000   -0.0000    0.0006    0.0006    0.0000   -0.0000
       47 FE2    4f2+      -0.0000   -0.0000   -0.0000    0.0002    0.0006   -0.0000    0.0000   -0.0000   -0.0000   -0.0000
       48 FE2    4f3+       0.0000    0.0000   -0.0000   -0.0000   -0.0000    0.0000    0.0000    0.0000    0.0000    0.0000
 
          Orbital           21        22        23        24    
          Energy           -0.1770   -0.1770   -0.1708   -0.0892
          Occ. No.          0.0000    0.0000    0.0000    0.0000
 
        1 O1     1s         0.0000   -0.0000   -0.0009   -0.0020
        2 O1     2s         0.0000   -0.0000   -0.0091   -0.0186
        3 O1     3s        -0.0000    0.0000    0.0159    0.0353
        4 O1     2px       -0.0002    0.0011    0.0000    0.0000
        5 O1     3px       -0.0024    0.0153    0.0000    0.0000
        6 O1     2py        0.0011    0.0002   -0.0000   -0.0000
        7 O1     3py        0.0153    0.0024   -0.0000   -0.0000
        8 O1     2pz       -0.0000    0.0000    0.0320    0.0443
        9 O1     3pz        0.0000   -0.0000   -0.0450   -0.0654
       10 O1     3d2-       0.0000   -0.0000   -0.0000   -0.0000
       11 O1     3d1-      -0.0004   -0.0001   -0.0000   -0.0000
       12 O1     3d0       -0.0000    0.0000    0.0020    0.0031
       13 O1     3d1+       0.0001   -0.0004    0.0000    0.0000
       14 O1     3d2+       0.0000    0.0000   -0.0000   -0.0000
       15 FE2    1s         0.0000   -0.0000   -0.0000   -0.0000
       16 FE2    2s         0.0000   -0.0000   -0.0001   -0.0002
       17 FE2    3s        -0.0000    0.0000    0.0006    0.0044
       18 FE2    4s         0.0000   -0.0000   -0.1120   -0.0658
       19 FE2    5s        -0.0000    0.0000    0.0825    0.9810
       20 FE2    2px       -0.0000    0.0002   -0.0000   -0.0000
       21 FE2    3px        0.0004   -0.0027    0.0000   -0.0000
       22 FE2    4px       -0.1535    0.9810   -0.0000    0.0000
       23 FE2    5px       -0.0177    0.1128   -0.0000    0.0000
       24 FE2    2py        0.0002    0.0000    0.0000    0.0000
       25 FE2    3py       -0.0027   -0.0004   -0.0000    0.0000
       26 FE2    4py        0.9810    0.1535    0.0001   -0.0000
       27 FE2    5py        0.1128    0.0177    0.0000   -0.0000
       28 FE2    2pz       -0.0000    0.0000    0.0001   -0.0000
       29 FE2    3pz        0.0000   -0.0000   -0.0049    0.0009
       30 FE2    4pz       -0.0002    0.0000    0.9772   -0.1056
       31 FE2    5pz       -0.0000    0.0000    0.1195   -0.0069
       32 FE2    3d2-       0.0000   -0.0000    0.0000    0.0000
       33 FE2    4d2-      -0.0000   -0.0000   -0.0000   -0.0000
       34 FE2    3d1-      -0.0100   -0.0016   -0.0000   -0.0000
       35 FE2    4d1-       0.0091    0.0014    0.0000    0.0000
       36 FE2    3d0        0.0000   -0.0000   -0.0136   -0.0073
       37 FE2    4d0       -0.0000    0.0000    0.0161    0.0155
       38 FE2    3d1+       0.0016   -0.0100    0.0000    0.0000
       39 FE2    4d1+      -0.0014    0.0091   -0.0000   -0.0000
       40 FE2    3d2+       0.0000    0.0000   -0.0000   -0.0000
       41 FE2    4d2+       0.0000    0.0000   -0.0000   -0.0000
       42 FE2    4f3-      -0.0000   -0.0000   -0.0000   -0.0000
       43 FE2    4f2-       0.0000   -0.0000    0.0000   -0.0000
       44 FE2    4f1-       0.0000    0.0000   -0.0000   -0.0000
       45 FE2    4f0        0.0000   -0.0000   -0.0003    0.0000
       46 FE2    4f1+      -0.0000    0.0000    0.0000    0.0000
       47 FE2    4f2+      -0.0000   -0.0000    0.0000    0.0000
       48 FE2    4f3+      -0.0000   -0.0000   -0.0000   -0.0000
--
 
 
  Input file to MOLDEN was generated!
 
 
++    Static properties:
      ------------------
 
 
      LoProp Charges per center
 

                   O1       FE2   
      Nuclear      8.0000  26.0000
      Electronic  -6.9999 -25.0001
 
      Total        1.0001   0.9999
--
 
 
      All orbitals with orbital energies smaller than  E(LUMO)+0.5 are printed
 
++    Molecular orbitals:
      -------------------
 
      Title: UHF orbitals (beta)

      Molecular orbitals for symmetry species 1: a  
 
          Orbital            1         2         3         4         5         6         7         8         9        10    
          Energy         -263.8694  -32.5624  -27.6363  -27.6363  -27.6357  -21.4463   -4.3097   -2.8431   -2.7937   -2.7937
          Occ. No.          1.0000    1.0000    1.0000    1.0000    1.0000    1.0000    1.0000    1.0000    1.0000    1.0000
 
        1 O1     1s         0.0000    0.0000   -0.0000   -0.0000    0.0000    1.0000    0.0000    0.0000   -0.0000    0.0000
        2 O1     2s        -0.0000    0.0000   -0.0000   -0.0000    0.0000   -0.0019    0.0001    0.0001   -0.0000    0.0000
        3 O1     3s        -0.0000    0.0000   -0.0000   -0.0000    0.0000    0.0002    0.0002    0.0001   -0.0000    0.0000
        4 O1     2px        0.0000    0.0000   -0.0000    0.0000   -0.0000    0.0000    0.0000   -0.0000    0.0000    0.0000
        5 O1     3px        0.0000    0.0000   -0.0000    0.0000   -0.0000   -0.0000    0.0000   -0.0000    0.0000    0.0001
        6 O1     2py       -0.0000   -0.0000    0.0000    0.0000    0.0000   -0.0000   -0.0000    0.0000    0.0000   -0.0000
        7 O1     3py       -0.0000   -0.0000    0.0000    0.0000    0.0000    0.0000   -0.0000    0.0000    0.0001   -0.0000
        8 O1     2pz        0.0000   -0.0000    0.0000    0.0000   -0.0000   -0.0000   -0.0001   -0.0001    0.0000   -0.0000
        9 O1     3pz        0.0000   -0.0000    0.0000    0.0000   -0.0000   -0.0000   -0.0003   -0.0001    0.0000   -0.0000
       10 O1     3d2-       0.0000    0.0000   -0.0000   -0.0000    0.0000   -0.0000   -0.0000   -0.0000    0.0000    0.0000
       11 O1     3d1-       0.0000    0.0000   -0.0000   -0.0000   -0.0000   -0.0000    0.0000   -0.0000   -0.0000    0.0000
       12 O1     3d0       -0.0000    0.0000   -0.0000   -0.0000    0.0000    0.0015    0.0000    0.0000   -0.0000    0.0000
       13 O1     3d1+      -0.0000   -0.0000    0.0000   -0.0000    0.0000    0.0000   -0.0000    0.0000   -0.0000   -0.0000
       14 O1     3d2+      -0.0000    0.0000    0.0000    0.0000    0.0000   -0.0000    0.0000   -0.0000   -0.0000    0.0000
       15 FE2    1s         1.0000    0.0000    0.0000    0.0000   -0.0000   -0.0000   -0.0000    0.0000   -0.0000    0.0000
       16 FE2    2s        -0.0000    1.0000    0.0000    0.0000   -0.0003   -0.0000    0.0002   -0.0000    0.0000   -0.0000
       17 FE2    3s         0.0000   -0.0002   -0.0000   -0.0000    0.0000   -0.0000    1.0000   -0.0016    0.0000   -0.0000
       18 FE2    4s        -0.0000    0.0001   -0.0000   -0.0000    0.0000   -0.0000    0.0076    0.0008   -0.0000    0.0000
       19 FE2    5s         0.0000   -0.0002    0.0000    0.0000   -0.0000   -0.0000   -0.0057   -0.0005    0.0000   -0.0000
       20 FE2    2px       -0.0000   -0.0000   -0.5451    0.8383   -0.0001    0.0000   -0.0000   -0.0000    0.0010    0.0016
       21 FE2    3px        0.0000    0.0000    0.0010   -0.0016    0.0000   -0.0000   -0.0000   -0.0000    0.5195    0.8543
       22 FE2    4px       -0.0000   -0.0000   -0.0002    0.0003   -0.0000    0.0000   -0.0000   -0.0000    0.0042    0.0069
       23 FE2    5px        0.0000   -0.0000    0.0004   -0.0006    0.0000    0.0000   -0.0000    0.0000   -0.0046   -0.0076
       24 FE2    2py        0.0000    0.0000    0.8383    0.5451    0.0002   -0.0000    0.0000    0.0000    0.0016   -0.0010
       25 FE2    3py       -0.0000   -0.0000   -0.0016   -0.0010   -0.0000    0.0000    0.0000    0.0001    0.8543   -0.5195
       26 FE2    4py        0.0000    0.0000    0.0003    0.0002    0.0000   -0.0000    0.0000    0.0000    0.0069   -0.0042
       27 FE2    5py       -0.0000    0.0000   -0.0006   -0.0004   -0.0000   -0.0000    0.0000   -0.0000   -0.0076    0.0046
       28 FE2    2pz        0.0000    0.0003   -0.0002   -0.0001    1.0000   -0.0000   -0.0000    0.0010   -0.0000    0.0000
       29 FE2    3pz       -0.0000    0.0000    0.0000    0.0000   -0.0010   -0.0000    0.0016    0.9997   -0.0001    0.0001
       30 FE2    4pz        0.0000   -0.0000   -0.0000   -0.0000    0.0003   -0.0000    0.0001    0.0107   -0.0000    0.0000
       31 FE2    5pz       -0.0000    0.0000    0.0000    0.0000   -0.0007   -0.0000   -0.0001   -0.0099    0.0000   -0.0000
       32 FE2    3d2-      -0.0000   -0.0000   -0.0000    0.0000   -0.0000    0.0000   -0.0000    0.0000   -0.0000   -0.0000
       33 FE2    4d2-      -0.0000   -0.0000    0.0000   -0.0000    0.0000    0.0000   -0.0000   -0.0000    0.0000   -0.0000
       34 FE2    3d1-       0.0000    0.0000    0.0000    0.0000    0.0000   -0.0000    0.0000    0.0000    0.0004   -0.0003
       35 FE2    4d1-       0.0000    0.0000   -0.0000   -0.0000   -0.0000   -0.0000   -0.0000   -0.0000    0.0003   -0.0002
       36 FE2    3d0        0.0000    0.0000   -0.0000   -0.0000    0.0000   -0.0000    0.0011    0.0014   -0.0000    0.0000
       37 FE2    4d0        0.0000    0.0000    0.0000    0.0000   -0.0000   -0.0000    0.0004   -0.0002   -0.0000    0.0000
       38 FE2    3d1+      -0.0000   -0.0000   -0.0000    0.0000   -0.0000    0.0000   -0.0000   -0.0000    0.0003    0.0004
       39 FE2    4d1+      -0.0000   -0.0000    0.0000   -0.0000    0.0000    0.0000    0.0000    0.0000    0.0002    0.0003
       40 FE2    3d2+      -0.0000   -0.0000   -0.0000   -0.0000   -0.0000    0.0000   -0.0000   -0.0000    0.0000   -0.0000
       41 FE2    4d2+      -0.0000   -0.0000    0.0000   -0.0000    0.0000    0.0000    0.0000    0.0000   -0.0000   -0.0000
       42 FE2    4f3-      -0.0000    0.0000   -0.0000   -0.0000   -0.0000   -0.0000    0.0000   -0.0000   -0.0000    0.0000
       43 FE2    4f2-      -0.0000    0.0000    0.0000    0.0000    0.0000   -0.0000    0.0000    0.0000    0.0000   -0.0000
       44 FE2    4f1-      -0.0000    0.0000    0.0006    0.0004   -0.0000   -0.0000    0.0000   -0.0000    0.0110   -0.0067
       45 FE2    4f0       -0.0000    0.0000   -0.0000   -0.0000   -0.0011   -0.0000    0.0000   -0.0211   -0.0000    0.0000
       46 FE2    4f1+       0.0000   -0.0000   -0.0004    0.0006    0.0000    0.0000   -0.0000    0.0000    0.0067    0.0110
       47 FE2    4f2+       0.0000   -0.0000   -0.0000   -0.0000    0.0000   -0.0000   -0.0000    0.0000   -0.0000   -0.0000
       48 FE2    4f3+      -0.0000    0.0000    0.0000    0.0000   -0.0000   -0.0000    0.0000   -0.0000    0.0000    0.0000
 
          Orbital           11        12        13        14        15        16        17        18        19        20    
          Energy           -1.8251   -1.3456   -0.6966   -0.6966   -0.5156   -0.5156   -0.3082   -0.1600   -0.1560   -0.1560
          Occ. No.          1.0000    1.0000    1.0000    1.0000    0.0000    0.0000    0.0000    0.0000    0.0000    0.0000
 
        1 O1     1s         0.0018    0.0000    0.0000    0.0000    0.0000    0.0000   -0.0009   -0.0009    0.0000   -0.0000
        2 O1     2s         0.9974    0.0043    0.0000    0.0000    0.0000    0.0000   -0.0104   -0.0105    0.0000   -0.0000
        3 O1     3s        -0.0468   -0.0032    0.0000    0.0000   -0.0000   -0.0000    0.0047    0.0151   -0.0000    0.0000
        4 O1     2px        0.0000    0.0000    0.0003   -0.0001   -0.2705    0.9536   -0.0000   -0.0000   -0.0066    0.0012
        5 O1     3px       -0.0000   -0.0000   -0.0002    0.0001   -0.0360    0.1270   -0.0000   -0.0000    0.0097   -0.0017
        6 O1     2py       -0.0000   -0.0001    0.0001    0.0003    0.9536    0.2705    0.0000    0.0000   -0.0012   -0.0066
        7 O1     3py        0.0000    0.0000   -0.0001   -0.0002    0.1270    0.0360    0.0000    0.0000    0.0017    0.0097
        8 O1     2pz       -0.0046    0.9917   -0.0000   -0.0000    0.0001    0.0000    0.0060   -0.0025    0.0000   -0.0000
        9 O1     3pz       -0.0018   -0.1281   -0.0000   -0.0000    0.0000    0.0000   -0.0178   -0.0834    0.0000   -0.0000
       10 O1     3d2-      -0.0000   -0.0000    0.0000   -0.0000    0.0000   -0.0000    0.0000    0.0000    0.0000   -0.0000
       11 O1     3d1-      -0.0000    0.0000   -0.0000   -0.0000   -0.0015   -0.0004    0.0000    0.0000   -0.0001   -0.0004
       12 O1     3d0        0.0554   -0.0012   -0.0000   -0.0000   -0.0000   -0.0000    0.0005    0.0012   -0.0000    0.0000
       13 O1     3d1+       0.0000   -0.0000   -0.0000    0.0000    0.0004   -0.0015   -0.0000   -0.0000   -0.0004    0.0001
       14 O1     3d2+      -0.0000   -0.0000   -0.0000   -0.0000    0.0000    0.0000    0.0000    0.0000   -0.0000   -0.0000
       15 FE2    1s        -0.0000   -0.0000   -0.0000   -0.0000    0.0000    0.0000   -0.0000   -0.0000    0.0000   -0.0000
       16 FE2    2s        -0.0000   -0.0000    0.0000    0.0000    0.0000    0.0000   -0.0001   -0.0000    0.0000   -0.0000
       17 FE2    3s        -0.0000   -0.0001   -0.0000   -0.0000    0.0000    0.0000   -0.0067    0.0009   -0.0000    0.0000
       18 FE2    4s        -0.0004   -0.0014   -0.0000   -0.0000   -0.0000   -0.0000    0.9812   -0.1310    0.0000   -0.0000
       19 FE2    5s        -0.0010   -0.0013    0.0000    0.0000    0.0000    0.0000    0.1457    0.0586   -0.0000    0.0000
       20 FE2    2px        0.0000    0.0000   -0.0000    0.0000    0.0000   -0.0000   -0.0000   -0.0000   -0.0002    0.0000
       21 FE2    3px       -0.0000    0.0000   -0.0006    0.0003    0.0000   -0.0001    0.0000   -0.0000   -0.0067    0.0012
       22 FE2    4px        0.0000    0.0000    0.0144   -0.0070    0.0001   -0.0003    0.0000    0.0000    0.9758   -0.1737
       23 FE2    5px        0.0000    0.0000    0.0009   -0.0004    0.0000   -0.0001    0.0000    0.0000    0.1275   -0.0227
       24 FE2    2py       -0.0000   -0.0000   -0.0000   -0.0000   -0.0000   -0.0000    0.0000    0.0000   -0.0000   -0.0002
       25 FE2    3py        0.0000   -0.0000   -0.0003   -0.0006   -0.0001   -0.0000   -0.0000    0.0000   -0.0012   -0.0067
       26 FE2    4py       -0.0000   -0.0000    0.0070    0.0144   -0.0003   -0.0001   -0.0000   -0.0001    0.1737    0.9758
       27 FE2    5py       -0.0000   -0.0000    0.0004    0.0009   -0.0001   -0.0000   -0.0000   -0.0000    0.0227    0.1275
       28 FE2    2pz       -0.0000   -0.0000    0.0000    0.0000    0.0000    0.0000   -0.0000   -0.0002    0.0000   -0.0000
       29 FE2    3pz       -0.0000   -0.0001    0.0000    0.0000    0.0000    0.0000   -0.0018   -0.0092    0.0000   -0.0000
       30 FE2    4pz       -0.0005   -0.0015   -0.0000   -0.0000   -0.0000   -0.0000    0.1101    0.9690   -0.0000    0.0001
       31 FE2    5pz       -0.0003   -0.0005   -0.0000   -0.0000    0.0000    0.0000    0.0170    0.1280   -0.0000    0.0000
       32 FE2    3d2-      -0.0000    0.0000    0.0000    0.0000   -0.0000   -0.0000    0.0000    0.0000   -0.0000   -0.0000
       33 FE2    4d2-       0.0000    0.0000    0.0000    0.0000   -0.0000   -0.0000    0.0000    0.0000   -0.0000   -0.0000
       34 FE2    3d1-      -0.0000    0.0000    0.4383    0.8957   -0.0013   -0.0004    0.0000    0.0000   -0.0029   -0.0164
       35 FE2    4d1-      -0.0000   -0.0000    0.0320    0.0654   -0.0002   -0.0001    0.0000    0.0000    0.0014    0.0078
       36 FE2    3d0       -0.0001   -0.0002   -0.0000   -0.0002    0.0000    0.0000    0.0050    0.0330   -0.0000    0.0000
       37 FE2    4d0       -0.0002   -0.0004   -0.0000   -0.0000    0.0000    0.0000    0.0015    0.0223   -0.0000    0.0000
       38 FE2    3d1+       0.0000   -0.0000    0.8957   -0.4383    0.0004   -0.0013   -0.0000   -0.0000   -0.0164    0.0029
       39 FE2    4d1+       0.0000    0.0000    0.0654   -0.0320    0.0001   -0.0002   -0.0000   -0.0000    0.0078   -0.0014
       40 FE2    3d2+       0.0000   -0.0000   -0.0001   -0.0001    0.0000    0.0000   -0.0000   -0.0000    0.0000    0.0000
       41 FE2    4d2+      -0.0000   -0.0000   -0.0000   -0.0000    0.0000    0.0000   -0.0000   -0.0000    0.0000    0.0000
       42 FE2    4f3-       0.0000    0.0000   -0.0000    0.0000    0.0000    0.0000   -0.0000   -0.0000   -0.0000   -0.0000
       43 FE2    4f2-       0.0000    0.0000    0.0000    0.0000    0.0000   -0.0000   -0.0000   -0.0000   -0.0000    0.0000
       44 FE2    4f1-      -0.0000   -0.0000    0.0004    0.0008    0.0000    0.0000   -0.0000   -0.0000    0.0002    0.0013
       45 FE2    4f0       -0.0000   -0.0000   -0.0000   -0.0000   -0.0000   -0.0000   -0.0003   -0.0015    0.0000   -0.0000
       46 FE2    4f1+       0.0000    0.0000    0.0008   -0.0004   -0.0000    0.0000    0.0000    0.0000    0.0013   -0.0002
       47 FE2    4f2+      -0.0000   -0.0000   -0.0000   -0.0000    0.0000   -0.0000    0.0000    0.0000   -0.0000   -0.0000
       48 FE2    4f3+       0.0000    0.0000    0.0000    0.0000    0.0000    0.0000   -0.0000   -0.0000    0.0000   -0.0000
 
          Orbital           21        22        23    
          Energy           -0.0712   -0.0163   -0.0163
          Occ. No.          0.0000    0.0000    0.0000
 
        1 O1     1s        -0.0019   -0.0000    0.0000
        2 O1     2s        -0.0208   -0.0000    0.0000
        3 O1     3s         0.0333   -0.0000    0.0000
        4 O1     2px       -0.0000   -0.0000    0.0000
        5 O1     3px       -0.0000    0.0000   -0.0000
        6 O1     2py        0.0000   -0.0000   -0.0000
        7 O1     3py        0.0000    0.0000    0.0000
        8 O1     2pz       -0.0049    0.0000   -0.0000
        9 O1     3pz       -0.1558    0.0000   -0.0000
       10 O1     3d2-       0.0000   -0.0000    0.0000
       11 O1     3d1-       0.0000   -0.0000   -0.0000
       12 O1     3d0        0.0011   -0.0000    0.0000
       13 O1     3d1+      -0.0000   -0.0000    0.0000
       14 O1     3d2+       0.0000    0.0000    0.0000
       15 FE2    1s        -0.0000    0.0000   -0.0000
       16 FE2    2s         0.0001    0.0000   -0.0000
       17 FE2    3s         0.0061    0.0000   -0.0000
       18 FE2    4s        -0.1480    0.0000   -0.0000
       19 FE2    5s         0.9520    0.0000   -0.0000
       20 FE2    2px        0.0000   -0.0000    0.0000
       21 FE2    3px       -0.0000   -0.0000    0.0000
       22 FE2    4px        0.0000   -0.0000    0.0000
       23 FE2    5px        0.0000   -0.0000    0.0000
       24 FE2    2py       -0.0000   -0.0000   -0.0000
       25 FE2    3py        0.0000   -0.0000   -0.0000
       26 FE2    4py       -0.0000   -0.0000   -0.0000
       27 FE2    5py       -0.0000   -0.0000   -0.0000
       28 FE2    2pz        0.0000    0.0000   -0.0000
       29 FE2    3pz        0.0013    0.0000   -0.0000
       30 FE2    4pz       -0.1150    0.0000   -0.0000
       31 FE2    5pz       -0.0087    0.0000   -0.0000
       32 FE2    3d2-      -0.0000   -0.2548    0.9190
       33 FE2    4d2-      -0.0000   -0.0803    0.2898
       34 FE2    3d1-       0.0000    0.0001    0.0000
       35 FE2    4d1-       0.0000    0.0000    0.0000
       36 FE2    3d0        0.0187   -0.0000    0.0000
       37 FE2    4d0        0.0138   -0.0000    0.0000
       38 FE2    3d1+      -0.0000    0.0001   -0.0000
       39 FE2    4d1+      -0.0000    0.0000   -0.0000
       40 FE2    3d2+       0.0000    0.9190    0.2548
       41 FE2    4d2+      -0.0000    0.2898    0.0803
       42 FE2    4f3-       0.0000    0.0000   -0.0000
       43 FE2    4f2-       0.0000   -0.0002    0.0007
       44 FE2    4f1-       0.0000    0.0000    0.0000
       45 FE2    4f0        0.0004   -0.0000    0.0000
       46 FE2    4f1+      -0.0000    0.0000   -0.0000
       47 FE2    4f2+      -0.0000    0.0007    0.0002
       48 FE2    4f3+       0.0000   -0.0000   -0.0000
--
 
 
++    Molecular charges:
      ------------------
 
      Mulliken charges per centre and basis function type
      ---------------------------------------------------
 
                            O1                      FE2   
                     alpha        beta       alpha        beta
      1s           1.0000      1.0000      1.0000      1.0000
      2s           0.9923      0.9948      1.0000      1.0000
      2px          0.9796      0.0000      1.0000      1.0000
      2pz          0.0000      0.9836      1.0000      1.0000
      2py          0.9796      0.0000      1.0000      1.0000
      3s           0.0051      0.0022      0.9999      0.9999
      3px          0.0204     -0.0000      0.9999      0.9997
      3pz         -0.0000      0.0164      0.9999      0.9993
      3py          0.0204     -0.0000      0.9999      0.9997
      4s           0.0000      0.0000      0.0002      0.0001
      3d2+         0.0000      0.0000      1.0000      0.0000
      3d1+         0.0000      0.0000      0.9992      0.9944
      3d0          0.0026      0.0031      0.9994      0.0000
      3d1-         0.0000      0.0000      0.9992      0.9944
      3d2-         0.0000      0.0000      1.0000      0.0000
      4px          0.0000      0.0000      0.0001      0.0003
      4pz          0.0000      0.0000      0.0002      0.0001
      4py          0.0000      0.0000      0.0001      0.0003
      5s           0.0000      0.0000      0.0001      0.0000
      4d2+         0.0000      0.0000      0.0000      0.0000
      4d1+         0.0000      0.0000      0.0007      0.0053
      4d0          0.0000      0.0000      0.0003      0.0000
      4d1-         0.0000      0.0000      0.0007      0.0053
      4d2-         0.0000      0.0000      0.0000      0.0000
      5px          0.0000      0.0000      0.0000      0.0001
      5pz          0.0000      0.0000      0.0000      0.0001
      5py          0.0000      0.0000      0.0000      0.0001
      4f3+         0.0000      0.0000      0.0000      0.0000
      4f2+         0.0000      0.0000      0.0000      0.0000
      4f1+         0.0000      0.0000      0.0001      0.0002
      4f0          0.0000      0.0000      0.0000      0.0004
      4f1-         0.0000      0.0000      0.0001      0.0002
      4f2-         0.0000      0.0000      0.0000      0.0000
      4f3-         0.0000      0.0000      0.0000      0.0000
      Total        4.0000      3.0000     14.0000     11.0000
      Total              7.0000                 25.0000
 
      Charge            1.0000                  1.0000
 
      Total electronic charge=   32.000000
 
      Total            charge=    2.000000
--
 
 
  Input file to MOLDEN was generated!
 
 
++    Static properties:
      ------------------
 
 
      LoProp Charges per center
 

                   O1       FE2   
      Nuclear      8.0000  26.0000
      Electronic  -6.9999 -25.0001
 
      Total        1.0001   0.9999
--
 
 
++    Natural Bond Order analysis
      ---------------------------
      Based on LoProp computed density
      -------------------------------------------------------------------------------------
      Atom A       Atom B       Bond Order
      -------------------------------------------------------------------------------------
      NBO located     19.999 core electrons.
      NBO located      5.992 lone pair electrons.
      NBO located      1.000 non-bonded electrons on atom O1        
      NBO located      1.000 non-bonded electrons on atom O1        
      NBO located      1.000 non-bonded electrons on atom O1        
      NBO located      1.000 non-bonded electrons on atom FE2       
      NBO located      1.000 non-bonded electrons on atom FE2       
      NBO located      1.000 non-bonded electrons on atom FE2       
      The remaining    0.009 electrons are to be considered as diffuse
--
 
 
++    Molecular orbitals:
      -------------------
 
      Title: Natural orbitals

      Molecular orbitals for symmetry species 1: a  
 
          Orbital            1         2         3         4         5         6         7         8         9        10    
          Energy         -263.8700  -32.2782  -21.4704  -27.5481  -27.5808  -27.5807   -4.7625   -3.0558   -3.0665   -3.0666
          Occ. No.          2.0000    2.0000    2.0000    2.0000    2.0000    2.0000    2.0000    1.9998    1.9998    1.9998
 
        1 O1     1s         0.0000   -0.0049   -0.9980    0.0542    0.0000   -0.0000    0.0055    0.0001    0.0000   -0.0000
        2 O1     2s        -0.0000    0.0001    0.0301   -0.0016   -0.0000    0.0000    0.0001    0.0002    0.0000   -0.0000
        3 O1     3s        -0.0000   -0.0000   -0.0013    0.0001    0.0000   -0.0000    0.0002    0.0001    0.0000   -0.0000
        4 O1     2px        0.0000   -0.0000    0.0000   -0.0000   -0.0000   -0.0000   -0.0000   -0.0000    0.0000    0.0000
        5 O1     3px        0.0000    0.0000   -0.0000    0.0000   -0.0000   -0.0000    0.0000   -0.0000    0.0001    0.0000
        6 O1     2py       -0.0000    0.0000   -0.0000    0.0000    0.0000   -0.0000    0.0000    0.0000   -0.0000    0.0000
        7 O1     3py       -0.0000   -0.0000    0.0000   -0.0000    0.0000   -0.0000   -0.0000    0.0000   -0.0000    0.0001
        8 O1     2pz        0.0000    0.0000   -0.0002    0.0000    0.0000   -0.0000   -0.0001   -0.0001   -0.0000    0.0000
        9 O1     3pz        0.0000    0.0000   -0.0000   -0.0000    0.0000   -0.0000   -0.0002   -0.0001   -0.0000    0.0000
       10 O1     3d2-       0.0000    0.0000   -0.0000    0.0000    0.0000   -0.0000   -0.0000   -0.0000   -0.0000   -0.0000
       11 O1     3d1-       0.0000    0.0000   -0.0000    0.0000   -0.0000    0.0000    0.0000   -0.0000    0.0000   -0.0000
       12 O1     3d0       -0.0000   -0.0000    0.0000    0.0000   -0.0000    0.0000    0.0000    0.0000    0.0000   -0.0000
       13 O1     3d1+      -0.0000   -0.0000    0.0000   -0.0000    0.0000    0.0000   -0.0000    0.0000   -0.0000   -0.0000
       14 O1     3d2+       0.0000   -0.0000   -0.0000    0.0000    0.0000    0.0000   -0.0000   -0.0000   -0.0000    0.0000
       15 FE2    1s         1.0000   -0.0001    0.0000   -0.0000   -0.0000    0.0000    0.0002    0.0000    0.0000   -0.0000
       16 FE2    2s         0.0001    0.9943   -0.0042    0.0026   -0.0000    0.0000    0.1066    0.0000   -0.0000    0.0000
       17 FE2    3s        -0.0002   -0.1066    0.0062    0.0040   -0.0000    0.0000    0.9942   -0.0023   -0.0000    0.0000
       18 FE2    4s        -0.0000   -0.0007    0.0000   -0.0000   -0.0000    0.0000    0.0068    0.0007   -0.0000    0.0000
       19 FE2    5s         0.0000    0.0005   -0.0000    0.0000    0.0000   -0.0000   -0.0050   -0.0004   -0.0000    0.0000
       20 FE2    2px       -0.0000    0.0000   -0.0000   -0.0000    0.7914    0.6079    0.0000   -0.0000    0.0521    0.0378
       21 FE2    3px       -0.0000    0.0000    0.0000    0.0000   -0.0511   -0.0392    0.0000   -0.0000    0.8079    0.5851
       22 FE2    4px        0.0000   -0.0000   -0.0000    0.0000   -0.0002   -0.0002   -0.0000   -0.0000    0.0043    0.0031
       23 FE2    5px        0.0000   -0.0000   -0.0000   -0.0000    0.0003    0.0002   -0.0000    0.0000   -0.0054   -0.0039
       24 FE2    2py        0.0000   -0.0000    0.0000    0.0001   -0.6079    0.7914   -0.0000    0.0000   -0.0377    0.0521
       25 FE2    3py        0.0000   -0.0000   -0.0000   -0.0000    0.0392   -0.0511   -0.0000    0.0001   -0.5851    0.8079
       26 FE2    4py       -0.0000    0.0000    0.0000   -0.0000    0.0002   -0.0002    0.0000    0.0000   -0.0031    0.0043
       27 FE2    5py       -0.0000    0.0000    0.0000    0.0000   -0.0002    0.0003    0.0000   -0.0000    0.0039   -0.0054
       28 FE2    2pz        0.0000   -0.0019    0.0541    0.9965    0.0001   -0.0000   -0.0044    0.0638    0.0000   -0.0000
       29 FE2    3pz       -0.0000   -0.0002   -0.0033   -0.0637   -0.0000    0.0000    0.0026    0.9978    0.0001   -0.0001
       30 FE2    4pz        0.0000   -0.0000   -0.0000   -0.0004   -0.0000    0.0000    0.0002    0.0082    0.0000   -0.0000
       31 FE2    5pz       -0.0000    0.0000    0.0000    0.0003    0.0000   -0.0000   -0.0001   -0.0078   -0.0000    0.0000
       32 FE2    3d2-       0.0000   -0.0000   -0.0000    0.0000   -0.0000   -0.0000   -0.0000   -0.0000   -0.0000   -0.0000
       33 FE2    4d2-       0.0000   -0.0000   -0.0000   -0.0000   -0.0000   -0.0000   -0.0000   -0.0000   -0.0000   -0.0000
       34 FE2    3d1-      -0.0000    0.0000    0.0000   -0.0000    0.0001   -0.0001    0.0000    0.0000    0.0144   -0.0199
       35 FE2    4d1-      -0.0000    0.0000    0.0000    0.0000    0.0000   -0.0000    0.0000    0.0000    0.0006   -0.0008
       36 FE2    3d0       -0.0000   -0.0001    0.0000   -0.0001   -0.0000    0.0000    0.0010    0.0014   -0.0000    0.0000
       37 FE2    4d0        0.0000   -0.0000    0.0000   -0.0000   -0.0000    0.0000    0.0024    0.0000   -0.0000    0.0000
       38 FE2    3d1+       0.0000   -0.0000   -0.0000    0.0000   -0.0001   -0.0001   -0.0000   -0.0000   -0.0199   -0.0144
       39 FE2    4d1+       0.0000   -0.0000   -0.0000   -0.0000   -0.0000   -0.0000   -0.0000   -0.0000   -0.0008   -0.0006
       40 FE2    3d2+       0.0000   -0.0000   -0.0000    0.0000   -0.0000    0.0000   -0.0000   -0.0000   -0.0000    0.0000
       41 FE2    4d2+       0.0000   -0.0000   -0.0000   -0.0000   -0.0000    0.0000   -0.0000   -0.0000   -0.0000    0.0000
       42 FE2    4f3-      -0.0000    0.0000   -0.0000    0.0000    0.0000   -0.0000    0.0000   -0.0000   -0.0000   -0.0000
       43 FE2    4f2-       0.0000   -0.0000   -0.0000   -0.0000    0.0000    0.0000   -0.0000    0.0000   -0.0000    0.0000
       44 FE2    4f1-      -0.0000    0.0000    0.0000    0.0000   -0.0001    0.0001    0.0000   -0.0000   -0.0014    0.0019
       45 FE2    4f0        0.0000    0.0000    0.0000    0.0002    0.0000   -0.0000    0.0000   -0.0114    0.0000   -0.0000
       46 FE2    4f1+       0.0000   -0.0000   -0.0000   -0.0000    0.0001    0.0001   -0.0000    0.0000    0.0019    0.0014
       47 FE2    4f2+       0.0000   -0.0000   -0.0000   -0.0000    0.0000   -0.0000   -0.0000    0.0000    0.0000   -0.0000
       48 FE2    4f3+      -0.0000    0.0000   -0.0000    0.0000   -0.0000   -0.0000    0.0000   -0.0000    0.0000    0.0000
 
          Orbital           11        12        13        14        15        16        17        18        19        20    
          Energy           -0.7484   -0.7484   -1.9219   -0.6442   -0.9270   -0.9270   -0.4041   -0.4041   -0.6437    1.4316
          Occ. No.          1.9989    1.9989    1.9940    1.0005    1.0000    1.0000    1.0000    1.0000    0.9995    0.0060
 
        1 O1     1s        -0.0000   -0.0000    0.0301   -0.0000   -0.0000   -0.0000    0.0000    0.0000   -0.0000    0.0001
        2 O1     2s        -0.0000   -0.0000    0.9978   -0.0046   -0.0000   -0.0000    0.0000    0.0000    0.0037    0.0112
        3 O1     3s         0.0000    0.0000   -0.0591    0.0021   -0.0000   -0.0000    0.0000    0.0000   -0.0026    0.2239
        4 O1     2px        0.0003    0.0001    0.0000    0.0003   -0.2757    0.9506   -0.0000   -0.0000    0.0003   -0.0000
        5 O1     3px       -0.0003   -0.0001   -0.0000   -0.0000    0.0398   -0.1373    0.0000    0.0000   -0.0000   -0.0000
        6 O1     2py        0.0001   -0.0003   -0.0000   -0.0010    0.9506    0.2757   -0.0000   -0.0000   -0.0011    0.0000
        7 O1     3py       -0.0001    0.0003    0.0000    0.0001   -0.1373   -0.0398    0.0000    0.0000    0.0002    0.0000
        8 O1     2pz       -0.0000   -0.0000   -0.0062   -0.7008    0.0001    0.0000   -0.0000   -0.0000    0.7017    0.0002
        9 O1     3pz        0.0000    0.0000   -0.0009    0.0916   -0.0000   -0.0000   -0.0000   -0.0000   -0.0896   -0.0119
       10 O1     3d2-       0.0000    0.0000   -0.0000    0.0000   -0.0000    0.0000    0.0000    0.0000    0.0000   -0.0000
       11 O1     3d1-      -0.0000    0.0000   -0.0000    0.0000   -0.0017   -0.0005    0.0000    0.0000    0.0000   -0.0002
       12 O1     3d0        0.0000    0.0000    0.0023    0.0008   -0.0000   -0.0000    0.0000    0.0000   -0.0008    0.9747
       13 O1     3d1+      -0.0000   -0.0000    0.0000   -0.0000    0.0005   -0.0017    0.0000    0.0000   -0.0000    0.0000
       14 O1     3d2+      -0.0000    0.0000   -0.0000    0.0000   -0.0000   -0.0000    0.0000   -0.0000    0.0000   -0.0000
       15 FE2    1s        -0.0000   -0.0000   -0.0000    0.0000   -0.0000   -0.0000    0.0000    0.0000   -0.0000   -0.0000
       16 FE2    2s         0.0000    0.0000    0.0000   -0.0000   -0.0000   -0.0000    0.0000    0.0000   -0.0000   -0.0000
       17 FE2    3s         0.0000    0.0000   -0.0002   -0.0006   -0.0000   -0.0000    0.0000    0.0000   -0.0007   -0.0000
       18 FE2    4s         0.0000    0.0000   -0.0003   -0.0074   -0.0000   -0.0000    0.0000    0.0000   -0.0094   -0.0026
       19 FE2    5s        -0.0000   -0.0000   -0.0007    0.0061    0.0000    0.0000   -0.0000   -0.0000    0.0042   -0.0048
       20 FE2    2px        0.0017    0.0003    0.0000    0.0000   -0.0000    0.0000    0.0000    0.0000    0.0000    0.0000
       21 FE2    3px        0.0241    0.0040    0.0000    0.0000   -0.0000    0.0000    0.0000    0.0000    0.0000   -0.0000
       22 FE2    4px        0.0129    0.0021    0.0000   -0.0000   -0.0001    0.0005   -0.0000   -0.0000   -0.0000    0.0000
       23 FE2    5px        0.0005    0.0001   -0.0000    0.0000   -0.0001    0.0002   -0.0000   -0.0000    0.0000    0.0000
       24 FE2    2py        0.0003   -0.0017   -0.0000   -0.0000    0.0000    0.0000   -0.0000    0.0000   -0.0000   -0.0000
       25 FE2    3py        0.0040   -0.0241   -0.0000   -0.0000    0.0000    0.0000   -0.0000    0.0000   -0.0000    0.0000
       26 FE2    4py        0.0021   -0.0129   -0.0000    0.0000    0.0005    0.0001    0.0000   -0.0000    0.0000   -0.0000
       27 FE2    5py        0.0001   -0.0005    0.0000   -0.0000    0.0002    0.0001    0.0000   -0.0000   -0.0000   -0.0000
       28 FE2    2pz        0.0000    0.0000   -0.0000   -0.0000   -0.0000   -0.0000    0.0000    0.0000   -0.0000   -0.0000
       29 FE2    3pz        0.0000    0.0000   -0.0002   -0.0010   -0.0000   -0.0000    0.0000    0.0000   -0.0011   -0.0000
       30 FE2    4pz        0.0000    0.0000   -0.0003    0.0091    0.0000    0.0000   -0.0000   -0.0000    0.0070   -0.0033
       31 FE2    5pz        0.0000    0.0000   -0.0002    0.0007    0.0000    0.0000   -0.0000   -0.0000   -0.0000   -0.0017
       32 FE2    3d2-       0.0001    0.0000    0.0000    0.0000   -0.0000    0.0000    0.9658    0.2594    0.0000   -0.0000
       33 FE2    4d2-       0.0000    0.0000    0.0000   -0.0000    0.0000    0.0000    0.0029    0.0008   -0.0000    0.0000
       34 FE2    3d1-       0.1638   -0.9848   -0.0000    0.0001   -0.0004   -0.0001    0.0000   -0.0001    0.0001    0.0000
       35 FE2    4d1-       0.0082   -0.0493   -0.0000    0.0000    0.0002    0.0001   -0.0000   -0.0000    0.0000   -0.0000
       36 FE2    3d0        0.0000    0.0002   -0.0000    0.7069    0.0015    0.0000   -0.0000    0.0000    0.7069   -0.0011
       37 FE2    4d0        0.0000    0.0000   -0.0001    0.0113    0.0000    0.0000    0.0000   -0.0000    0.0107   -0.0014
       38 FE2    3d1+       0.9848    0.1638    0.0000   -0.0000    0.0001   -0.0004   -0.0000   -0.0001   -0.0000   -0.0000
       39 FE2    4d1+       0.0493    0.0082    0.0000   -0.0000   -0.0001    0.0002    0.0000   -0.0000   -0.0000    0.0000
       40 FE2    3d2+      -0.0001    0.0001    0.0000   -0.0000    0.0000   -0.0000    0.2594   -0.9658   -0.0000   -0.0000
       41 FE2    4d2+      -0.0000    0.0000    0.0000   -0.0000    0.0000    0.0000    0.0008   -0.0029   -0.0000    0.0000
       42 FE2    4f3-      -0.0000   -0.0000    0.0000    0.0000    0.0000   -0.0000   -0.0000   -0.0000    0.0000    0.0000
       43 FE2    4f2-       0.0000   -0.0000   -0.0000    0.0000   -0.0000    0.0000    0.0006    0.0002    0.0000   -0.0000
       44 FE2    4f1-       0.0002   -0.0009   -0.0000    0.0000    0.0000    0.0000    0.0000   -0.0000    0.0000    0.0000
       45 FE2    4f0        0.0000    0.0000    0.0000    0.0006    0.0000    0.0000   -0.0000    0.0000    0.0006   -0.0000
       46 FE2    4f1+       0.0009    0.0002    0.0000   -0.0000   -0.0000    0.0000   -0.0000   -0.0000   -0.0000   -0.0000
       47 FE2    4f2+      -0.0000    0.0000    0.0000   -0.0000    0.0000   -0.0000    0.0002   -0.0006   -0.0000   -0.0000
       48 FE2    4f3+       0.0000   -0.0000    0.0000    0.0000    0.0000   -0.0000   -0.0000    0.0000    0.0000    0.0000
 
          Orbital           21        22        23        24        25        26        27        28        29        30    
          Energy            0.6895    0.6895    3.5175    3.5175    3.4779    0.5498    1.9967    1.9967    2.0385    0.4319
          Occ. No.          0.0011    0.0011    0.0002    0.0002    0.0002    0.0000    0.0000    0.0000    0.0000    0.0000
 
        1 O1     1s         0.0000    0.0000    0.0000   -0.0000   -0.0001    0.0008   -0.0000    0.0000   -0.0013   -0.0008
        2 O1     2s         0.0000    0.0000    0.0000   -0.0000   -0.0015    0.0111   -0.0000    0.0000   -0.0174   -0.0617
        3 O1     3s        -0.0000   -0.0000    0.0000   -0.0000   -0.0019    0.0193   -0.0000    0.0000   -0.0547   -0.9672
        4 O1     2px       -0.0000    0.0001    0.0001    0.0001    0.0000   -0.0000   -0.0026   -0.0023    0.0000   -0.0000
        5 O1     3px       -0.0019    0.0058    0.0001    0.0001    0.0000   -0.0000   -0.0118   -0.0102    0.0000   -0.0000
        6 O1     2py        0.0001    0.0000   -0.0001    0.0001   -0.0000    0.0000    0.0023   -0.0026   -0.0000    0.0000
        7 O1     3py        0.0058    0.0019   -0.0001    0.0001   -0.0000    0.0000    0.0102   -0.0118   -0.0000    0.0000
        8 O1     2pz       -0.0000   -0.0000   -0.0000    0.0000    0.0007   -0.0140    0.0000   -0.0000    0.0179   -0.0062
        9 O1     3pz        0.0000    0.0000    0.0000   -0.0000    0.0013   -0.0417    0.0000   -0.0000    0.0703   -0.0479
       10 O1     3d2-      -0.0000    0.0000   -0.0000   -0.0000    0.0000   -0.0000    0.0000    0.0000   -0.0000   -0.0000
       11 O1     3d1-      -0.0003   -0.0001    0.0000   -0.0000    0.0000   -0.0000   -0.0010    0.0011   -0.0000   -0.0000
       12 O1     3d0        0.0000    0.0000    0.0000   -0.0000   -0.0009    0.0063   -0.0000    0.0000    0.0008    0.2188
       13 O1     3d1+       0.0001   -0.0003   -0.0000   -0.0000   -0.0000    0.0000    0.0011    0.0010    0.0000    0.0000
       14 O1     3d2+      -0.0000   -0.0000   -0.0000    0.0000    0.0000   -0.0000    0.0000   -0.0000   -0.0000   -0.0000
       15 FE2    1s         0.0000    0.0000   -0.0000    0.0000    0.0000   -0.0000    0.0000   -0.0000    0.0000   -0.0000
       16 FE2    2s         0.0000    0.0000    0.0000   -0.0000   -0.0000    0.0002    0.0000   -0.0000    0.0000   -0.0000
       17 FE2    3s         0.0000    0.0000    0.0000   -0.0000    0.0000   -0.0019    0.0000   -0.0000    0.0004    0.0004
       18 FE2    4s        -0.0002   -0.0000   -0.0000    0.0000   -0.0031    0.3266    0.0000   -0.0000    0.0014    0.0417
       19 FE2    5s         0.0000    0.0000    0.0000   -0.0000    0.0011   -0.3348    0.0000   -0.0000    0.0232    0.1383
       20 FE2    2px       -0.0000    0.0000   -0.0002   -0.0002   -0.0000   -0.0000    0.0000    0.0000   -0.0000   -0.0000
       21 FE2    3px        0.0003   -0.0009   -0.0039   -0.0030   -0.0000    0.0000    0.0051    0.0044   -0.0000    0.0000
       22 FE2    4px       -0.0434    0.1295    0.1659    0.1290    0.0000   -0.0000   -0.1587   -0.1371    0.0000   -0.0000
       23 FE2    5px       -0.0029    0.0088   -0.1688   -0.1312   -0.0000   -0.0000    0.7134    0.6166   -0.0000    0.0000
       24 FE2    2py        0.0000    0.0000    0.0002   -0.0002    0.0000    0.0000   -0.0000    0.0000    0.0000    0.0000
       25 FE2    3py       -0.0009   -0.0003    0.0030   -0.0039    0.0000   -0.0000   -0.0044    0.0051    0.0000   -0.0000
       26 FE2    4py        0.1295    0.0434   -0.1290    0.1659   -0.0000    0.0000    0.1371   -0.1587   -0.0000    0.0000
       27 FE2    5py        0.0088    0.0029    0.1312   -0.1688    0.0000    0.0000   -0.6166    0.7134    0.0001   -0.0000
       28 FE2    2pz        0.0000    0.0000   -0.0000    0.0000    0.0006   -0.0000   -0.0000    0.0000    0.0000    0.0000
       29 FE2    3pz        0.0000    0.0000   -0.0000    0.0000    0.0145   -0.0001    0.0000   -0.0000    0.0058   -0.0004
       30 FE2    4pz       -0.0000   -0.0000    0.0000   -0.0000   -0.2434   -0.0358   -0.0000    0.0000   -0.0974    0.0684
       31 FE2    5pz       -0.0000   -0.0000   -0.0000    0.0000    0.2093   -0.0027    0.0001   -0.0000    0.9691   -0.0109
       32 FE2    3d2-       0.0000   -0.0000    0.0000   -0.0000   -0.0000   -0.0000   -0.0000   -0.0000   -0.0000   -0.0000
       33 FE2    4d2-      -0.0000    0.0001   -0.0000   -0.0000   -0.0000    0.0000    0.0000    0.0000   -0.0000    0.0000
       34 FE2    3d1-      -0.0486   -0.0163    0.0009   -0.0011    0.0000    0.0000   -0.0007    0.0008    0.0000   -0.0000
       35 FE2    4d1-       0.9378    0.3143    0.0243   -0.0312   -0.0000   -0.0001   -0.0112    0.0129   -0.0000   -0.0000
       36 FE2    3d0        0.0000    0.0000   -0.0000    0.0000    0.0015    0.0200    0.0000   -0.0000    0.0016    0.0006
       37 FE2    4d0       -0.0002   -0.0000   -0.0000    0.0000    0.0212   -0.8856    0.0000   -0.0000   -0.0035   -0.0298
       38 FE2    3d1+       0.0163   -0.0486   -0.0011   -0.0009   -0.0000   -0.0000    0.0008    0.0007   -0.0000    0.0000
       39 FE2    4d1+      -0.3143    0.9378   -0.0312   -0.0243    0.0000    0.0000    0.0129    0.0112    0.0000    0.0000
       40 FE2    3d2+       0.0000    0.0000    0.0000    0.0000   -0.0000    0.0000   -0.0000    0.0000   -0.0000    0.0000
       41 FE2    4d2+      -0.0001   -0.0001   -0.0000    0.0000    0.0000   -0.0000    0.0000   -0.0000    0.0000   -0.0000
       42 FE2    4f3-       0.0000   -0.0000    0.0000   -0.0000    0.0000    0.0000    0.0000   -0.0000   -0.0000    0.0000
       43 FE2    4f2-      -0.0000    0.0000    0.0000    0.0001   -0.0000   -0.0000    0.0000    0.0000   -0.0000   -0.0000
       44 FE2    4f1-       0.0123    0.0041   -0.5849    0.7526    0.0002   -0.0000   -0.1690    0.1955   -0.0001    0.0000
       45 FE2    4f0       -0.0000   -0.0000    0.0001   -0.0001    0.9467    0.0125    0.0000   -0.0000   -0.2391    0.0216
       46 FE2    4f1+      -0.0041    0.0123    0.7526    0.5849   -0.0000    0.0000    0.1955    0.1690    0.0000   -0.0000
       47 FE2    4f2+      -0.0000   -0.0000    0.0000   -0.0002   -0.0000    0.0000    0.0000   -0.0001    0.0000   -0.0000
       48 FE2    4f3+       0.0000    0.0000   -0.0000    0.0000    0.0001    0.0000    0.0000    0.0000   -0.0000    0.0000
 
          Orbital           31        32        33        34        35        36        37        38        39        40    
          Energy            0.0538   -0.2347   -0.0129   -0.0129    0.0321    0.0980    0.0939    0.0939    0.7302    0.7303
          Occ. No.          0.0000    0.0000    0.0000    0.0000    0.0000    0.0000    0.0000    0.0000    0.0000    0.0000
 
        1 O1     1s        -0.0011    0.0018   -0.0000   -0.0000    0.0003    0.0006    0.0000   -0.0000    0.0000   -0.0000
        2 O1     2s        -0.0078    0.0162   -0.0000   -0.0000    0.0012    0.0072    0.0000    0.0000    0.0000   -0.0000
        3 O1     3s         0.0562   -0.0740    0.0000    0.0000   -0.0683    0.0203    0.0000    0.0000    0.0000    0.0000
        4 O1     2px       -0.0000    0.0000    0.0001   -0.0007   -0.0000   -0.0000    0.1377   -0.0388    0.0002    0.0001
        5 O1     3px        0.0000    0.0000    0.0021   -0.0130   -0.0000   -0.0000    0.9528   -0.2686    0.0013    0.0009
        6 O1     2py        0.0000   -0.0000   -0.0007   -0.0001    0.0000    0.0000    0.0388    0.1377    0.0002    0.0000
        7 O1     3py       -0.0000   -0.0000   -0.0132   -0.0020    0.0000    0.0000    0.2686    0.9528    0.0013    0.0000
        8 O1     2pz        0.0161   -0.0207    0.0000    0.0000    0.0816   -0.1024   -0.0000    0.0000    0.0000   -0.0000
        9 O1     3pz        0.0718   -0.0366    0.0000    0.0001    0.6610   -0.7518   -0.0000    0.0000    0.0000   -0.0000
       10 O1     3d2-       0.0000    0.0000   -0.0000   -0.0000    0.0000   -0.0000    0.0000    0.0001    0.0017    0.0080
       11 O1     3d1-       0.0000   -0.0000    0.0002    0.0001    0.0000    0.0001   -0.0008   -0.0007    0.0001   -0.0002
       12 O1     3d0       -0.0185    0.0341   -0.0000   -0.0000    0.0272   -0.0058    0.0000   -0.0000   -0.0000   -0.0000
       13 O1     3d1+      -0.0000    0.0000    0.0000    0.0003   -0.0000   -0.0000   -0.0030    0.0022    0.0012    0.0010
       14 O1     3d2+       0.0000    0.0000   -0.0000   -0.0000    0.0000   -0.0000    0.0004    0.0002    0.0064   -0.0055
       15 FE2    1s         0.0000   -0.0000    0.0000    0.0000    0.0000   -0.0000   -0.0000    0.0000    0.0000   -0.0000
       16 FE2    2s         0.0001   -0.0000    0.0000    0.0000    0.0003   -0.0004   -0.0000    0.0000    0.0000   -0.0000
       17 FE2    3s         0.0085    0.0021    0.0000    0.0000    0.0012   -0.0019   -0.0000    0.0000    0.0000   -0.0000
       18 FE2    4s        -0.5447   -0.7617    0.0000   -0.0000    0.1386   -0.0003    0.0000   -0.0000   -0.0000    0.0000
       19 FE2    5s         0.6949   -0.6333    0.0000   -0.0000    0.0658    0.0032    0.0000   -0.0000   -0.0000    0.0000
       20 FE2    2px        0.0000    0.0000    0.0000   -0.0000    0.0000    0.0000   -0.0000    0.0000   -0.0000   -0.0000
       21 FE2    3px       -0.0000   -0.0000   -0.0005    0.0032    0.0000    0.0000   -0.0001    0.0000   -0.0000   -0.0000
       22 FE2    4px        0.0000    0.0000    0.1461   -0.9332   -0.0001   -0.0001   -0.0315    0.0089    0.0000    0.0000
       23 FE2    5px        0.0000    0.0000    0.0395   -0.2526   -0.0000   -0.0000   -0.0087    0.0025    0.0000    0.0000
       24 FE2    2py       -0.0000   -0.0000   -0.0000   -0.0000   -0.0000   -0.0000   -0.0000   -0.0000   -0.0000   -0.0000
       25 FE2    3py        0.0000    0.0000    0.0032    0.0005    0.0000    0.0000   -0.0000   -0.0001   -0.0000   -0.0000
       26 FE2    4py       -0.0000   -0.0000   -0.9332   -0.1461   -0.0001   -0.0001   -0.0089   -0.0317    0.0000    0.0000
       27 FE2    5py       -0.0000   -0.0000   -0.2526   -0.0395   -0.0000   -0.0000   -0.0025   -0.0087    0.0000    0.0000
       28 FE2    2pz        0.0000   -0.0000    0.0000    0.0000    0.0000   -0.0001   -0.0000    0.0000    0.0000   -0.0000
       29 FE2    3pz        0.0011    0.0007   -0.0000   -0.0000    0.0043    0.0014    0.0000   -0.0000   -0.0000   -0.0000
       30 FE2    4pz       -0.0426   -0.1075    0.0001    0.0002   -0.6579   -0.6973   -0.0000    0.0000    0.0000    0.0000
       31 FE2    5pz       -0.0171   -0.0166    0.0000    0.0000   -0.1087   -0.1146   -0.0000    0.0000    0.0000    0.0000
       32 FE2    3d2-      -0.0000   -0.0000    0.0000   -0.0000   -0.0000   -0.0000    0.0000   -0.0000    0.0009   -0.0028
       33 FE2    4d2-       0.0000    0.0000   -0.0000    0.0000    0.0000    0.0000   -0.0004    0.0005   -0.3008    0.9536
       34 FE2    3d1-       0.0000    0.0000    0.0056    0.0009    0.0000    0.0000   -0.0004   -0.0015   -0.0000    0.0000
       35 FE2    4d1-      -0.0002   -0.0001    0.1299    0.0203   -0.0000   -0.0000   -0.0054   -0.0190    0.0001    0.0000
       36 FE2    3d0       -0.0034   -0.0029   -0.0000   -0.0000    0.0134    0.0017    0.0000   -0.0000    0.0000   -0.0000
       37 FE2    4d0       -0.4586   -0.0462   -0.0000   -0.0000    0.0674    0.0009    0.0000   -0.0000   -0.0000   -0.0000
       38 FE2    3d1+      -0.0000   -0.0000   -0.0009    0.0056    0.0000    0.0000   -0.0015    0.0004   -0.0000   -0.0000
[...]
ATVX     1  Mu1.0039  Se1.026                       0.21217727     -0.00000008      0.00000037     -0.00000000
ATVX     1  Mu1.0040  Se1.026                       0.22460851     -0.00000000     -0.00000000      0.00000000
ATVX     1  Mu1.0041  Se1.026                       0.22460853      0.00000000     -0.00000000     -0.00000000
ATVX     1  Mu1.0042  Se1.026                       0.24244238      0.00000000     -0.00000000     -0.00000000
ATVX     1  Mu1.0043  Se1.026                       0.24244852     -0.00000000      0.00000000     -0.00000000
ATVX     1  Mu1.0044  Se1.026                       0.25461913     -0.00093443      0.00353866     -0.00000331
ATVX     1  Mu1.0045  Se1.026                       0.25484998     -0.00002021      0.00008335     -0.00000000
ATVX     1  Mu1.0046  Se1.026                       0.25486595     -0.00002532      0.00010500     -0.00000000
ATVX     1  Mu1.0047  Se1.026                       0.26624018     -0.00002350     -0.00091180      0.00000002
ATVX     1  Mu1.0001  Se1.027                      -0.16286072     -0.00000000     -0.00000000      0.00000000
ATVX     1  Mu1.0002  Se1.027                      -0.14605641     -0.00000000     -0.00000000      0.00000000
ATVX     1  Mu1.0003  Se1.027                      -0.14605001      0.00000000      0.00000000      0.00000000
ATVX     1  Mu1.0004  Se1.027                      -0.10377364     -0.00000000     -0.00000000      0.00000000
ATVX     1  Mu1.0005  Se1.027                       0.00994555      0.00000000     -0.00000000     -0.00000000
ATVX     1  Mu1.0006  Se1.027                       0.00994557     -0.00000000      0.00000000     -0.00000000
ATVX     1  Mu1.0007  Se1.027                       0.22183041     -0.00000000     -0.00000000      0.00000000
ATVX     1  Mu1.0008  Se1.027                       0.22183042      0.00000000     -0.00000000     -0.00000000
ATVX     1  Mu1.0009  Se1.027                       0.23681645     -0.00000000      0.00000000     -0.00000000
ATVX     1  Mu1.0010  Se1.027                       0.23682310     -0.00000000      0.00000000     -0.00000000
ATVX     1  Mu1.0011  Se1.027                       0.23899470     -0.00000108      0.00000927     -0.00000000
ATVX     1  Mu1.0012  Se1.027                       0.23900263      0.00000208     -0.00001794     -0.00000000
ATVX     1  Mu1.0013  Se1.027                       0.27772189      0.00000000     -0.00000000     -0.00000000
ATVX     1  Mu1.0014  Se1.027                       0.27772189     -0.00000000      0.00000000     -0.00000000
ATVX     1  Mu1.0015  Se1.027                       0.27897628      0.00000166     -0.00000518     -0.00000000
ATVX     1  Mu1.0016  Se1.027                       0.27902002     -0.00000015      0.00000047     -0.00000000
ATVX     1  Mu1.0017  Se1.027                       0.28233269     -0.00000000      0.00000000     -0.00000000
ATVX     1  Mu1.0018  Se1.027                       0.28233269      0.00000000     -0.00000000     -0.00000000
ATVX     1  Mu1.0019  Se1.027                       0.29817987      0.00000022     -0.00000077     -0.00000000
ATVX     1  Mu1.0020  Se1.027                       0.29818702      0.00000014     -0.00000049     -0.00000000
ATVX     1  Mu1.0021  Se1.027                       0.29890353      0.00000000     -0.00000000     -0.00000000
ATVX     1  Mu1.0022  Se1.027                       0.29890370     -0.00000000      0.00000000     -0.00000000
ATVX     1  Mu1.0023  Se1.027                       0.29921175      0.00000000     -0.00000000     -0.00000000
ATVX     1  Mu1.0024  Se1.027                       0.29922568      0.00000000     -0.00000000     -0.00000000
ATVX     1  Mu1.0001  Se1.028                      -0.15746544      0.00000000      0.00000000      0.00000000
ATVX     1  Mu1.0002  Se1.028                      -0.14066114     -0.00000000     -0.00000000      0.00000000
ATVX     1  Mu1.0003  Se1.028                      -0.14065473      0.00000021     -0.00000066     -0.00000000
ATVX     1  Mu1.0004  Se1.028                      -0.09837836      0.00000000     -0.00000000     -0.00000000
ATVX     1  Mu1.0005  Se1.028                       0.01534083     -0.00000021     -0.00004854      0.00000000
ATVX     1  Mu1.0006  Se1.028                       0.01534085     -0.00000766     -0.00180516      0.00000001
ATVX     1  Mu1.0007  Se1.028                       0.22722569      0.00000000     -0.00000000     -0.00000000
ATVX     1  Mu1.0008  Se1.028                       0.22722570      0.00000126     -0.00002332     -0.00000000
ATVX     1  Mu1.0009  Se1.028                       0.24221173     -0.00000000      0.00000000     -0.00000000
ATVX     1  Mu1.0010  Se1.028                       0.24221838     -0.00000000      0.00000000     -0.00000000
ATVX     1  Mu1.0011  Se1.028                       0.24438998     -0.00000000      0.00000000     -0.00000000
ATVX     1  Mu1.0012  Se1.028                       0.24439791      0.00000000      0.00000000      0.00000000
ATVX     1  Mu1.0013  Se1.028                       0.28311717     -0.00000000      0.00000001     -0.00000000
ATVX     1  Mu1.0014  Se1.028                       0.28311717      0.00000150     -0.00000515     -0.00000000
ATVX     1  Mu1.0015  Se1.028                       0.28437156      0.00000000     -0.00000000     -0.00000000
ATVX     1  Mu1.0016  Se1.028                       0.28441529     -0.00000000      0.00000000     -0.00000000
ATVX     1  Mu1.0017  Se1.028                       0.28772797     -0.00000000      0.00000000     -0.00000000
ATVX     1  Mu1.0018  Se1.028                       0.28772797      0.00000004     -0.00000019     -0.00000000
ATVX     1  Mu1.0001  Se1.029                      -0.15746405      0.00000000      0.00000000      0.00000000
ATVX     1  Mu1.0002  Se1.029                      -0.14065975     -0.00000021      0.00000066     -0.00000000
ATVX     1  Mu1.0003  Se1.029                      -0.14065335     -0.00000000     -0.00000000      0.00000000
ATVX     1  Mu1.0004  Se1.029                      -0.09837698      0.00000000      0.00000000      0.00000000
ATVX     1  Mu1.0005  Se1.029                       0.01534221     -0.00000766     -0.00180475      0.00000001
ATVX     1  Mu1.0006  Se1.029                       0.01534223      0.00000021      0.00004853      0.00000000
ATVX     1  Mu1.0007  Se1.029                       0.22722708     -0.00000126      0.00002331     -0.00000000
ATVX     1  Mu1.0008  Se1.029                       0.22722709      0.00000000     -0.00000000     -0.00000000
ATVX     1  Mu1.0009  Se1.029                       0.24221311     -0.00000000      0.00000000     -0.00000000
ATVX     1  Mu1.0010  Se1.029                       0.24221977     -0.00000000      0.00000000     -0.00000000
ATVX     1  Mu1.0011  Se1.029                       0.24439136     -0.00000000      0.00000000     -0.00000000
ATVX     1  Mu1.0012  Se1.029                       0.24439929     -0.00000000      0.00000000     -0.00000000
ATVX     1  Mu1.0013  Se1.029                       0.28311856     -0.00000150      0.00000515     -0.00000000
ATVX     1  Mu1.0014  Se1.029                       0.28311856     -0.00000000      0.00000001     -0.00000000
ATVX     1  Mu1.0015  Se1.029                       0.28437294      0.00000000     -0.00000000     -0.00000000
ATVX     1  Mu1.0016  Se1.029                       0.28441668      0.00000000     -0.00000000     -0.00000000
ATVX     1  Mu1.0017  Se1.029                       0.28772935     -0.00000004      0.00000019     -0.00000000
ATVX     1  Mu1.0018  Se1.029                       0.28772935     -0.00000000      0.00000000     -0.00000000
ATVX     1  Mu1.0001  Se1.030                       0.00782591      0.00000000     -0.00000000     -0.00000000
ATVX     1  Mu1.0002  Se1.030                       0.02463021     -0.00000000      0.00000000     -0.00000000
ATVX     1  Mu1.0003  Se1.030                       0.02463661     -0.00000000      0.00000000     -0.00000000
ATVX     1  Mu1.0004  Se1.030                       0.06691298     -0.00000000      0.00000000     -0.00000000
ATVX     1  Mu1.0005  Se1.030                       0.18063217     -0.00000000     -0.00000000      0.00000000
ATVX     1  Mu1.0006  Se1.030                       0.18063219     -0.00000000      0.00000000     -0.00000000
ATVX     1  Mu1.0277  Se1.031                       2.29717454      0.09587077     -0.04318569     -0.00414025
ATVX     1  Mu1.0278  Se1.032                       2.29717456     -0.09587075      0.04318568     -0.00414024
AIVX     1  Mu1.0138  In1.011 Se1.033               3.34066621      0.10337618     -0.03128416     -0.00323404
AIVX     1  Mu1.0141  In1.011 Se1.033               3.34541365      0.07623904     -0.02563272     -0.00195421
AIVX     1  Mu1.0130  In1.008 Se1.034               6.29607801      0.16791263     -0.02667166     -0.00447851
AIVX     1  Mu1.0130  In1.009 Se1.035               6.29623135     -0.16751734      0.02660441     -0.00445670
AIVX     1  Mu1.0169  In1.009 Se1.035               6.56100253      0.17726901     -0.02701861     -0.00478956
AIVX     1  Mu1.0130  In1.010 Se1.036               6.29623369     -0.16751799      0.02660450     -0.00445673
AIVX     1  Mu1.0169  In1.010 Se1.036               6.56100488      0.17727009     -0.02701876     -0.00478962
AIVX     1  Mu1.0033  In1.011 Se1.037               3.46852652      0.11209677     -0.03094408     -0.00346873
AIVX     1  Mu1.0034  In1.011 Se1.037               3.46852652      0.09479660     -0.02616841     -0.00248068
AIVX     1  Mu1.0051  In1.011 Se1.038               3.71848694     -0.14672646      0.03786976     -0.00555650
AIVX     1  Mu1.0040  In1.011 Se1.041               3.51625740      0.10136230     -0.02754374     -0.00279190
BVATM    1  Mu1.0001  Se1.027 Se1.026               0.24387904     -0.00000000     -0.00000000      0.00000000
BVATM    1  Mu1.0001  Se1.028 Se1.026               0.24927432      0.00000000      0.00000000      0.00000000
BVATM    1  Mu1.0001  Se1.029 Se1.026               0.24927571     -0.00000000      0.00000000     -0.00000000
BVATM    1  Mu1.0001  Se1.032 Se1.031               1.95777652     -0.07193494      0.03706488     -0.00266626
BVATM    1  Mu1.0001  Se1.038 Se1.037               5.00989098     -0.12961190      0.02587120     -0.00335322
BJATP    1  Mu1.0002  In1.011 Se1.033 Se1.031       2.94260302      0.08248248     -0.02790633     -0.00230178
BJATP    1  Mu1.0001  In1.011 Se1.033 Se1.032       2.94260303     -0.08248249      0.02790633     -0.00230178
BJATM    1  Mu1.0002  In1.011 Se1.033 Se1.031       2.94260302     -0.07856606      0.02861889     -0.00224847
BJATM    1  Mu1.0001  In1.011 Se1.033 Se1.032       2.94260303      0.07856606     -0.02861889     -0.00224847
BJAIP    1  Se1.033 In1.011 Se1.033 In1.011         3.92741693      0.12227903     -0.03328819     -0.00407045
--
 
   (Skipping property calculation,
    use PROP keyword to activate)
--
 
  Total CASPT2 energies:
::    CASPT2 Root  1     Total energy:  -1345.82594154
 
  A NEW JOBIPH FILE NAMED 'JOBMIX' IS PREPARED.
********************************************************************************
--- Stop Module: caspt2 at Wed Dec 25 09:11:31 2024 /rc=_RC_ALL_IS_WELL_ ---
*** files: xmldump
    saved to directory /home/grierjones/DDCASPT2/iron_oxo_DDCASPT2/cluster/5.58
--- Module caspt2 spent 5 minutes 30 seconds ---

>>> EXPORT i = B

>>> EXPORT j = P

>>> IF (-FILE GMJ_e2_${i}_${j}.csv)

>>> COPY /tmp/5.58/GMJ_RHS_B_P.csv /home/grierjones/DDCASPT2/iron_oxo_DDCASPT2/cluster/5.58/GMJ_RHS_B_P.csv

>>> COPY /tmp/5.58/GMJ_IVECW_B_P.csv /home/grierjones/DDCASPT2/iron_oxo_DDCASPT2/cluster/5.58/GMJ_IVECW_B_P.csv

>>> COPY /tmp/5.58/GMJ_IVECX_B_P.csv /home/grierjones/DDCASPT2/iron_oxo_DDCASPT2/cluster/5.58/GMJ_IVECX_B_P.csv

>>> COPY /tmp/5.58/GMJ_IVECC2_B_P.csv /home/grierjones/DDCASPT2/iron_oxo_DDCASPT2/cluster/5.58/GMJ_IVECC2_B_P.csv

>>> COPY /tmp/5.58/GMJ_e2_B_P.csv /home/grierjones/DDCASPT2/iron_oxo_DDCASPT2/cluster/5.58/GMJ_e2_B_P.csv

>>> END FOREACH

>>> EXPORT j = M

>>> IF (-FILE GMJ_e2_${i}_${j}.csv)

>>> COPY /tmp/5.58/GMJ_RHS_B_M.csv /home/grierjones/DDCASPT2/iron_oxo_DDCASPT2/cluster/5.58/GMJ_RHS_B_M.csv

>>> COPY /tmp/5.58/GMJ_IVECW_B_M.csv /home/grierjones/DDCASPT2/iron_oxo_DDCASPT2/cluster/5.58/GMJ_IVECW_B_M.csv

>>> COPY /tmp/5.58/GMJ_IVECX_B_M.csv /home/grierjones/DDCASPT2/iron_oxo_DDCASPT2/cluster/5.58/GMJ_IVECX_B_M.csv

>>> COPY /tmp/5.58/GMJ_IVECC2_B_M.csv /home/grierjones/DDCASPT2/iron_oxo_DDCASPT2/cluster/5.58/GMJ_IVECC2_B_M.csv

>>> COPY /tmp/5.58/GMJ_e2_B_M.csv /home/grierjones/DDCASPT2/iron_oxo_DDCASPT2/cluster/5.58/GMJ_e2_B_M.csv

>>> END FOREACH

>>> END FOREACH

>>> EXPORT i = E

>>> EXPORT j = P

>>> IF (-FILE GMJ_e2_${i}_${j}.csv)

>>> COPY /tmp/5.58/GMJ_RHS_E_P.csv /home/grierjones/DDCASPT2/iron_oxo_DDCASPT2/cluster/5.58/GMJ_RHS_E_P.csv

>>> COPY /tmp/5.58/GMJ_IVECW_E_P.csv /home/grierjones/DDCASPT2/iron_oxo_DDCASPT2/cluster/5.58/GMJ_IVECW_E_P.csv

>>> COPY /tmp/5.58/GMJ_IVECX_E_P.csv /home/grierjones/DDCASPT2/iron_oxo_DDCASPT2/cluster/5.58/GMJ_IVECX_E_P.csv

>>> COPY /tmp/5.58/GMJ_IVECC2_E_P.csv /home/grierjones/DDCASPT2/iron_oxo_DDCASPT2/cluster/5.58/GMJ_IVECC2_E_P.csv

>>> COPY /tmp/5.58/GMJ_e2_E_P.csv /home/grierjones/DDCASPT2/iron_oxo_DDCASPT2/cluster/5.58/GMJ_e2_E_P.csv

>>> END FOREACH

>>> EXPORT j = M

>>> IF (-FILE GMJ_e2_${i}_${j}.csv)

>>> COPY /tmp/5.58/GMJ_RHS_E_M.csv /home/grierjones/DDCASPT2/iron_oxo_DDCASPT2/cluster/5.58/GMJ_RHS_E_M.csv

>>> COPY /tmp/5.58/GMJ_IVECW_E_M.csv /home/grierjones/DDCASPT2/iron_oxo_DDCASPT2/cluster/5.58/GMJ_IVECW_E_M.csv

>>> COPY /tmp/5.58/GMJ_IVECX_E_M.csv /home/grierjones/DDCASPT2/iron_oxo_DDCASPT2/cluster/5.58/GMJ_IVECX_E_M.csv

>>> COPY /tmp/5.58/GMJ_IVECC2_E_M.csv /home/grierjones/DDCASPT2/iron_oxo_DDCASPT2/cluster/5.58/GMJ_IVECC2_E_M.csv

>>> COPY /tmp/5.58/GMJ_e2_E_M.csv /home/grierjones/DDCASPT2/iron_oxo_DDCASPT2/cluster/5.58/GMJ_e2_E_M.csv

>>> END FOREACH

>>> END FOREACH

>>> EXPORT i = F

>>> EXPORT j = P

>>> IF (-FILE GMJ_e2_${i}_${j}.csv)

>>> COPY /tmp/5.58/GMJ_RHS_F_P.csv /home/grierjones/DDCASPT2/iron_oxo_DDCASPT2/cluster/5.58/GMJ_RHS_F_P.csv

>>> COPY /tmp/5.58/GMJ_IVECW_F_P.csv /home/grierjones/DDCASPT2/iron_oxo_DDCASPT2/cluster/5.58/GMJ_IVECW_F_P.csv

>>> COPY /tmp/5.58/GMJ_IVECX_F_P.csv /home/grierjones/DDCASPT2/iron_oxo_DDCASPT2/cluster/5.58/GMJ_IVECX_F_P.csv

>>> COPY /tmp/5.58/GMJ_IVECC2_F_P.csv /home/grierjones/DDCASPT2/iron_oxo_DDCASPT2/cluster/5.58/GMJ_IVECC2_F_P.csv

>>> COPY /tmp/5.58/GMJ_e2_F_P.csv /home/grierjones/DDCASPT2/iron_oxo_DDCASPT2/cluster/5.58/GMJ_e2_F_P.csv

>>> END FOREACH

>>> EXPORT j = M

>>> IF (-FILE GMJ_e2_${i}_${j}.csv)

>>> COPY /tmp/5.58/GMJ_RHS_F_M.csv /home/grierjones/DDCASPT2/iron_oxo_DDCASPT2/cluster/5.58/GMJ_RHS_F_M.csv

>>> COPY /tmp/5.58/GMJ_IVECW_F_M.csv /home/grierjones/DDCASPT2/iron_oxo_DDCASPT2/cluster/5.58/GMJ_IVECW_F_M.csv

>>> COPY /tmp/5.58/GMJ_IVECX_F_M.csv /home/grierjones/DDCASPT2/iron_oxo_DDCASPT2/cluster/5.58/GMJ_IVECX_F_M.csv

>>> COPY /tmp/5.58/GMJ_IVECC2_F_M.csv /home/grierjones/DDCASPT2/iron_oxo_DDCASPT2/cluster/5.58/GMJ_IVECC2_F_M.csv

>>> COPY /tmp/5.58/GMJ_e2_F_M.csv /home/grierjones/DDCASPT2/iron_oxo_DDCASPT2/cluster/5.58/GMJ_e2_F_M.csv

>>> END FOREACH

>>> END FOREACH

>>> EXPORT i = G

>>> EXPORT j = P

>>> IF (-FILE GMJ_e2_${i}_${j}.csv)

>>> COPY /tmp/5.58/GMJ_RHS_G_P.csv /home/grierjones/DDCASPT2/iron_oxo_DDCASPT2/cluster/5.58/GMJ_RHS_G_P.csv

>>> COPY /tmp/5.58/GMJ_IVECW_G_P.csv /home/grierjones/DDCASPT2/iron_oxo_DDCASPT2/cluster/5.58/GMJ_IVECW_G_P.csv

>>> COPY /tmp/5.58/GMJ_IVECX_G_P.csv /home/grierjones/DDCASPT2/iron_oxo_DDCASPT2/cluster/5.58/GMJ_IVECX_G_P.csv

>>> COPY /tmp/5.58/GMJ_IVECC2_G_P.csv /home/grierjones/DDCASPT2/iron_oxo_DDCASPT2/cluster/5.58/GMJ_IVECC2_G_P.csv

>>> COPY /tmp/5.58/GMJ_e2_G_P.csv /home/grierjones/DDCASPT2/iron_oxo_DDCASPT2/cluster/5.58/GMJ_e2_G_P.csv

>>> END FOREACH

>>> EXPORT j = M

>>> IF (-FILE GMJ_e2_${i}_${j}.csv)

>>> COPY /tmp/5.58/GMJ_RHS_G_M.csv /home/grierjones/DDCASPT2/iron_oxo_DDCASPT2/cluster/5.58/GMJ_RHS_G_M.csv

>>> COPY /tmp/5.58/GMJ_IVECW_G_M.csv /home/grierjones/DDCASPT2/iron_oxo_DDCASPT2/cluster/5.58/GMJ_IVECW_G_M.csv

>>> COPY /tmp/5.58/GMJ_IVECX_G_M.csv /home/grierjones/DDCASPT2/iron_oxo_DDCASPT2/cluster/5.58/GMJ_IVECX_G_M.csv

>>> COPY /tmp/5.58/GMJ_IVECC2_G_M.csv /home/grierjones/DDCASPT2/iron_oxo_DDCASPT2/cluster/5.58/GMJ_IVECC2_G_M.csv

>>> COPY /tmp/5.58/GMJ_e2_G_M.csv /home/grierjones/DDCASPT2/iron_oxo_DDCASPT2/cluster/5.58/GMJ_e2_G_M.csv

>>> END FOREACH

>>> END FOREACH

>>> EXPORT i = H

>>> EXPORT j = P

>>> IF (-FILE GMJ_e2_${i}_${j}.csv)

>>> COPY /tmp/5.58/GMJ_RHS_H_P.csv /home/grierjones/DDCASPT2/iron_oxo_DDCASPT2/cluster/5.58/GMJ_RHS_H_P.csv

>>> COPY /tmp/5.58/GMJ_IVECW_H_P.csv /home/grierjones/DDCASPT2/iron_oxo_DDCASPT2/cluster/5.58/GMJ_IVECW_H_P.csv

>>> COPY /tmp/5.58/GMJ_IVECX_H_P.csv /home/grierjones/DDCASPT2/iron_oxo_DDCASPT2/cluster/5.58/GMJ_IVECX_H_P.csv

>>> COPY /tmp/5.58/GMJ_IVECC2_H_P.csv /home/grierjones/DDCASPT2/iron_oxo_DDCASPT2/cluster/5.58/GMJ_IVECC2_H_P.csv

>>> COPY /tmp/5.58/GMJ_e2_H_P.csv /home/grierjones/DDCASPT2/iron_oxo_DDCASPT2/cluster/5.58/GMJ_e2_H_P.csv

>>> END FOREACH

>>> EXPORT j = M

>>> IF (-FILE GMJ_e2_${i}_${j}.csv)

>>> COPY /tmp/5.58/GMJ_RHS_H_M.csv /home/grierjones/DDCASPT2/iron_oxo_DDCASPT2/cluster/5.58/GMJ_RHS_H_M.csv

>>> COPY /tmp/5.58/GMJ_IVECW_H_M.csv /home/grierjones/DDCASPT2/iron_oxo_DDCASPT2/cluster/5.58/GMJ_IVECW_H_M.csv

>>> COPY /tmp/5.58/GMJ_IVECX_H_M.csv /home/grierjones/DDCASPT2/iron_oxo_DDCASPT2/cluster/5.58/GMJ_IVECX_H_M.csv

>>> COPY /tmp/5.58/GMJ_IVECC2_H_M.csv /home/grierjones/DDCASPT2/iron_oxo_DDCASPT2/cluster/5.58/GMJ_IVECC2_H_M.csv

>>> COPY /tmp/5.58/GMJ_e2_H_M.csv /home/grierjones/DDCASPT2/iron_oxo_DDCASPT2/cluster/5.58/GMJ_e2_H_M.csv

>>> END FOREACH

>>> END FOREACH

>>> EXPORT i = A

>>> IF (-FILE GMJ_e2_$i.csv)

>>> COPY /tmp/5.58/GMJ_RHS_A.csv /home/grierjones/DDCASPT2/iron_oxo_DDCASPT2/cluster/5.58/GMJ_RHS_A.csv

>>> COPY /tmp/5.58/GMJ_IVECW_A.csv /home/grierjones/DDCASPT2/iron_oxo_DDCASPT2/cluster/5.58/GMJ_IVECW_A.csv

>>> COPY /tmp/5.58/GMJ_IVECX_A.csv /home/grierjones/DDCASPT2/iron_oxo_DDCASPT2/cluster/5.58/GMJ_IVECX_A.csv

>>> COPY /tmp/5.58/GMJ_IVECC2_A.csv /home/grierjones/DDCASPT2/iron_oxo_DDCASPT2/cluster/5.58/GMJ_IVECC2_A.csv

>>> COPY /tmp/5.58/GMJ_e2_A.csv /home/grierjones/DDCASPT2/iron_oxo_DDCASPT2/cluster/5.58/GMJ_e2_A.csv

>>> END FOREACH

>>> EXPORT i = C

>>> IF (-FILE GMJ_e2_$i.csv)

>>> COPY /tmp/5.58/GMJ_RHS_C.csv /home/grierjones/DDCASPT2/iron_oxo_DDCASPT2/cluster/5.58/GMJ_RHS_C.csv

>>> COPY /tmp/5.58/GMJ_IVECW_C.csv /home/grierjones/DDCASPT2/iron_oxo_DDCASPT2/cluster/5.58/GMJ_IVECW_C.csv

>>> COPY /tmp/5.58/GMJ_IVECX_C.csv /home/grierjones/DDCASPT2/iron_oxo_DDCASPT2/cluster/5.58/GMJ_IVECX_C.csv

>>> COPY /tmp/5.58/GMJ_IVECC2_C.csv /home/grierjones/DDCASPT2/iron_oxo_DDCASPT2/cluster/5.58/GMJ_IVECC2_C.csv

>>> COPY /tmp/5.58/GMJ_e2_C.csv /home/grierjones/DDCASPT2/iron_oxo_DDCASPT2/cluster/5.58/GMJ_e2_C.csv

>>> END FOREACH

>>> EXPORT i = D

>>> IF (-FILE GMJ_e2_$i.csv)

>>> COPY /tmp/5.58/GMJ_RHS_D.csv /home/grierjones/DDCASPT2/iron_oxo_DDCASPT2/cluster/5.58/GMJ_RHS_D.csv

>>> COPY /tmp/5.58/GMJ_IVECW_D.csv /home/grierjones/DDCASPT2/iron_oxo_DDCASPT2/cluster/5.58/GMJ_IVECW_D.csv

>>> COPY /tmp/5.58/GMJ_IVECX_D.csv /home/grierjones/DDCASPT2/iron_oxo_DDCASPT2/cluster/5.58/GMJ_IVECX_D.csv

>>> COPY /tmp/5.58/GMJ_IVECC2_D.csv /home/grierjones/DDCASPT2/iron_oxo_DDCASPT2/cluster/5.58/GMJ_IVECC2_D.csv

>>> COPY /tmp/5.58/GMJ_e2_D.csv /home/grierjones/DDCASPT2/iron_oxo_DDCASPT2/cluster/5.58/GMJ_e2_D.csv

>>> END FOREACH

.########################.
.# Non-zero return code #.
.########################.

    Timing: Wall=398.40 User=394.81 System=3.48
************************************
*** WorkDir at /tmp/5.58 cleaned ***
************************************
