[Molden Format]
[N_Atoms]
                     2
[Atoms] (AU)
N1          1      7           0.00000000      0.00000000      0.00000000
N2          2      7           0.00000000      0.00000000      3.77945225
[Charge] (Mulliken)
  3.732303355263866E-009
 -3.732299802550187E-009
[GTO] (AU)
   1
   s  14
  7.476171500E+04  1.182599996E-04
  1.112365400E+04  5.172899983E-04
  2.512685700E+03  2.266659992E-03
  7.037772900E+02  9.145289970E-03
  2.254787900E+02  3.239342989E-02
  7.961581000E+01  9.770792967E-02
  3.023728300E+01  2.317036792E-01
  1.226362200E+01  3.768898887E-01
  5.265086000E+00  3.177420689E-01
  2.333471000E+00  8.211308973E-02
  9.018560000E-01  3.312089989E-03
  3.583360000E-01  3.720819988E-03
  1.410930000E-01  3.165419989E-03
  4.938300000E-02  4.595799985E-04
   s  14
  7.476171500E+04 -2.707000010E-05
  1.112365400E+04 -1.183700004E-04
  2.512685700E+03 -5.203800020E-04
  7.037772900E+02 -2.102930008E-03
  2.254787900E+02 -7.568200028E-03
  7.961581000E+01 -2.346767009E-02
  3.023728300E+01 -6.042901023E-02
  1.226362200E+01 -1.170549104E-01
  5.265086000E+00 -1.555321506E-01
  2.333471000E+00 -2.468935009E-02
  9.018560000E-01  3.625054514E-01
  3.583360000E-01  5.550845021E-01
  1.410930000E-01  2.148376908E-01
  4.938300000E-02  8.983850034E-03
   p   9
  1.266665700E+02  1.233630000E-03
  2.983738900E+01  9.493409996E-03
  9.394038000E+00  4.293961998E-02
  3.405104000E+00  1.362925399E-01
  1.350000000E+00  2.921362499E-01
  5.576960000E-01  3.887887598E-01
  2.324490000E-01  2.946801399E-01
  9.426400000E-02  8.012875997E-02
  3.299200000E-02  5.405199998E-04
 
   2
   s  14
  7.476171500E+04  1.182599996E-04
  1.112365400E+04  5.172899983E-04
  2.512685700E+03  2.266659992E-03
  7.037772900E+02  9.145289970E-03
  2.254787900E+02  3.239342989E-02
  7.961581000E+01  9.770792967E-02
  3.023728300E+01  2.317036792E-01
  1.226362200E+01  3.768898887E-01
  5.265086000E+00  3.177420689E-01
  2.333471000E+00  8.211308973E-02
  9.018560000E-01  3.312089989E-03
  3.583360000E-01  3.720819988E-03
  1.410930000E-01  3.165419989E-03
  4.938300000E-02  4.595799985E-04
   s  14
  7.476171500E+04 -2.707000010E-05
  1.112365400E+04 -1.183700004E-04
  2.512685700E+03 -5.203800020E-04
  7.037772900E+02 -2.102930008E-03
  2.254787900E+02 -7.568200028E-03
  7.961581000E+01 -2.346767009E-02
  3.023728300E+01 -6.042901023E-02
  1.226362200E+01 -1.170549104E-01
  5.265086000E+00 -1.555321506E-01
  2.333471000E+00 -2.468935009E-02
  9.018560000E-01  3.625054514E-01
  3.583360000E-01  5.550845021E-01
  1.410930000E-01  2.148376908E-01
  4.938300000E-02  8.983850034E-03
   p   9
  1.266665700E+02  1.233630000E-03
  2.983738900E+01  9.493409996E-03
  9.394038000E+00  4.293961998E-02
  3.405104000E+00  1.362925399E-01
  1.350000000E+00  2.921362499E-01
  5.576960000E-01  3.887887598E-01
  2.324490000E-01  2.946801399E-01
  9.426400000E-02  8.012875997E-02
  3.299200000E-02  5.405199998E-04
 
[MO]
Sym=     1a  
Ene=   -15.6500
Spin= Alpha
Occup=    2.00000
   1         0.70705394
   2        -0.00452492
   3         0.00000000
   4         0.00000000
   5         0.00033909
   6         0.70705280
   7        -0.00452489
   8         0.00000000
   9         0.00000000
  10        -0.00033908
Sym=     2a  
Ene=   -15.6460
Spin= Alpha
Occup=    2.00000
   1        -0.70697414
   2         0.01387794
   3         0.00000000
   4         0.00000000
   5        -0.00184453
   6         0.70697528
   7        -0.01387794
   8         0.00000000
   9         0.00000000
  10        -0.00184453
Sym=     3a  
Ene=    -1.0353
Spin= Alpha
Occup=    2.00000
   1         0.00082969
   2        -0.65648539
   3        -0.00000000
   4         0.00000000
   5        -0.06563749
   6         0.00082969
   7        -0.65648587
   8         0.00000000
   9         0.00000000
  10         0.06563743
Sym=     4a  
Ene=    -0.4113
Spin= Alpha
Occup=    2.00000
   1         0.00969919
   2         0.16555449
   3        -0.00000000
   4         0.00000000
   5        -0.65435980
   6         0.00969919
   7         0.16555467
   8        -0.00000000
   9         0.00000000
  10         0.65435975
Sym=     5a  
Ene=    -0.3439
Spin= Alpha
Occup=    2.00000
   1         0.00000000
   2         0.00000000
   3         0.68187393
   4         0.04446143
   5        -0.00000000
   6         0.00000000
   7         0.00000000
   8         0.68187424
   9         0.04446145
  10         0.00000000
Sym=     6a  
Ene=    -0.3430
Spin= Alpha
Occup=    2.00000
   1        -0.00000000
   2         0.00000000
   3        -0.04446144
   4         0.68187420
   5         0.00000000
   6        -0.00000000
   7        -0.00000000
   8        -0.04446143
   9         0.68187396
  10        -0.00000000
Sym=     7a  
Ene=    -0.8977
Spin= Alpha
Occup=    1.98834
   1        -0.01729358
   2        -0.73274994
   3        -0.00000000
   4         0.00000000
   5         0.07879215
   6         0.01729357
   7         0.73274948
   8         0.00000000
   9         0.00000000
  10         0.07879205
Sym=     8a  
Ene=     0.0000
Spin= Alpha
Occup=    0.01166
   1         0.00000000
   2         0.00000000
   3        -0.73200725
   4        -0.04773036
   5        -0.00000000
   6        -0.00000000
   7         0.00000000
   8         0.73200696
   9         0.04773034
  10        -0.00000000
Sym=     9a  
Ene=    -0.0205
Spin= Alpha
Occup=    0.00000
   1         0.00000000
   2         0.00000000
   3         0.04773034
   4        -0.73200699
   5         0.00000000
   6        -0.00000000
   7        -0.00000000
   8        -0.04773035
   9         0.73200722
  10         0.00000000
Sym=    10a  
Ene=     0.1140
Spin= Alpha
Occup=    0.00000
   1         0.01336595
   2         0.22521191
   3        -0.00000000
   4         0.00000000
   5         0.79364354
   6        -0.01336595
   7        -0.22521190
   8         0.00000000
   9        -0.00000000
  10         0.79364359
