[Molden Format]
[N_Atoms]
                     2
[Atoms] (AU)
N1          1      7           0.00000000      0.00000000      0.00000000
N2          2      7           0.00000000      0.00000000      3.77945225
[Charge] (Mulliken)
   1.00036534130985     
  0.999634658690123     
[GTO] (AU)
   1
   s  14
  7.476171500E+04  1.182599996E-04
  1.112365400E+04  5.172899983E-04
  2.512685700E+03  2.266659992E-03
  7.037772900E+02  9.145289970E-03
  2.254787900E+02  3.239342989E-02
  7.961581000E+01  9.770792967E-02
  3.023728300E+01  2.317036792E-01
  1.226362200E+01  3.768898887E-01
  5.265086000E+00  3.177420689E-01
  2.333471000E+00  8.211308973E-02
  9.018560000E-01  3.312089989E-03
  3.583360000E-01  3.720819988E-03
  1.410930000E-01  3.165419989E-03
  4.938300000E-02  4.595799985E-04
   s  14
  7.476171500E+04 -2.707000010E-05
  1.112365400E+04 -1.183700004E-04
  2.512685700E+03 -5.203800020E-04
  7.037772900E+02 -2.102930008E-03
  2.254787900E+02 -7.568200028E-03
  7.961581000E+01 -2.346767009E-02
  3.023728300E+01 -6.042901023E-02
  1.226362200E+01 -1.170549104E-01
  5.265086000E+00 -1.555321506E-01
  2.333471000E+00 -2.468935009E-02
  9.018560000E-01  3.625054514E-01
  3.583360000E-01  5.550845021E-01
  1.410930000E-01  2.148376908E-01
  4.938300000E-02  8.983850034E-03
   p   9
  1.266665700E+02  1.233630000E-03
  2.983738900E+01  9.493409996E-03
  9.394038000E+00  4.293961998E-02
  3.405104000E+00  1.362925399E-01
  1.350000000E+00  2.921362499E-01
  5.576960000E-01  3.887887598E-01
  2.324490000E-01  2.946801399E-01
  9.426400000E-02  8.012875997E-02
  3.299200000E-02  5.405199998E-04
 
   2
   s  14
  7.476171500E+04  1.182599996E-04
  1.112365400E+04  5.172899983E-04
  2.512685700E+03  2.266659992E-03
  7.037772900E+02  9.145289970E-03
  2.254787900E+02  3.239342989E-02
  7.961581000E+01  9.770792967E-02
  3.023728300E+01  2.317036792E-01
  1.226362200E+01  3.768898887E-01
  5.265086000E+00  3.177420689E-01
  2.333471000E+00  8.211308973E-02
  9.018560000E-01  3.312089989E-03
  3.583360000E-01  3.720819988E-03
  1.410930000E-01  3.165419989E-03
  4.938300000E-02  4.595799985E-04
   s  14
  7.476171500E+04 -2.707000010E-05
  1.112365400E+04 -1.183700004E-04
  2.512685700E+03 -5.203800020E-04
  7.037772900E+02 -2.102930008E-03
  2.254787900E+02 -7.568200028E-03
  7.961581000E+01 -2.346767009E-02
  3.023728300E+01 -6.042901023E-02
  1.226362200E+01 -1.170549104E-01
  5.265086000E+00 -1.555321506E-01
  2.333471000E+00 -2.468935009E-02
  9.018560000E-01  3.625054514E-01
  3.583360000E-01  5.550845021E-01
  1.410930000E-01  2.148376908E-01
  4.938300000E-02  8.983850034E-03
   p   9
  1.266665700E+02  1.233630000E-03
  2.983738900E+01  9.493409996E-03
  9.394038000E+00  4.293961998E-02
  3.405104000E+00  1.362925399E-01
  1.350000000E+00  2.921362499E-01
  5.576960000E-01  3.887887598E-01
  2.324490000E-01  2.946801399E-01
  9.426400000E-02  8.012875997E-02
  3.299200000E-02  5.405199998E-04
 
[MO]
Sym=     1a  
Ene=   -16.7810
Spin= Alpha
Occup=    2.00000
   1        -0.00077286
   2        -0.00035316
   3         0.00000000
   4        -0.00000000
   5        -0.00022142
   6         0.99997637
   7        -0.00755620
   8         0.00000000
   9        -0.00000000
  10         0.00004247
Sym=     2a  
Ene=   -16.7760
Spin= Alpha
Occup=    2.00000
   1        -0.99978486
   2         0.02068319
   3        -0.00000000
   4        -0.00000000
   5         0.00085487
   6        -0.00078395
   7        -0.00133043
   8        -0.00000000
   9         0.00000000
  10        -0.00053724
Sym=     3a  
Ene=    -1.8060
Spin= Alpha
Occup=    2.00000
   1         0.00665940
   2         0.01125263
   3        -0.00000000
   4        -0.00000000
   5        -0.03166870
   6        -0.00721460
   7        -0.99229188
   8        -0.00000000
   9         0.00000000
  10         0.07508732
Sym=     4a  
Ene=    -1.3115
Spin= Alpha
Occup=    2.00000
   1         0.00000000
   2        -0.00000000
   3        -0.01678921
   4         0.05176168
   5        -0.00000000
   6         0.00000000
   7         0.00000000
   8        -0.30814105
   9         0.94573822
  10         0.00000001
Sym=     5a  
Ene=    -1.3094
Spin= Alpha
Occup=    2.00000
   1         0.00000000
   2         0.00000000
   3         0.94557744
   4         0.30809619
   5         0.00000000
   6        -0.00000000
   7        -0.00000000
   8         0.05302324
   9         0.01719931
  10        -0.00000000
Sym=     6a  
Ene=    -0.7845
Spin= Alpha
Occup=    0.03525
   1        -0.00120785
   2         0.04481109
   3         0.00000000
   4         0.00000000
   5        -1.01487549
   6         0.01533683
   7         0.20956956
   8         0.00000000
   9        -0.00000000
  10        -0.01864805
Sym=     7a  
Ene=    -0.1382
Spin= Alpha
Occup=    1.96475
   1        -0.02118844
   2        -1.00127360
   3         0.00000000
   4         0.00000000
   5        -0.06437434
   6         0.00749362
   7         0.13134165
   8         0.00000000
   9        -0.00000000
  10         0.02274256
Sym=     8a  
Ene=    -0.7639
Spin= Alpha
Occup=    0.00000
   1         0.00000000
   2         0.00000000
   3         0.12024426
   4         0.03928141
   5         0.00000000
   6        -0.00000000
   7         0.00000000
   8        -0.95171856
   9        -0.31010672
  10         0.00000000
Sym=     9a  
Ene=    -0.7617
Spin= Alpha
Occup=    0.00000
   1         0.00000000
   2         0.00000000
   3         0.31013612
   4        -0.95178575
   5         0.00000000
   6        -0.00000000
   7         0.00000000
   8        -0.03887271
   9         0.11899119
  10         0.00000001
Sym=    10a  
Ene=    -0.7448
Spin= Alpha
Occup=    0.00000
   1         0.01565438
   2         0.20279526
   3        -0.00000000
   4         0.00000001
   5         0.18291204
   6        -0.00366144
   7         0.01911120
   8         0.00000000
   9        -0.00000001
  10         1.03056948
