[Molden Format]
[N_Atoms]
                     2
[Atoms] (AU)
N1          1      7           0.00000000      0.00000000      0.00000000
N2          2      7           0.00000000      0.00000000      3.77945225
[Charge] (Mulliken)
 -2.816511468495264E-010
  2.816422650653294E-010
[GTO] (AU)
   1
   s  14
  7.476171500E+04  1.182599996E-04
  1.112365400E+04  5.172899983E-04
  2.512685700E+03  2.266659992E-03
  7.037772900E+02  9.145289970E-03
  2.254787900E+02  3.239342989E-02
  7.961581000E+01  9.770792967E-02
  3.023728300E+01  2.317036792E-01
  1.226362200E+01  3.768898887E-01
  5.265086000E+00  3.177420689E-01
  2.333471000E+00  8.211308973E-02
  9.018560000E-01  3.312089989E-03
  3.583360000E-01  3.720819988E-03
  1.410930000E-01  3.165419989E-03
  4.938300000E-02  4.595799985E-04
   s  14
  7.476171500E+04 -2.707000010E-05
  1.112365400E+04 -1.183700004E-04
  2.512685700E+03 -5.203800020E-04
  7.037772900E+02 -2.102930008E-03
  2.254787900E+02 -7.568200028E-03
  7.961581000E+01 -2.346767009E-02
  3.023728300E+01 -6.042901023E-02
  1.226362200E+01 -1.170549104E-01
  5.265086000E+00 -1.555321506E-01
  2.333471000E+00 -2.468935009E-02
  9.018560000E-01  3.625054514E-01
  3.583360000E-01  5.550845021E-01
  1.410930000E-01  2.148376908E-01
  4.938300000E-02  8.983850034E-03
   p   9
  1.266665700E+02  1.233630000E-03
  2.983738900E+01  9.493409996E-03
  9.394038000E+00  4.293961998E-02
  3.405104000E+00  1.362925399E-01
  1.350000000E+00  2.921362499E-01
  5.576960000E-01  3.887887598E-01
  2.324490000E-01  2.946801399E-01
  9.426400000E-02  8.012875997E-02
  3.299200000E-02  5.405199998E-04
 
   2
   s  14
  7.476171500E+04  1.182599996E-04
  1.112365400E+04  5.172899983E-04
  2.512685700E+03  2.266659992E-03
  7.037772900E+02  9.145289970E-03
  2.254787900E+02  3.239342989E-02
  7.961581000E+01  9.770792967E-02
  3.023728300E+01  2.317036792E-01
  1.226362200E+01  3.768898887E-01
  5.265086000E+00  3.177420689E-01
  2.333471000E+00  8.211308973E-02
  9.018560000E-01  3.312089989E-03
  3.583360000E-01  3.720819988E-03
  1.410930000E-01  3.165419989E-03
  4.938300000E-02  4.595799985E-04
   s  14
  7.476171500E+04 -2.707000010E-05
  1.112365400E+04 -1.183700004E-04
  2.512685700E+03 -5.203800020E-04
  7.037772900E+02 -2.102930008E-03
  2.254787900E+02 -7.568200028E-03
  7.961581000E+01 -2.346767009E-02
  3.023728300E+01 -6.042901023E-02
  1.226362200E+01 -1.170549104E-01
  5.265086000E+00 -1.555321506E-01
  2.333471000E+00 -2.468935009E-02
  9.018560000E-01  3.625054514E-01
  3.583360000E-01  5.550845021E-01
  1.410930000E-01  2.148376908E-01
  4.938300000E-02  8.983850034E-03
   p   9
  1.266665700E+02  1.233630000E-03
  2.983738900E+01  9.493409996E-03
  9.394038000E+00  4.293961998E-02
  3.405104000E+00  1.362925399E-01
  1.350000000E+00  2.921362499E-01
  5.576960000E-01  3.887887598E-01
  2.324490000E-01  2.946801399E-01
  9.426400000E-02  8.012875997E-02
  3.299200000E-02  5.405199998E-04
 
[MO]
Sym=     1a  
Ene=   -15.6500
Spin= Alpha
Occup=    1.00000
   1         0.70705339
   2        -0.00452964
   3         0.00000000
   4         0.00000000
   5         0.00034414
   6         0.70705320
   7        -0.00452964
   8        -0.00000000
   9        -0.00000000
  10        -0.00034414
Sym=     1a  
Ene=   -15.6500
Spin= Beta
Occup=    1.00000
   1         0.70705339
   2        -0.00452964
   3         0.00000000
   4         0.00000000
   5         0.00034414
   6         0.70705320
   7        -0.00452964
   8        -0.00000000
   9        -0.00000000
  10        -0.00034414
Sym=     2a  
Ene=   -15.6500
Spin= Alpha
Occup=    1.00000
   1        -0.70714502
   2         0.00386028
   3         0.00000000
   4         0.00000000
   5        -0.00077202
   6         0.70714521
   7        -0.00386028
   8        -0.00000000
   9         0.00000000
  10        -0.00077202
Sym=     2a  
Ene=   -15.6500
Spin= Beta
Occup=    1.00000
   1        -0.70714502
   2         0.00386028
   3         0.00000000
   4         0.00000000
   5        -0.00077202
   6         0.70714521
   7        -0.00386028
   8        -0.00000000
   9         0.00000000
  10        -0.00077202
Sym=     3a  
Ene=    -1.0363
Spin= Alpha
Occup=    1.00000
   1        -0.00082354
   2         0.65652858
   3        -0.00000000
   4        -0.00000000
   5         0.06546753
   6        -0.00082354
   7         0.65652858
   8         0.00000000
   9        -0.00000000
  10        -0.06546753
Sym=     3a  
Ene=    -1.0363
Spin= Beta
Occup=    1.00000
   1        -0.00082354
   2         0.65652858
   3        -0.00000000
   4        -0.00000000
   5         0.06546753
   6        -0.00082354
   7         0.65652858
   8         0.00000000
   9        -0.00000000
  10        -0.06546753
Sym=     4a  
Ene=    -0.8972
Spin= Alpha
Occup=    1.00000
   1        -0.00761195
   2        -0.73258002
   3         0.00000000
   4        -0.00000000
   5         0.07983295
   6         0.00761195
   7         0.73258002
   8         0.00000000
   9         0.00000000
  10         0.07983295
Sym=     4a  
Ene=    -0.8972
Spin= Beta
Occup=    1.00000
   1        -0.00761195
   2        -0.73258002
   3         0.00000000
   4        -0.00000000
   5         0.07983295
   6         0.00761195
   7         0.73258002
   8         0.00000000
   9         0.00000000
  10         0.07983295
Sym=     5a  
Ene=    -0.4118
Spin= Alpha
Occup=    1.00000
   1         0.00970523
   2         0.16538405
   3        -0.00000000
   4        -0.00000000
   5        -0.65437680
   6         0.00970523
   7         0.16538405
   8         0.00000000
   9         0.00000000
  10         0.65437680
Sym=     5a  
Ene=    -0.4118
Spin= Beta
Occup=    1.00000
   1         0.00970523
   2         0.16538405
   3        -0.00000000
   4        -0.00000000
   5        -0.65437680
   6         0.00970523
   7         0.16538405
   8         0.00000000
   9         0.00000000
  10         0.65437680
Sym=     6a  
Ene=    -0.3434
Spin= Alpha
Occup=    1.00000
   1        -0.00000000
   2        -0.00000000
   3        -0.04725955
   4         0.68168587
   5         0.00000000
   6        -0.00000000
   7         0.00000000
   8        -0.04725955
   9         0.68168587
  10        -0.00000000
Sym=     6a  
Ene=    -0.3434
Spin= Beta
Occup=    1.00000
   1        -0.00000000
   2        -0.00000000
   3        -0.04725955
   4         0.68168587
   5         0.00000000
   6        -0.00000000
   7         0.00000000
   8        -0.04725955
   9         0.68168587
  10        -0.00000000
Sym=     7a  
Ene=    -0.3434
Spin= Alpha
Occup=    1.00000
   1         0.00000000
   2         0.00000000
   3         0.68168587
   4         0.04725955
   5         0.00000000
   6        -0.00000000
   7        -0.00000000
   8         0.68168587
   9         0.04725955
  10         0.00000000
Sym=     7a  
Ene=    -0.3434
Spin= Beta
Occup=    1.00000
   1         0.00000000
   2         0.00000000
   3         0.68168587
   4         0.04725955
   5         0.00000000
   6        -0.00000000
   7        -0.00000000
   8         0.68168587
   9         0.04725955
  10         0.00000000
Sym=     8a  
Ene=    -0.0209
Spin= Alpha
Occup=    0.00000
   1        -0.00000000
   2        -0.00000000
   3        -0.40791370
   4        -0.60968763
   5         0.00000000
   6        -0.00000000
   7        -0.00000000
   8         0.40791370
   9         0.60968763
  10        -0.00000000
Sym=     8a  
Ene=    -0.0209
Spin= Beta
Occup=    0.00000
   1        -0.00000000
   2        -0.00000000
   3        -0.40791370
   4        -0.60968763
   5         0.00000000
   6        -0.00000000
   7        -0.00000000
   8         0.40791370
   9         0.60968763
  10        -0.00000000
Sym=     9a  
Ene=    -0.0209
Spin= Alpha
Occup=    0.00000
   1        -0.00000000
   2        -0.00000000
   3        -0.60968763
   4         0.40791370
   5         0.00000000
   6        -0.00000000
   7        -0.00000000
   8         0.60968763
   9        -0.40791370
  10        -0.00000000
Sym=     9a  
Ene=    -0.0209
Spin= Beta
Occup=    0.00000
   1        -0.00000000
   2        -0.00000000
   3        -0.60968763
   4         0.40791370
   5         0.00000000
   6        -0.00000000
   7        -0.00000000
   8         0.60968763
   9        -0.40791370
  10        -0.00000000
Sym=    10a  
Ene=     0.1136
Spin= Alpha
Occup=    0.00000
   1         0.01337170
   2         0.22615647
   3        -0.00000000
   4         0.00000000
   5         0.79354131
   6        -0.01337170
   7        -0.22615647
   8        -0.00000000
   9        -0.00000000
  10         0.79354131
Sym=    10a  
Ene=     0.1136
Spin= Beta
Occup=    0.00000
   1         0.01337170
   2         0.22615647
   3        -0.00000000
   4         0.00000000
   5         0.79354131
   6        -0.01337170
   7        -0.22615647
   8        -0.00000000
   9        -0.00000000
  10         0.79354131
