[Molden Format]
[N_Atoms]
                     2
[Atoms] (AU)
O1          1      8           0.00000000      0.00000000      0.00000000
O2          2      8           0.00000000      0.00000000      3.96842486
[Charge] (Mulliken)
   1.00059294353829     
  0.999407056461687     
[GTO] (AU)
   1
   s  14
  1.053749500E+05  1.238600013E-04
  1.567924000E+04  5.120100053E-04
  3.534544700E+03  2.152910022E-03
  9.873651600E+02  8.528440089E-03
  3.159787500E+02  3.018049031E-02
  1.116542800E+02  9.099702095E-02
  4.269945100E+01  2.177936423E-01
  1.739559600E+01  3.686245738E-01
  7.438309000E+00  3.366707335E-01
  3.222862000E+00  9.657630101E-02
  1.253877000E+00  2.144520022E-03
  4.951550000E-01  1.194350012E-03
  1.916650000E-01  5.390200056E-04
  6.708300000E-02  2.103400022E-04
   s  14
  1.053749500E+05 -2.815000008E-05
  1.567924000E+04 -1.163000003E-04
  3.534544700E+03 -4.909200013E-04
  9.873651600E+02 -1.946160005E-03
  3.159787500E+02 -7.005300019E-03
  1.116542800E+02 -2.167814006E-02
  4.269945100E+01 -5.641213015E-02
  1.739559600E+01 -1.127053003E-01
  7.438309000E+00 -1.589119704E-01
  3.222862000E+00 -3.355083009E-02
  1.253877000E+00  3.531902810E-01
  4.951550000E-01  5.534199315E-01
  1.916650000E-01  2.301839106E-01
  6.708300000E-02  1.127267003E-02
   p   9
  2.000000000E+02  9.173000030E-04
  4.653336700E+01  7.377140024E-03
  1.462180900E+01  3.483515011E-02
  5.313064000E+00  1.144397004E-01
  2.102525000E+00  2.554966408E-01
  8.502230000E-01  3.722557412E-01
  3.375970000E-01  3.323314911E-01
  1.288920000E-01  1.400847905E-01
  4.511200000E-02  2.395784008E-02
 
   2
   s  14
  1.053749500E+05  1.238600013E-04
  1.567924000E+04  5.120100053E-04
  3.534544700E+03  2.152910022E-03
  9.873651600E+02  8.528440089E-03
  3.159787500E+02  3.018049031E-02
  1.116542800E+02  9.099702095E-02
  4.269945100E+01  2.177936423E-01
  1.739559600E+01  3.686245738E-01
  7.438309000E+00  3.366707335E-01
  3.222862000E+00  9.657630101E-02
  1.253877000E+00  2.144520022E-03
  4.951550000E-01  1.194350012E-03
  1.916650000E-01  5.390200056E-04
  6.708300000E-02  2.103400022E-04
   s  14
  1.053749500E+05 -2.815000008E-05
  1.567924000E+04 -1.163000003E-04
  3.534544700E+03 -4.909200013E-04
  9.873651600E+02 -1.946160005E-03
  3.159787500E+02 -7.005300019E-03
  1.116542800E+02 -2.167814006E-02
  4.269945100E+01 -5.641213015E-02
  1.739559600E+01 -1.127053003E-01
  7.438309000E+00 -1.589119704E-01
  3.222862000E+00 -3.355083009E-02
  1.253877000E+00  3.531902810E-01
  4.951550000E-01  5.534199315E-01
  1.916650000E-01  2.301839106E-01
  6.708300000E-02  1.127267003E-02
   p   9
  2.000000000E+02  9.173000030E-04
  4.653336700E+01  7.377140024E-03
  1.462180900E+01  3.483515011E-02
  5.313064000E+00  1.144397004E-01
  2.102525000E+00  2.554966408E-01
  8.502230000E-01  3.722557412E-01
  3.375970000E-01  3.323314911E-01
  1.288920000E-01  1.400847905E-01
  4.511200000E-02  2.395784008E-02
 
[MO]
Sym=     1a  
Ene=   -22.0820
Spin= Alpha
Occup=    2.00000
   1         0.02691554
   2        -0.00042290
   3         0.00000000
   4         0.00000000
   5         0.00010083
   6         0.99963510
   7        -0.00203116
   8         0.00000000
   9         0.00000000
  10        -0.00031602
Sym=     2a  
Ene=   -22.0800
Spin= Alpha
Occup=    2.00000
   1        -0.99950899
   2         0.01527785
   3        -0.00000000
   4        -0.00000000
   5        -0.00124250
   6         0.02691278
   7        -0.00055620
   8        -0.00000000
   9        -0.00000000
  10         0.00130641
Sym=     3a  
Ene=    -2.2256
Spin= Alpha
Occup=    2.00000
   1         0.00253733
   2         0.00138642
   3        -0.00000001
   4        -0.00000002
   5        -0.03383547
   6        -0.00172403
   7        -0.99398710
   8         0.00000001
   9         0.00000002
  10         0.05349713
Sym=     4a  
Ene=    -1.5457
Spin= Alpha
Occup=    2.00000
   1         0.00000000
   2        -0.00000000
   3         0.84555939
   4        -0.53355380
   5        -0.00000000
   6         0.00000000
   7         0.00000000
   8         0.00273922
   9        -0.00172746
  10         0.00000000
Sym=     5a  
Ene=    -1.5455
Spin= Alpha
Occup=    2.00000
   1         0.00000001
   2        -0.00000000
   3         0.00138897
   4         0.00220280
   5        -0.00000042
   6         0.00000000
   7         0.00000017
   8         0.53357253
   9         0.84558903
  10         0.00000152
Sym=     6a  
Ene=    -1.4628
Spin= Alpha
Occup=    2.00000
   1         0.00530949
   2        -0.06138089
   3        -0.00000024
   4        -0.00000038
   5        -0.66266916
   6         0.00628614
   7         0.14424129
   8        -0.00000077
   9        -0.00000122
  10         0.65896357
Sym=     7a  
Ene=    -2.1909
Spin= Alpha
Occup=    1.97434
   1        -0.01619027
   2        -1.00327070
   3         0.00000004
   4         0.00000006
   5         0.07798756
   6         0.00151860
   7         0.04117512
   8         0.00000001
   9         0.00000002
  10        -0.09899036
Sym=     8a  
Ene=    -0.0000
Spin= Alpha
Occup=    0.02566
   1         0.00000000
   2         0.00000001
   3        -0.53437880
   4        -0.84686683
   5         0.00000087
   6        -0.00000001
   7        -0.00000010
   8         0.02937700
   9         0.04655576
  10         0.00000027
Sym=     9a  
Ene=    -1.0611
Spin= Alpha
Occup=    0.00000
   1         0.00665799
   2         0.07837915
   3         0.00000040
   4         0.00000063
   5         0.76532542
   6        -0.00665676
   7        -0.07863070
   8        -0.00000041
   9        -0.00000064
  10         0.76497454
Sym=    10a  
Ene=    -0.9431
Spin= Alpha
Occup=    0.00000
   1         0.00000000
   2         0.00000000
   3        -0.04709136
   4         0.02971497
   5         0.00000000
   6        -0.00000000
   7        -0.00000000
   8         0.84686525
   9        -0.53437784
  10         0.00000000
