[Molden Format]
[N_Atoms]
                     2
[Atoms] (AU)
O1          1      8           0.00000000      0.00000000      0.00000000
O2          2      8           0.00000000      0.00000000      3.96842486
[Charge] (Mulliken)
  3.810360027500792E-009
 -3.810374238355507E-009
[GTO] (AU)
   1
   s  14
  1.053749500E+05  1.238600013E-04
  1.567924000E+04  5.120100053E-04
  3.534544700E+03  2.152910022E-03
  9.873651600E+02  8.528440089E-03
  3.159787500E+02  3.018049031E-02
  1.116542800E+02  9.099702095E-02
  4.269945100E+01  2.177936423E-01
  1.739559600E+01  3.686245738E-01
  7.438309000E+00  3.366707335E-01
  3.222862000E+00  9.657630101E-02
  1.253877000E+00  2.144520022E-03
  4.951550000E-01  1.194350012E-03
  1.916650000E-01  5.390200056E-04
  6.708300000E-02  2.103400022E-04
   s  14
  1.053749500E+05 -2.815000008E-05
  1.567924000E+04 -1.163000003E-04
  3.534544700E+03 -4.909200013E-04
  9.873651600E+02 -1.946160005E-03
  3.159787500E+02 -7.005300019E-03
  1.116542800E+02 -2.167814006E-02
  4.269945100E+01 -5.641213015E-02
  1.739559600E+01 -1.127053003E-01
  7.438309000E+00 -1.589119704E-01
  3.222862000E+00 -3.355083009E-02
  1.253877000E+00  3.531902810E-01
  4.951550000E-01  5.534199315E-01
  1.916650000E-01  2.301839106E-01
  6.708300000E-02  1.127267003E-02
   p   9
  2.000000000E+02  9.173000030E-04
  4.653336700E+01  7.377140024E-03
  1.462180900E+01  3.483515011E-02
  5.313064000E+00  1.144397004E-01
  2.102525000E+00  2.554966408E-01
  8.502230000E-01  3.722557412E-01
  3.375970000E-01  3.323314911E-01
  1.288920000E-01  1.400847905E-01
  4.511200000E-02  2.395784008E-02
 
   2
   s  14
  1.053749500E+05  1.238600013E-04
  1.567924000E+04  5.120100053E-04
  3.534544700E+03  2.152910022E-03
  9.873651600E+02  8.528440089E-03
  3.159787500E+02  3.018049031E-02
  1.116542800E+02  9.099702095E-02
  4.269945100E+01  2.177936423E-01
  1.739559600E+01  3.686245738E-01
  7.438309000E+00  3.366707335E-01
  3.222862000E+00  9.657630101E-02
  1.253877000E+00  2.144520022E-03
  4.951550000E-01  1.194350012E-03
  1.916650000E-01  5.390200056E-04
  6.708300000E-02  2.103400022E-04
   s  14
  1.053749500E+05 -2.815000008E-05
  1.567924000E+04 -1.163000003E-04
  3.534544700E+03 -4.909200013E-04
  9.873651600E+02 -1.946160005E-03
  3.159787500E+02 -7.005300019E-03
  1.116542800E+02 -2.167814006E-02
  4.269945100E+01 -5.641213015E-02
  1.739559600E+01 -1.127053003E-01
  7.438309000E+00 -1.589119704E-01
  3.222862000E+00 -3.355083009E-02
  1.253877000E+00  3.531902810E-01
  4.951550000E-01  5.534199315E-01
  1.916650000E-01  2.301839106E-01
  6.708300000E-02  1.127267003E-02
   p   9
  2.000000000E+02  9.173000030E-04
  4.653336700E+01  7.377140024E-03
  1.462180900E+01  3.483515011E-02
  5.313064000E+00  1.144397004E-01
  2.102525000E+00  2.554966408E-01
  8.502230000E-01  3.722557412E-01
  3.375970000E-01  3.323314911E-01
  1.288920000E-01  1.400847905E-01
  4.511200000E-02  2.395784008E-02
 
[MO]
Sym=     1a  
Ene=   -20.7970
Spin= Alpha
Occup=    2.00000
   1         0.70711342
   2        -0.00039555
   3         0.00000000
   4        -0.00000000
   5         0.00021108
   6         0.70708495
   7        -0.00039554
   8         0.00000000
   9         0.00000000
  10        -0.00021107
Sym=     2a  
Ene=   -20.7970
Spin= Alpha
Occup=    2.00000
   1        -0.70710060
   2         0.00027296
   3        -0.00000000
   4        -0.00000000
   5        -0.00025964
   6         0.70712906
   7        -0.00027297
   8         0.00000000
   9         0.00000000
  10        -0.00025965
Sym=     3a  
Ene=    -1.3376
Spin= Alpha
Occup=    2.00000
   1         0.00140384
   2        -0.68474228
   3        -0.00000000
   4         0.00000000
   5        -0.02994642
   6         0.00140384
   7        -0.68474225
   8         0.00000000
   9         0.00000000
  10         0.02994642
Sym=     4a  
Ene=    -1.2676
Spin= Alpha
Occup=    2.00000
   1        -0.00160834
   2        -0.72225833
   3        -0.00000000
   4         0.00000000
   5         0.03419082
   6         0.00160834
   7         0.72225836
   8        -0.00000000
   9        -0.00000000
  10         0.03419082
Sym=     5a  
Ene=    -0.5489
Spin= Alpha
Occup=    2.00000
   1        -0.00000000
   2        -0.00000000
   3         0.37694347
   4         0.57708619
   5         0.00000000
   6        -0.00000000
   7         0.00000000
   8         0.37694347
   9         0.57708620
  10        -0.00000000
Sym=     6a  
Ene=    -0.5489
Spin= Alpha
Occup=    2.00000
   1        -0.00000000
   2        -0.00000000
   3         0.57708619
   4        -0.37694347
   5         0.00000000
   6        -0.00000000
   7        -0.00000000
   8         0.57708620
   9        -0.37694347
  10        -0.00000000
Sym=     7a  
Ene=    -0.5175
Spin= Alpha
Occup=    2.00000
   1         0.00581096
   2         0.10305844
   3         0.00000000
   4        -0.00000000
   5        -0.66747298
   6         0.00581096
   7         0.10305844
   8         0.00000000
   9        -0.00000000
  10         0.66747298
Sym=     8a  
Ene=    -0.3904
Spin= Alpha
Occup=    1.00000
   1         0.00000000
   2         0.00000000
   3        -0.61431038
   4         0.38763230
   5        -0.00000000
   6         0.00000000
   7         0.00000000
   8         0.61431038
   9        -0.38763230
  10        -0.00000000
Sym=     9a  
Ene=    -0.0000
Spin= Alpha
Occup=    1.00000
   1        -0.00000000
   2        -0.00000000
   3         0.38763230
   4         0.61431038
   5         0.00000000
   6         0.00000000
   7        -0.00000000
   8        -0.38763230
   9        -0.61431038
  10        -0.00000000
Sym=    10a  
Ene=    -0.0966
Spin= Alpha
Occup=    0.00000
   1         0.00669181
   2         0.12469224
   3        -0.00000000
   4         0.00000000
   5         0.76452324
   6        -0.00669181
   7        -0.12469224
   8        -0.00000000
   9        -0.00000000
  10         0.76452324
