[Molden Format]
[N_Atoms]
                     2
[Atoms] (AU)
F1          1      9           0.00000000      0.00000000      0.00000000
LI2         2      3           0.00000000      0.00000000      2.64561657
[Charge] (Mulliken)
 -0.723891204728945     
  0.723891204728934     
[GTO] (AU)
   1
   s  14
  1.031094600E+05  1.713099991E-04
  1.528100700E+04  7.123999962E-04
  3.441539200E+03  2.990479984E-03
  9.670948300E+02  1.164036994E-02
  3.140353400E+02  3.968642979E-02
  1.134423000E+02  1.128546094E-01
  4.464472700E+01  2.473650687E-01
  1.894287400E+01  3.672702681E-01
  8.532743000E+00  2.896286985E-01
  3.919401000E+00  7.786681959E-02
  1.568157000E+00  4.562139976E-03
  6.232900000E-01  2.468879987E-03
  2.408610000E-01  1.106309994E-03
  8.430100000E-02  1.739699991E-04
   s  14
  1.031094600E+05 -4.044999995E-05
  1.528100700E+04 -1.682299998E-04
  3.441539200E+03 -7.084299991E-04
  9.670948300E+02 -2.767999996E-03
  3.140353400E+02 -9.611379987E-03
  1.134423000E+02 -2.833957996E-02
  4.464472700E+01 -6.839343991E-02
  1.894287400E+01 -1.237379298E-01
  8.532743000E+00 -1.512859698E-01
  3.919401000E+00 -9.099909988E-03
  1.568157000E+00  3.716257695E-01
  6.232900000E-01  5.500214393E-01
  2.408610000E-01  2.092318697E-01
  8.430100000E-02  8.074639989E-03
   p   9
  2.453302900E+02  1.024860004E-03
  5.691900500E+01  8.344290032E-03
  1.760456800E+01  4.078927016E-02
  6.274995000E+00  1.351370605E-01
  2.447030000E+00  2.798830811E-01
  9.950600000E-01  3.597966414E-01
  4.039730000E-01  3.055347412E-01
  1.548100000E-01  1.354703905E-01
  5.418400000E-02  2.804449011E-02
 
   2
   s  14
  9.497934400E+03  9.668999974E-05
  1.416811200E+03  6.087099984E-04
  3.214599400E+02  3.101519992E-03
  9.112416300E+01  1.266904997E-02
  2.999989100E+01  4.248012989E-02
  1.101763100E+01  1.150183297E-01
  4.372801000E+00  2.398650094E-01
  1.831256000E+00  3.584300090E-01
  8.022610000E-01  3.048527792E-01
  3.626480000E-01  8.824261976E-02
  1.139950000E-01 -8.445899977E-04
  5.123700000E-02 -7.943959979E-03
  2.246800000E-02 -3.764419990E-03
  7.860000000E-03 -8.868999976E-05
   s  14
  9.497934400E+03 -1.244999993E-05
  1.416811200E+03 -7.838999954E-05
  3.214599400E+02 -4.007099976E-04
  9.112416300E+01 -1.645249990E-03
  2.999989100E+01 -5.634599967E-03
  1.101763100E+01 -1.590780991E-02
  4.372801000E+00 -3.612581979E-02
  1.831256000E+00 -6.459927962E-02
  8.022610000E-01 -1.008321794E-01
  3.626480000E-01 -9.757613942E-02
  1.139950000E-01  2.301215886E-01
  5.123700000E-02  6.102389764E-01
  2.246800000E-02  2.849406083E-01
  7.860000000E-03  4.026899976E-03
   p   9
  1.311950400E+01  1.524940000E-03
  3.077424200E+00  8.314830000E-03
  1.098800500E+00  1.933203000E-02
  4.357784000E-01  4.934293000E-02
  1.802432000E-01  1.623554000E-01
  7.613330000E-02  3.847505400E-01
  3.254650000E-02  4.336100400E-01
  1.401820000E-02  1.287005900E-01
  4.906400000E-03 -1.018520000E-03
 
[MO]
Sym=     1a  
Ene=   -25.8820
Spin= Alpha
Occup=    1.00000
   1         1.00002817
   2        -0.00199713
   3        -0.00000000
   4         0.00000000
   5         0.00038164
   6        -0.00021578
   7        -0.00039430
   8         0.00000000
   9         0.00000000
  10         0.00037738
Sym=     1a  
Ene=   -25.8820
Spin= Beta
Occup=    1.00000
   1         1.00002817
   2        -0.00199713
   3        -0.00000000
   4         0.00000000
   5         0.00038164
   6        -0.00021578
   7        -0.00039430
   8         0.00000000
   9         0.00000000
  10         0.00037738
Sym=     2a  
Ene=    -2.4559
Spin= Alpha
Occup=    1.00000
   1        -0.00187876
   2         0.03449457
   3         0.00000000
   4         0.00000000
   5         0.01928369
   6         0.99390220
   7         0.01200878
   8         0.00000000
   9         0.00000000
  10         0.00242496
Sym=     2a  
Ene=    -2.4559
Spin= Beta
Occup=    1.00000
   1        -0.00187876
   2         0.03449457
   3         0.00000000
   4         0.00000000
   5         0.01928369
   6         0.99390220
   7         0.01200878
   8         0.00000000
   9         0.00000000
  10         0.00242496
Sym=     3a  
Ene=    -1.3274
Spin= Alpha
Occup=    1.00000
   1        -0.00045908
   2         0.97442398
   3        -0.00000000
   4        -0.00000000
   5         0.07331599
   6        -0.11465683
   7         0.02684226
   8         0.00000000
   9         0.00000000
  10        -0.04367204
Sym=     3a  
Ene=    -1.3274
Spin= Beta
Occup=    1.00000
   1        -0.00045908
   2         0.97442398
   3        -0.00000000
   4        -0.00000000
   5         0.07331599
   6        -0.11465683
   7         0.02684226
   8         0.00000000
   9         0.00000000
  10        -0.04367204
Sym=     4a  
Ene=    -0.4484
Spin= Alpha
Occup=    1.00000
   1        -0.00252625
   2        -0.08549232
   3         0.00000000
   4        -0.00000000
   5         1.00741561
   6        -0.15900949
   7         0.00156837
   8         0.00000000
   9         0.00000000
  10        -0.04911141
Sym=     4a  
Ene=    -0.4484
Spin= Beta
Occup=    1.00000
   1        -0.00252625
   2        -0.08549232
   3         0.00000000
   4        -0.00000000
   5         1.00741561
   6        -0.15900949
   7         0.00156837
   8         0.00000000
   9         0.00000000
  10        -0.04911141
Sym=     5a  
Ene=    -0.4173
Spin= Alpha
Occup=    1.00000
   1         0.00000000
   2         0.00000000
   3         0.86743168
   4        -0.39881084
   5        -0.00000000
   6         0.00000000
   7        -0.00000000
   8         0.13827765
   9        -0.06357461
  10         0.00000000
Sym=     5a  
Ene=    -0.4173
Spin= Beta
Occup=    1.00000
   1         0.00000000
   2         0.00000000
   3         0.86743168
   4        -0.39881084
   5        -0.00000000
   6         0.00000000
   7        -0.00000000
   8         0.13827765
   9        -0.06357461
  10         0.00000000
Sym=     6a  
Ene=    -0.4173
Spin= Alpha
Occup=    1.00000
   1        -0.00000000
   2        -0.00000000
   3         0.39881084
   4         0.86743168
   5        -0.00000000
   6        -0.00000000
   7         0.00000000
   8         0.06357461
   9         0.13827765
  10        -0.00000000
Sym=     6a  
Ene=    -0.4173
Spin= Beta
Occup=    1.00000
   1        -0.00000000
   2        -0.00000000
   3         0.39881084
   4         0.86743168
   5        -0.00000000
   6        -0.00000000
   7         0.00000000
   8         0.06357461
   9         0.13827765
  10        -0.00000000
Sym=     7a  
Ene=     0.0116
Spin= Alpha
Occup=    0.00000
   1        -0.00216294
   2        -0.04349621
   3        -0.00000000
   4        -0.00000000
   5        -0.05643520
   6        -0.00057080
   7         0.84102508
   8         0.00000000
   9        -0.00000000
  10         0.54812393
Sym=     7a  
Ene=     0.0116
Spin= Beta
Occup=    0.00000
   1        -0.00216294
   2        -0.04349621
   3        -0.00000000
   4        -0.00000000
   5        -0.05643520
   6        -0.00057080
   7         0.84102508
   8         0.00000000
   9        -0.00000000
  10         0.54812393
Sym=     8a  
Ene=     0.1126
Spin= Alpha
Occup=    0.00000
   1         0.00000000
   2         0.00000000
   3         0.04114324
   4        -0.37427653
   5        -0.00000000
   6        -0.00000000
   7         0.00000000
   8        -0.11090154
   9         1.00886169
  10         0.00000000
Sym=     8a  
Ene=     0.1126
Spin= Beta
Occup=    0.00000
   1         0.00000000
   2         0.00000000
   3         0.04114324
   4        -0.37427653
   5        -0.00000000
   6        -0.00000000
   7         0.00000000
   8        -0.11090154
   9         1.00886169
  10         0.00000000
Sym=     9a  
Ene=     0.1126
Spin= Alpha
Occup=    0.00000
   1        -0.00000000
   2        -0.00000000
   3        -0.37427653
   4        -0.04114324
   5        -0.00000000
   6         0.00000000
   7        -0.00000000
   8         1.00886169
   9         0.11090154
  10        -0.00000000
Sym=     9a  
Ene=     0.1126
Spin= Beta
Occup=    0.00000
   1        -0.00000000
   2        -0.00000000
   3        -0.37427653
   4        -0.04114324
   5        -0.00000000
   6         0.00000000
   7        -0.00000000
   8         1.00886169
   9         0.11090154
  10        -0.00000000
Sym=    10a  
Ene=     0.2291
Spin= Alpha
Occup=    0.00000
   1         0.06426205
   2         0.57774541
   3        -0.00000000
   4         0.00000000
   5         0.08326235
   6        -0.04958385
   7        -0.64223617
   8         0.00000000
   9        -0.00000000
  10         0.93513890
Sym=    10a  
Ene=     0.2291
Spin= Beta
Occup=    0.00000
   1         0.06426205
   2         0.57774541
   3        -0.00000000
   4         0.00000000
   5         0.08326235
   6        -0.04958385
   7        -0.64223617
   8         0.00000000
   9        -0.00000000
  10         0.93513890
