   This run of MOLCAS is using the pymolcas driver

                             OPE
                             OPE          NMOL  CASOP  ENMOLC A   SO
                 OPE        NMOLC        AS  OP EN  MO LC     AS  OP
                OPENM       OL CA        SO  PE NM  OL CA     SOP EN
                OP EN      MO   LC       AS  OP ENMOL  CASO   PENMOL
                OP  EN     MO   LC       AS  OP EN     MO     LC ASO
               OP   E  NMOL  C  AS       OP  EN MO     LC     AS  OP
               OP  E   NMO   LC AS        OPEN  MO     LCASOP EN   M
               O  PEN   MO  LCA  SO
            OPE   NMO   L   CAS    OP
        OPENMOL  CASOP     ENMOL   CASOPE
     OPENMOLCA   SOPENMOLCASOPEN   MOLCASOPE
    OPENMOLCAS   OP           EN   MOL    CAS
    OPENMOLCAS       OP  ENM        O     LCA
    OPENMOLCAS    OPEN  MOLCASO     P  E  NMO
    OPENMOLCAS     OP               E  N  MOL
    OPENMOLCA   SO           PENM   O  L  CAS    OPEN    MO    LCAS
    OPENMOLCA   SOP           ENM   O  L  CAS   OP  EN  MOLC  AS   O
    OPENMOLCA   SOPE           NM      O  LCA   S      OP  EN MO
    OPENMOLC                AS         O  PEN   M      OL  CA  SOPE
    OPENMO        LCASOPE  NMOL        C  ASO   P      ENMOLC     AS
    OPE     NMO      LCA  SO     P     E   NM   OL  CA SO  PE N   MO
          OPENMOLCA            SOPE   NMO        LCAS  O    P  ENMO
     OPENMOLCASOPENMOLCASOPENMOLCASOPENMOLCA
        OPENMOLCASOPENMOLCASOPENMOLCASOPE
            OPENMOLCASOPENMOLCASOPENM
               OPENMOLCASOPENMOLCA        version: ea724fe96-dirty
                   OPENMOLCASO
                       OPE                tag:

 OpenMolcas is free software; you can redistribute it and/or modify it
 under the terms of the GNU Lesser General Public License version 2.1.
 OpenMolcas is distributed in the hope that it will be useful, but it
 is provided "as is" and without any express or implied warranties.
 For more details see the full text of the license in the file
 LICENSE or in <http://www.gnu.org/licenses/>.

                 Copyright (C) The OpenMolcas Authors
           For the author list and the recommended citation,
                   consult the file CONTRIBUTORS.md

           *************************************************
           * pymolcas version py2.28                       *
           *   build c4a6d18ded8cb6cad61d2372a9abd97c      *
           *   (after the EMIL interpreter by V. Veryazov) *
           *************************************************

configuration info
------------------
C Compiler ID: Intel
C flags: -std=gnu99
Fortran Compiler ID: Intel
Fortran flags: -fpp -i8 -r8 -heap-arrays
Definitions: _MOLCAS_;_I8_;_LINUX_
Parallel: OFF (GA=OFF)


   ----------------------------------------------------------------------------------
  |
  |              Project: H12_1.40
  |       Submitted from: /home/grierjones/DDCASPT2/hydrogen_comps/H12_chain/H12_1.40
  |         Scratch area: /tmp/H12_1.40
  |      Save outputs to: /home/grierjones/DDCASPT2/hydrogen_comps/H12_chain/H12_1.40
  |               Molcas: /home/grierjones/Test/build
  |
  | Scratch area is empty
  |
  |       MOLCAS_DRIVER = /usr/local/pymolcas
  | MOLCAS_KEEP_WORKDIR = NO
  |  MOLCAS_NEW_WORKDIR = YES
  |       MOLCAS_NPROCS = 1
  |        MOLCAS_PRINT = NORMAL
  |       MOLCAS_SOURCE = /home/grierjones/Test/build
  |    MOLCAS_STRUCTURE = 0
  |
   ----------------------------------------------------------------------------------

++ ---------   Input file   ---------

&GATEWAY
coord=H12_1.40.xyz
Basis = ANO-RCC-VDZP
Group = nosymm
Expert
End of Input

&SEWARD
End of Input

&SCF

>>> COPY $WorkDir/H12_1.40.scf.h5 $CurrDir/

&RASSCF
Title= RASSCF
FileOrb
/home/grierjones/DDCASPT2/hydrogen_comps/H12_chain/H12_1.38/H12_1.38.RasOrb
NACTEL
12 0 0
Inactive
0
RAS2
12
Symmetry
1
Spin
1
orblisting
all
ITERation
200 100
CIMX
200
SDAV
500

>>> COPY $WorkDir/H12_1.40.rasscf.h5 $CurrDir/

>>> COPY $WorkDir/GMJ_Fock_MO.csv $CurrDir/H12_1.40.GMJ_Fock_MO.csv

>>> COPY $WorkDir/GMJ_PT2_Fock_MO.csv $CurrDir/H12_1.40.GMJ_PT2_Fock_MO.csv

&MOTRA
Frozen=0
LUMORB

>>> COPY $WorkDir/GMJ_one_int_indx.csv $CurrDir/H12_1.40.GMJ_one_int_indx.csv

>>> COPY $WorkDir/GMJ_one_int.csv $CurrDir/H12_1.40.GMJ_one_int.csv

>>> COPY $WorkDir/GMJ_two_int_indx.csv $CurrDir/H12_1.40.GMJ_two_int_indx.csv

>>> COPY $WorkDir/GMJ_two_int.csv $CurrDir/H12_1.40.GMJ_two_int.csv

&CASPT2
Frozen
0

>>> FOREACH i IN (B,E,F,G,H)

  >>> FOREACH j IN (P,M)

    >>> IF (-FILE GMJ_e2_${i}_${j}.csv)

      >>> COPY $WorkDir/GMJ_RHS_${i}_${j}.csv $CurrDir/GMJ_RHS_${i}_${j}.csv

      >>> COPY $WorkDir/GMJ_IVECW_${i}_${j}.csv $CurrDir/GMJ_IVECW_${i}_${j}.csv

      >>> COPY $WorkDir/GMJ_IVECX_${i}_${j}.csv $CurrDir/GMJ_IVECX_${i}_${j}.csv

      >>> COPY $WorkDir/GMJ_IVECC2_${i}_${j}.csv $CurrDir/GMJ_IVECC2_${i}_${j}.csv

      >>> COPY $WorkDir/GMJ_e2_${i}_${j}.csv $CurrDir/GMJ_e2_${i}_${j}.csv

    >>> END IF

  >>> END FOREACH

>>> END FOREACH

>>> FOREACH i IN (A,C,D)

  >>> IF (-FILE GMJ_e2_$i.csv)

    >>> COPY $WorkDir/GMJ_RHS_$i.csv $CurrDir/GMJ_RHS_$i.csv

    >>> COPY $WorkDir/GMJ_IVECW_$i.csv $CurrDir/GMJ_IVECW_$i.csv

    >>> COPY $WorkDir/GMJ_IVECX_$i.csv $CurrDir/GMJ_IVECX_$i.csv

    >>> COPY $WorkDir/GMJ_IVECC2_$i.csv $CurrDir/GMJ_IVECC2_$i.csv

    >>> COPY $WorkDir/GMJ_e2_$i.csv $CurrDir/GMJ_e2_$i.csv

  >>> END IF

>>> END FOREACH

-- ----------------------------------

--- Start Module: gateway at Tue Nov 12 21:03:49 2024 ---
 
()()()()()()()()()()()()()()()()()()()()()()()()()()()()()()()()()()()()()()()()()()()()()()()()()()

                                              &GATEWAY

                                   only a single process is used
                       available to each process: 2.0 GB of memory, 1 thread?
()()()()()()()()()()()()()()()()()()()()()()()()()()()()()()()()()()()()()()()()()()()()()()()()()()
 
 ###############################################################################
 ###############################################################################
 ###                                                                         ###
 ###                                                                         ###
 ###                                                                         ###
 ###    WARNING: EXPERT option is ON!                                        ###
 ###                                                                         ###
 ###                                                                         ###
 ###############################################################################
 ###############################################################################
 
++    Symmetry information:
      ---------------------
 
                    Character Table for C1 
 
                             E  
                    a        1  x, y, xy, Rz, z, xz, Ry, yz, Rx, I
--
 
 
++    Basis set information:
      ----------------------
 
 
      Basis set label: H.ANO-RCC...2S1P.
 
      Electronic valence basis set:
      ------------------
      Associated Effective Charge   1.000000 au
      Associated Actual Charge      1.000000 au
      Nuclear Model: Point charge
 
      Shell  nPrim  nBasis  Cartesian Spherical Contaminant
         s       8       2        X                  
         p       4       1        X                  
--
 
 
++    Molecular structure info:
      -------------------------
 
                    ************************************************ 
                    **** Cartesian Coordinates / Bohr, Angstrom **** 
                    ************************************************ 
 
     Center  Label                x              y              z                     x              y              z
        1      H1               0.000000       0.000000       0.000000              0.000000       0.000000       0.000000
        2      H2               0.000000       0.000000       2.645617              0.000000       0.000000       1.400000
        3      H3               0.000000       0.000000       5.291233              0.000000       0.000000       2.800000
        4      H4               0.000000       0.000000       7.936850              0.000000       0.000000       4.200000
        5      H5               0.000000       0.000000      10.582466              0.000000       0.000000       5.600000
        6      H6               0.000000       0.000000      13.228083              0.000000       0.000000       7.000000
        7      H7               0.000000       0.000000      15.873699              0.000000       0.000000       8.400000
        8      H8               0.000000       0.000000      18.519316              0.000000       0.000000       9.800000
        9      H9               0.000000       0.000000      21.164933              0.000000       0.000000      11.200000
       10      H10              0.000000       0.000000      23.810549              0.000000       0.000000      12.600000
       11      H11              0.000000       0.000000      26.456166              0.000000       0.000000      14.000000
       12      H12              0.000000       0.000000      29.101782              0.000000       0.000000      15.400000
 
                    *************************************** 
                    *    InterNuclear Distances / Bohr    * 
                    *************************************** 
 
               1 H1            2 H2            3 H3            4 H4            5 H5            6 H6    
    1 H1       0.000000
    2 H2       2.645617        0.000000
    3 H3       5.291233        2.645617        0.000000
    4 H4       7.936850        5.291233        2.645617        0.000000
    5 H5      10.582466        7.936850        5.291233        2.645617        0.000000
    6 H6      13.228083       10.582466        7.936850        5.291233        2.645617        0.000000
    7 H7      15.873699       13.228083       10.582466        7.936850        5.291233        2.645617
    8 H8      18.519316       15.873699       13.228083       10.582466        7.936850        5.291233
    9 H9      21.164933       18.519316       15.873699       13.228083       10.582466        7.936850
   10 H10     23.810549       21.164933       18.519316       15.873699       13.228083       10.582466
   11 H11     26.456166       23.810549       21.164933       18.519316       15.873699       13.228083
   12 H12     29.101782       26.456166       23.810549       21.164933       18.519316       15.873699
 
               7 H7            8 H8            9 H9           10 H10          11 H11          12 H12   
    7 H7       0.000000
    8 H8       2.645617        0.000000
    9 H9       5.291233        2.645617        0.000000
   10 H10      7.936850        5.291233        2.645617        0.000000
   11 H11     10.582466        7.936850        5.291233        2.645617        0.000000
   12 H12     13.228083       10.582466        7.936850        5.291233        2.645617        0.000000
 
                    ******************************************* 
                    *    InterNuclear Distances / Angstrom    * 
                    ******************************************* 
 
               1 H1            2 H2            3 H3            4 H4            5 H5            6 H6    
    1 H1       0.000000
    2 H2       1.400000        0.000000
    3 H3       2.800000        1.400000        0.000000
    4 H4       4.200000        2.800000        1.400000        0.000000
    5 H5       5.600000        4.200000        2.800000        1.400000        0.000000
    6 H6       7.000000        5.600000        4.200000        2.800000        1.400000        0.000000
    7 H7       8.400000        7.000000        5.600000        4.200000        2.800000        1.400000
    8 H8       9.800000        8.400000        7.000000        5.600000        4.200000        2.800000
    9 H9      11.200000        9.800000        8.400000        7.000000        5.600000        4.200000
   10 H10     12.600000       11.200000        9.800000        8.400000        7.000000        5.600000
   11 H11     14.000000       12.600000       11.200000        9.800000        8.400000        7.000000
   12 H12     15.400000       14.000000       12.600000       11.200000        9.800000        8.400000
 
               7 H7            8 H8            9 H9           10 H10          11 H11          12 H12   
    7 H7       0.000000
    8 H8       1.400000        0.000000
    9 H9       2.800000        1.400000        0.000000
   10 H10      4.200000        2.800000        1.400000        0.000000
   11 H11      5.600000        4.200000        2.800000        1.400000        0.000000
   12 H12      7.000000        5.600000        4.200000        2.800000        1.400000        0.000000
 
                    ************************************** 
                    *    Valence Bond Angles / Degree    * 
                    ************************************** 
                          Atom centers                 Phi
                      1 H1       2 H2       3 H3       180.00
                      2 H2       3 H3       4 H4       180.00
                      3 H3       4 H4       5 H5       180.00
                      4 H4       5 H5       6 H6       180.00
                      5 H5       6 H6       7 H7       180.00
                      6 H6       7 H7       8 H8       180.00
                      7 H7       8 H8       9 H9       180.00
                      8 H8       9 H9      10 H10      180.00
                      9 H9      10 H10     11 H11      180.00
                     10 H10     11 H11     12 H12      180.00
--
 
 
            Nuclear Potential Energy              9.53975280 au
 
 ###############################################################################
 ###############################################################################
 ###                                                                         ###
 ###                                                                         ###
 ###    There were warnings during the execution                             ###
 ###    Please, check the output with care!                                  ###
 ###                                                                         ###
 ###                                                                         ###
 ###############################################################################
 ###############################################################################
--- Stop Module: gateway at Tue Nov 12 21:03:49 2024 /rc=_RC_ALL_IS_WELL_ ---
*** files: xmldump
    saved to directory /home/grierjones/DDCASPT2/hydrogen_comps/H12_chain/H12_1.40

--- Start Module: seward at Tue Nov 12 21:03:49 2024 ---
 
()()()()()()()()()()()()()()()()()()()()()()()()()()()()()()()()()()()()()()()()()()()()()()()()()()

                                              &SEWARD

                                   only a single process is used
                       available to each process: 2.0 GB of memory, 1 thread?
()()()()()()()()()()()()()()()()()()()()()()()()()()()()()()()()()()()()()()()()()()()()()()()()()()
 
 ###############################################################################
 ###############################################################################
 ###                                                                         ###
 ###                                                                         ###
 ###                                                                         ###
 ###    WARNING: EXPERT option is ON!                                        ###
 ###                                                                         ###
 ###                                                                         ###
 ###############################################################################
 ###############################################################################
               SEWARD will generate:
                  Multipole Moment integrals up to order  2
                  Kinetic Energy integrals
                  Nuclear Attraction integrals (point charge)
                  One-Electron Hamiltonian integrals
                  Velocity integrals
                  Relativistic Douglas-Kroll-Hess integrals:
                    - Parametrization         : EXP
                    - DKH order of Hamiltonian: 2
                    - DKH order of Properties : 0
                         - multipole moment operators
                         - electric potential operators
                         - contact operators
                  Atomic mean-field integrals
                  Two-Electron Repulsion integrals
 
                   Integrals are discarded if absolute value <: 0.10E-13
                   Integral cutoff threshold is set to       <: 0.10E-15
 
            Nuclear Potential Energy              9.53975280 au
 
 
      Basis set specifications :
      Symmetry species         a  
      Basis functions           60
 
 
  Input file to MOLDEN was generated!
 
 ###############################################################################
 ###############################################################################
 ###                                                                         ###
 ###                                                                         ###
 ###    There were warnings during the execution                             ###
 ###    Please, check the output with care!                                  ###
 ###                                                                         ###
 ###                                                                         ###
 ###############################################################################
 ###############################################################################
--- Stop Module: seward at Tue Nov 12 21:03:50 2024 /rc=_RC_ALL_IS_WELL_ ---
*** files: H12_1.40.GssOrb H12_1.40.guessorb.h5 H12_1.40.guessorb.molden xmldump
    saved to directory /home/grierjones/DDCASPT2/hydrogen_comps/H12_chain/H12_1.40
--- Module seward spent 1 second ---

*** symbolic link created: INPORB -> H12_1.40.GssOrb
--- Start Module: scf at Tue Nov 12 21:03:50 2024 ---
 
()()()()()()()()()()()()()()()()()()()()()()()()()()()()()()()()()()()()()()()()()()()()()()()()()()

                                                &SCF

                                   only a single process is used
                       available to each process: 2.0 GB of memory, 1 thread?
()()()()()()()()()()()()()()()()()()()()()()()()()()()()()()()()()()()()()()()()()()()()()()()()()()
 
++    Input section:
      --------------
 
      Header of the integral files:
      
       Integrals generated by seward 4.2.0  , Tue Nov 12 21:03:49 2024
 
 
      Cartesian coordinates in Angstrom:
      -----------------------------------------------------
      No.  Label        X            Y            Z        
      -----------------------------------------------------
       1   H1         0.00000000   0.00000000   0.00000000
       2   H2         0.00000000   0.00000000   1.40000000
       3   H3         0.00000000   0.00000000   2.80000000
       4   H4         0.00000000   0.00000000   4.20000000
       5   H5         0.00000000   0.00000000   5.60000000
       6   H6         0.00000000   0.00000000   7.00000000
       7   H7         0.00000000   0.00000000   8.40000000
       8   H8         0.00000000   0.00000000   9.80000000
       9   H9         0.00000000   0.00000000  11.20000000
      10   H10        0.00000000   0.00000000  12.60000000
      11   H11        0.00000000   0.00000000  14.00000000
      12   H12        0.00000000   0.00000000  15.40000000
      -----------------------------------------------------
      Nuclear repulsion energy =    9.53975280
--
 
++    Orbital specifications:
      -----------------------
 
      Symmetry species               1
                                     a
      Frozen orbitals                0
      Occupied orbitals              6
      Secondary orbitals            54
      Deleted orbitals               0
      Total number of orbitals      60
      Number of basis functions     60
--
 
      Molecular charge                           0.000
 
++    Optimization specifications:
      ----------------------------
 
      SCF Algorithm: Conventional
      Minimized density differences are used
      Number of density matrices in core                5
      Maximum number of NDDO SCF iterations           400
      Maximum number of HF SCF iterations             400
      Threshold for SCF energy change            0.10E-08
      Threshold for density matrix               0.10E-03
      Threshold for Fock matrix                  0.15E-03
      Threshold for linear dependence            0.10E-08
      Threshold at which DIIS is turned on       0.15E+00
      Threshold at which QNR/C2DIIS is turned on 0.75E-01
      Threshold for Norm(delta) (QNR/C2DIIS)     0.20E-04
      DIIS extrapolation of the SCF procedure
      All orbitals punched on: SCFORB
--
 
      Input vectors read from INPORB
      Orbital file label: *Guess orbitals
 
 
++ Convergence information
                                   SCF        iterations: Energy and convergence statistics
 
Iter     Tot. SCF        One-elec.       Two-elec.     Energy      Max Dij or  Max Fij      DNorm      TNorm      AccCon     Time
         Energy          Energy          Energy        Change      Delta Norm                                                in Sec.
   1    -5.993634699   -25.595820105    10.062432604   0.00E+00    0.24E+00*   0.13E+00*    0.45E+01   0.16E+02   None         0.
   2    -6.115808689   -25.648546968     9.992985478  -0.12E+00*   0.11E+00*   0.17E-01*    0.16E+01   0.16E+02   EDIIS        0.
   3    -6.122598941   -25.592591112     9.930239370  -0.68E-02*   0.49E-01*   0.80E-02*    0.35E+00   0.16E+02   EDIIS        0.
   4    -6.124217096   -25.591755823     9.927785926  -0.16E-02*   0.14E-01*   0.73E-02*    0.12E+00   0.16E+02   c2DIIS       0.
   5    -6.124961629   -25.586865183     9.922150752  -0.74E-03*   0.34E-02*   0.78E-03*    0.28E-01   0.16E+02   QNRc2DIIS    0.
   6    -6.124976043   -25.587417765     9.922688921  -0.14E-04*   0.38E-02*   0.35E-03*    0.83E-02   0.16E+02   QNRc2DIIS    0.
   7    -6.124981833   -25.587288884     9.922554249  -0.58E-05*   0.22E-03*   0.43E-04     0.21E-02   0.16E+02   QNRc2DIIS    0.
   8    -6.124981891   -25.587083350     9.922348658  -0.57E-07*   0.50E-04*   0.99E-05     0.40E-03   0.16E+02   QNRc2DIIS    0.
   9    -6.124981893   -25.587062507     9.922327812  -0.28E-08*   0.91E-05    0.21E-05     0.67E-04   0.16E+02   QNRc2DIIS    0.
  10    -6.124981893   -25.587064371     9.922329676  -0.10E-09    0.37E-05    0.56E-06     0.15E-04   0.16E+02   QNRc2DIIS    0.
 
       Convergence after 10 Macro Iterations
--
 
 *****************************************************************************************************************************
 *                                                                                                                           *
 *                                             SCF/KS-DFT Program, Final results                                             *
 *                                                                                                                           *
 *                                                                                                                           *
 *                                                                                                                           *
 *                                                       Final Results                                                       *
 *                                                                                                                           *
 *****************************************************************************************************************************
 
::    Total SCF energy                                 -6.1249818934
      One-electron energy                             -25.5870643705
      Two-electron energy                               9.9223296758
      Nuclear repulsion energy                          9.5397528013
      Kinetic energy (interpolated)                     4.8118600594
      Virial theorem                                    1.2728927728
      Total spin, S(S+1)                                0.0000000000
      Total spin, S                                     0.0000000000
      Max non-diagonal density matrix element           0.0000038191
      Max non-diagonal Fock matrix element              0.0000003154
 
 
      All orbitals with orbital energies smaller than  E(LUMO)+0.5 are printed
 
++    Molecular orbitals:
      -------------------
 
      Title: SCF orbitals

      Molecular orbitals for symmetry species 1: a  
 
          Orbital            1         2         3         4         5         6         7         8         9        10    
          Energy           -0.5739   -0.5530   -0.5186   -0.4709   -0.4106   -0.3442   -0.0942   -0.0130    0.0750    0.1654
          Occ. No.          2.0000    2.0000    2.0000    2.0000    2.0000    2.0000    0.0000    0.0000    0.0000    0.0000
 
        1 H1     1s         0.0749   -0.1485    0.2171   -0.2761    0.3137   -0.2721    0.3825   -0.5572    0.6054   -0.5366
        2 H1     2s         0.0022   -0.0040    0.0069   -0.0147    0.0312   -0.0435    0.1443   -0.2633    0.3608   -0.4238
        3 H1     2px       -0.0000    0.0000   -0.0000   -0.0000    0.0000   -0.0000   -0.0000    0.0000   -0.0000    0.0000
        4 H1     2py       -0.0000    0.0000   -0.0000   -0.0000    0.0000    0.0000    0.0000   -0.0000    0.0000   -0.0000
        5 H1     2pz        0.0064   -0.0117    0.0146   -0.0146    0.0118   -0.0069   -0.0013    0.0088   -0.0205    0.0345
        6 H2     1s         0.1190   -0.2254    0.3019   -0.3314    0.2956   -0.1786   -0.1293    0.4216   -0.7337    0.8949
        7 H2     2s        -0.0043   -0.0002    0.0192   -0.0507    0.0777   -0.0670   -0.0397    0.1812   -0.3548    0.4466
        8 H2     2px       -0.0000    0.0000   -0.0000    0.0000   -0.0000    0.0000   -0.0000   -0.0000    0.0000   -0.0000
        9 H2     2py        0.0000   -0.0000    0.0000   -0.0000   -0.0000    0.0000   -0.0000    0.0000    0.0000   -0.0000
       10 H2     2pz        0.0030   -0.0029   -0.0023    0.0114   -0.0194    0.0190   -0.0198    0.0193   -0.0040   -0.0221
       11 H3     1s         0.1962   -0.2886    0.2185   -0.0011   -0.2658    0.3704   -0.4559    0.3331    0.1820   -0.7428
       12 H3     2s         0.0051   -0.0053   -0.0018    0.0229   -0.0663    0.0966   -0.1684    0.1332    0.0959   -0.3954
       13 H3     2px        0.0000   -0.0000   -0.0000    0.0000   -0.0000    0.0000   -0.0000    0.0000    0.0000   -0.0000
       14 H3     2py        0.0000   -0.0000   -0.0000    0.0000    0.0000    0.0000   -0.0000    0.0000    0.0000   -0.0000
       15 H3     2pz        0.0061   -0.0041   -0.0061    0.0165   -0.0178    0.0096    0.0112   -0.0240    0.0274   -0.0143
       16 H4     1s         0.2277   -0.2836    0.1144    0.1673   -0.3478    0.2677    0.2653   -0.5689    0.4133    0.3056
       17 H4     2s        -0.0027   -0.0109    0.0238    0.0012   -0.0624    0.0802    0.0908   -0.2418    0.1962    0.1502
       18 H4     2px        0.0000   -0.0000    0.0000    0.0000   -0.0000    0.0000   -0.0000   -0.0000    0.0000   -0.0000
       19 H4     2py       -0.0000    0.0000   -0.0000   -0.0000   -0.0000   -0.0000    0.0000   -0.0000   -0.0000    0.0000
       20 H4     2pz        0.0011    0.0059   -0.0150    0.0112    0.0069   -0.0189    0.0222   -0.0089   -0.0198    0.0319
       21 H5     1s         0.2725   -0.1744   -0.1732    0.3029    0.0206   -0.3785    0.4475    0.0696   -0.6814    0.3496
       22 H5     2s         0.0031    0.0066   -0.0239    0.0286    0.0227   -0.1014    0.1634    0.0361   -0.3201    0.1734
       23 H5     2px        0.0000   -0.0000   -0.0000   -0.0000   -0.0000    0.0000    0.0000    0.0000   -0.0000   -0.0000
       24 H5     2py        0.0000    0.0000    0.0000   -0.0000    0.0000   -0.0000   -0.0000   -0.0000   -0.0000    0.0000
       25 H5     2pz        0.0044    0.0063   -0.0142    0.0001    0.0178   -0.0148   -0.0171    0.0236    0.0006   -0.0345
       26 H6     1s         0.2840   -0.0954   -0.2648    0.1964    0.2286   -0.3435   -0.3794    0.4409    0.3461   -0.7620
       27 H6     2s         0.0002   -0.0141   -0.0073    0.0371    0.0285   -0.0969   -0.1355    0.1925    0.1610   -0.3829
       28 H6     2px        0.0000    0.0000   -0.0000    0.0000    0.0000   -0.0000    0.0000    0.0000   -0.0000   -0.0000
       29 H6     2py        0.0000    0.0000    0.0000   -0.0000   -0.0000    0.0000   -0.0000    0.0000   -0.0000    0.0000
       30 H6     2pz       -0.0018    0.0109   -0.0032   -0.0168    0.0075    0.0180   -0.0209   -0.0103    0.0279    0.0098
       31 H7     1s         0.2840    0.0954   -0.2648   -0.1964    0.2286    0.3435   -0.3794   -0.4409    0.3461    0.7620
       32 H7     2s         0.0002    0.0141   -0.0073   -0.0371    0.0285    0.0969   -0.1355   -0.1925    0.1610    0.3829
       33 H7     2px        0.0000   -0.0000   -0.0000    0.0000   -0.0000   -0.0000    0.0000    0.0000   -0.0000   -0.0000
       34 H7     2py       -0.0000    0.0000    0.0000   -0.0000    0.0000    0.0000   -0.0000    0.0000    0.0000   -0.0000
       35 H7     2pz        0.0018    0.0109    0.0032   -0.0168   -0.0075    0.0180    0.0209   -0.0103   -0.0279    0.0098
       36 H8     1s         0.2725    0.1744   -0.1732   -0.3029    0.0206    0.3785    0.4475   -0.0696   -0.6814   -0.3496
       37 H8     2s         0.0031   -0.0066   -0.0239   -0.0286    0.0227    0.1014    0.1634   -0.0361   -0.3201   -0.1734
       38 H8     2px        0.0000    0.0000    0.0000    0.0000    0.0000   -0.0000    0.0000    0.0000   -0.0000    0.0000
       39 H8     2py        0.0000    0.0000   -0.0000    0.0000   -0.0000   -0.0000   -0.0000   -0.0000    0.0000    0.0000
       40 H8     2pz       -0.0044    0.0063    0.0142    0.0001   -0.0178   -0.0148    0.0171    0.0236   -0.0006   -0.0345
       41 H9     1s         0.2277    0.2836    0.1144   -0.1673   -0.3478   -0.2677    0.2653    0.5689    0.4133   -0.3056
       42 H9     2s        -0.0027    0.0109    0.0238   -0.0012   -0.0624   -0.0802    0.0908    0.2418    0.1962   -0.1502
       43 H9     2px       -0.0000   -0.0000    0.0000   -0.0000   -0.0000   -0.0000   -0.0000    0.0000    0.0000    0.0000
       44 H9     2py        0.0000   -0.0000   -0.0000   -0.0000    0.0000    0.0000    0.0000    0.0000   -0.0000    0.0000
       45 H9     2pz       -0.0011    0.0059    0.0150    0.0112   -0.0069   -0.0189   -0.0222   -0.0089    0.0198    0.0319
       46 H10    1s         0.1962    0.2886    0.2185    0.0011   -0.2658   -0.3704   -0.4559   -0.3331    0.1820    0.7428
       47 H10    2s         0.0051    0.0053   -0.0018   -0.0229   -0.0663   -0.0966   -0.1684   -0.1332    0.0959    0.3954
       48 H10    2px       -0.0000   -0.0000   -0.0000   -0.0000   -0.0000    0.0000    0.0000   -0.0000    0.0000   -0.0000
       49 H10    2py       -0.0000    0.0000    0.0000   -0.0000   -0.0000   -0.0000   -0.0000   -0.0000    0.0000    0.0000
       50 H10    2pz       -0.0061   -0.0041    0.0061    0.0165    0.0178    0.0096   -0.0112   -0.0240   -0.0274   -0.0143
       51 H11    1s         0.1190    0.2254    0.3019    0.3314    0.2956    0.1786   -0.1293   -0.4216   -0.7337   -0.8949
       52 H11    2s        -0.0043    0.0002    0.0192    0.0507    0.0777    0.0670   -0.0397   -0.1812   -0.3548   -0.4466
       53 H11    2px        0.0000    0.0000    0.0000   -0.0000   -0.0000    0.0000   -0.0000    0.0000    0.0000    0.0000
       54 H11    2py        0.0000    0.0000   -0.0000   -0.0000   -0.0000   -0.0000    0.0000   -0.0000   -0.0000    0.0000
       55 H11    2pz       -0.0030   -0.0029    0.0023    0.0114    0.0194    0.0190    0.0198    0.0193    0.0040   -0.0221
       56 H12    1s         0.0749    0.1485    0.2171    0.2761    0.3137    0.2721    0.3825    0.5572    0.6054    0.5366
       57 H12    2s         0.0022    0.0040    0.0069    0.0147    0.0312    0.0435    0.1443    0.2633    0.3608    0.4238
       58 H12    2px       -0.0000   -0.0000   -0.0000    0.0000   -0.0000   -0.0000   -0.0000   -0.0000   -0.0000    0.0000
       59 H12    2py       -0.0000    0.0000    0.0000   -0.0000    0.0000    0.0000    0.0000    0.0000    0.0000   -0.0000
       60 H12    2pz       -0.0064   -0.0117   -0.0146   -0.0146   -0.0118   -0.0069    0.0013    0.0088    0.0205    0.0345
 
          Orbital           11        12        13        14        15        16    
          Energy            0.2452    0.2613    0.2770    0.3355    0.3520    0.4054
          Occ. No.          0.0000    0.0000    0.0000    0.0000    0.0000    0.0000
 
        1 H1     1s         0.1087   -0.3437    0.2119   -0.3649   -0.2144    0.2513
        2 H1     2s         0.3162   -0.3137   -0.1897    0.1804   -0.3464   -0.3534
        3 H1     2px       -0.0000   -0.0000    0.0000   -0.0000    0.0000    0.0000
        4 H1     2py       -0.0000   -0.0000    0.0000    0.0000   -0.0000   -0.0000
        5 H1     2pz       -0.0393    0.0257    0.0298   -0.0122    0.0282   -0.0017
        6 H2     1s        -0.4615    0.5880   -0.0014    0.3674    0.3883   -0.4026
        7 H2     2s        -0.0911    0.3613   -0.2635    0.4764    0.2473   -0.3614
        8 H2     2px        0.0000   -0.0000    0.0000   -0.0000   -0.0000    0.0000
        9 H2     2py        0.0000   -0.0000   -0.0000   -0.0000   -0.0000   -0.0000
       10 H2     2pz        0.0252   -0.0482   -0.0108    0.0231   -0.0742   -0.0686
       11 H3     1s         0.4389   -0.8067    0.1296   -0.5140   -0.6448    0.4942
       12 H3     2s         0.4187   -0.3248   -0.2281   -0.0680   -0.2214    0.3230
       13 H3     2px        0.0000   -0.0000   -0.0000   -0.0000   -0.0000    0.0000
       14 H3     2py        0.0000   -0.0000   -0.0000   -0.0000   -0.0000    0.0000
       15 H3     2pz       -0.0167   -0.0059    0.0103    0.0335    0.0124   -0.0586
       16 H4     1s        -0.6637    0.6788    0.2291    0.3922    0.8114   -0.5275
       17 H4     2s        -0.1580    0.5254   -0.1303    0.2154    0.6156    0.0151
       18 H4     2px        0.0000   -0.0000    0.0000    0.0000   -0.0000    0.0000
       19 H4     2py        0.0000   -0.0000   -0.0000   -0.0000   -0.0000    0.0000
       20 H4     2pz       -0.0056   -0.0055   -0.0285    0.0627   -0.0263   -0.0338
       21 H5     1s         0.3306   -0.6472   -0.1828   -0.2161   -1.0653    0.4750
       22 H5     2s         0.3643   -0.1199   -0.2690   -0.2898   -0.3971    0.5594
       23 H5     2px        0.0000   -0.0000    0.0000   -0.0000   -0.0000    0.0000
       24 H5     2py       -0.0000   -0.0000    0.0000   -0.0000   -0.0000    0.0000
       25 H5     2pz        0.0126   -0.0309   -0.0167    0.0257    0.0357    0.0191
       26 H6     1s        -0.2636    0.0976    0.3438    0.1660    1.1122   -0.5024
       27 H6     2s         0.0552    0.2966    0.1207   -0.2106    0.6481   -0.1303
       28 H6     2px       -0.0000   -0.0000   -0.0000    0.0000   -0.0000    0.0000
       29 H6     2py       -0.0000   -0.0000   -0.0000   -0.0000    0.0000    0.0000
       30 H6     2pz       -0.0229    0.0280   -0.0339    0.0346    0.0284    0.0536
       31 H7     1s        -0.2636    0.0976   -0.3438    0.1660   -1.1122    0.5024
       32 H7     2s         0.0552    0.2966   -0.1207   -0.2106   -0.6481    0.1303
       33 H7     2px        0.0000   -0.0000    0.0000   -0.0000   -0.0000    0.0000
       34 H7     2py       -0.0000    0.0000   -0.0000   -0.0000   -0.0000    0.0000
       35 H7     2pz        0.0229   -0.0280   -0.0339   -0.0346    0.0284    0.0536
       36 H8     1s         0.3306   -0.6472    0.1828   -0.2161    1.0653   -0.4750
       37 H8     2s         0.3643   -0.1199    0.2690   -0.2898    0.3971   -0.5594
       38 H8     2px       -0.0000   -0.0000   -0.0000    0.0000   -0.0000    0.0000
       39 H8     2py       -0.0000   -0.0000    0.0000   -0.0000    0.0000   -0.0000
       40 H8     2pz       -0.0126    0.0309   -0.0167   -0.0257    0.0357    0.0191
       41 H9     1s        -0.6637    0.6788   -0.2291    0.3922   -0.8114    0.5275
       42 H9     2s        -0.1580    0.5254    0.1303    0.2154   -0.6156   -0.0151
       43 H9     2px       -0.0000   -0.0000    0.0000    0.0000   -0.0000    0.0000
       44 H9     2py       -0.0000   -0.0000    0.0000   -0.0000    0.0000    0.0000
       45 H9     2pz        0.0056    0.0055   -0.0285   -0.0627   -0.0263   -0.0338
       46 H10    1s         0.4389   -0.8067   -0.1296   -0.5140    0.6448   -0.4942
       47 H10    2s         0.4187   -0.3248    0.2281   -0.0680    0.2214   -0.3230
       48 H10    2px       -0.0000    0.0000    0.0000   -0.0000   -0.0000    0.0000
       49 H10    2py       -0.0000    0.0000    0.0000   -0.0000    0.0000    0.0000
       50 H10    2pz        0.0167    0.0059    0.0103   -0.0335    0.0124   -0.0586
       51 H11    1s        -0.4615    0.5880    0.0014    0.3674   -0.3883    0.4026
       52 H11    2s        -0.0911    0.3613    0.2635    0.4764   -0.2473    0.3614
       53 H11    2px       -0.0000   -0.0000   -0.0000   -0.0000    0.0000    0.0000
       54 H11    2py       -0.0000   -0.0000    0.0000   -0.0000   -0.0000    0.0000
       55 H11    2pz       -0.0252    0.0482   -0.0108   -0.0231   -0.0742   -0.0686
       56 H12    1s         0.1087   -0.3437   -0.2119   -0.3649    0.2144   -0.2513
       57 H12    2s         0.3162   -0.3137    0.1897    0.1804    0.3464    0.3534
       58 H12    2px       -0.0000   -0.0000   -0.0000   -0.0000    0.0000   -0.0000
       59 H12    2py       -0.0000    0.0000    0.0000    0.0000   -0.0000    0.0000
       60 H12    2pz        0.0393   -0.0257    0.0298    0.0122    0.0282   -0.0017
--
 
 
++    Molecular charges:
      ------------------
 
      Mulliken charges per centre and basis function type
      ---------------------------------------------------
 
                H1      H2      H3      H4      H5      H6      H7      H8      H9      H10     H11     H12   
      1s       0.9162  1.0287  0.9914  0.9928  0.9919  0.9928  0.9928  0.9919  0.9928  0.9914  1.0287  0.9162
      2s       0.0105  0.0058 -0.0261 -0.0150 -0.0176 -0.0165 -0.0165 -0.0176 -0.0150 -0.0261  0.0058  0.0105
      2px      0.0000  0.0000  0.0000  0.0000  0.0000  0.0000  0.0000  0.0000  0.0000  0.0000  0.0000  0.0000
      2pz      0.0159  0.0266  0.0254  0.0256  0.0258  0.0257  0.0257  0.0258  0.0256  0.0254  0.0266  0.0159
      2py      0.0000  0.0000  0.0000  0.0000  0.0000  0.0000  0.0000  0.0000  0.0000  0.0000  0.0000  0.0000
      Total    0.9426  1.0611  0.9907  1.0034  1.0001  1.0021  1.0021  1.0001  1.0034  0.9907  1.0611  0.9426
 
      N-E      0.0574 -0.0611  0.0093 -0.0034 -0.0001 -0.0021 -0.0021 -0.0001 -0.0034  0.0093 -0.0611  0.0574
 
      Total electronic charge=   12.000000
 
      Total            charge=   -0.000000
--
 
 
  Input file to MOLDEN was generated!
 
 
++    Static properties:
      ------------------
 
 
      LoProp Charges per center
 

                   H1       H2       H3       H4       H5       H6       H7       H8       H9       H10   
      Nuclear      1.0000   1.0000   1.0000   1.0000   1.0000   1.0000   1.0000   1.0000   1.0000   1.0000
      Electronic  -0.9832  -1.0139  -0.9962  -1.0046  -1.0000  -1.0020  -1.0020  -1.0000  -1.0046  -0.9962
 
      Total        0.0168  -0.0139   0.0038  -0.0046  -0.0000  -0.0020  -0.0020  -0.0000  -0.0046   0.0038
 

                   H11      H12   
      Nuclear      1.0000   1.0000
      Electronic  -1.0139  -0.9832
 
      Total       -0.0139   0.0168
--
 
 
++    Natural Bond Order analysis
      ---------------------------
      Based on LoProp computed density
      -------------------------------------------------------------------------------------
      Atom A       Atom B       Bond Order
      -------------------------------------------------------------------------------------
      NBO located      0.949 non-bonded electrons on atom H1        
      NBO located      1.015 non-bonded electrons on atom H3        
      NBO located      1.016 non-bonded electrons on atom H4        
      NBO located      1.015 non-bonded electrons on atom H5        
      NBO located      1.016 non-bonded electrons on atom H6        
      NBO located      1.016 non-bonded electrons on atom H7        
      NBO located      1.015 non-bonded electrons on atom H8        
      NBO located      1.016 non-bonded electrons on atom H9        
      NBO located      1.015 non-bonded electrons on atom H10       
      NBO located      0.949 non-bonded electrons on atom H12       
      The remaining    1.977 electrons are to be considered as diffuse
--
 
 
++    Molecular properties:
      ---------------------
 
      Charge (e):
                      =   -0.0000
      Dipole Moment (Debye):
      Origin of the operator (Ang)=    0.0000    0.0000    0.0000
                   X= -7.0953E-15               Y=  6.4285E-15               Z=  1.5893E-11           Total=  1.5893E-11
      Quadrupole Moment (Debye*Ang):
      Origin of the operator (Ang)=    0.0000    0.0000    7.7000
                  XX= -1.8104E+01              XY= -1.1440E-28              XZ=  1.2323E-14              YY= -1.8104E+01
                  YZ= -2.1918E-14              ZZ= -5.4474E+00
      In traceless form (Debye*Ang)
                  XX= -6.3284E+00              XY= -1.7160E-28              XZ=  1.8484E-14              YY= -6.3284E+00
                  YZ= -3.2877E-14              ZZ=  1.2657E+01
--
 
 
  Input file to MOLDEN was generated!
 
 ###############################################################################
 ###############################################################################
 ###                                                                         ###
 ###                                                                         ###
 ###    RunFile label nBas                                                   ###
 ###    was used       78 times                                              ###
 ###                                                                         ###
 ###                                                                         ###
 ###############################################################################
 ###############################################################################
--- Stop Module: scf at Tue Nov 12 21:03:50 2024 /rc=_RC_ALL_IS_WELL_ ---
*** files: H12_1.40.LprOrb H12_1.40.LoProp.molden H12_1.40.scf.molden H12_1.40.ScfOrb H12_1.40.scf.h5 xmldump
    saved to directory /home/grierjones/DDCASPT2/hydrogen_comps/H12_chain/H12_1.40

>>> COPY /tmp/H12_1.40/H12_1.40.scf.h5 /home/grierjones/DDCASPT2/hydrogen_comps/H12_chain/H12_1.40/

*** symbolic link created: INPORB -> H12_1.40.ScfOrb
--- Start Module: rasscf at Tue Nov 12 21:03:50 2024 ---
 
()()()()()()()()()()()()()()()()()()()()()()()()()()()()()()()()()()()()()()()()()()()()()()()()()()

                                              &RASSCF

                                   only a single process is used
                       available to each process: 2.0 GB of memory, 1 thread?
()()()()()()()()()()()()()()()()()()()()()()()()()()()()()()()()()()()()()()()()()()()()()()()()()()
 
 
      Header of the ONEINT file:
      --------------------------
      
      Integrals generated by seward 4.2.0  , Tue Nov 12 21:03:49 2024
 
 
      OrdInt status: non-squared
 
 
      Cartesian coordinates in Angstrom:
      -----------------------------------------------------
      No.  Label        X            Y            Z        
      -----------------------------------------------------
       1   H1         0.00000000   0.00000000   0.00000000
       2   H2         0.00000000   0.00000000   1.40000000
       3   H3         0.00000000   0.00000000   2.80000000
       4   H4         0.00000000   0.00000000   4.20000000
       5   H5         0.00000000   0.00000000   5.60000000
       6   H6         0.00000000   0.00000000   7.00000000
       7   H7         0.00000000   0.00000000   8.40000000
       8   H8         0.00000000   0.00000000   9.80000000
       9   H9         0.00000000   0.00000000  11.20000000
      10   H10        0.00000000   0.00000000  12.60000000
      11   H11        0.00000000   0.00000000  14.00000000
      12   H12        0.00000000   0.00000000  15.40000000
      -----------------------------------------------------
      Nuclear repulsion energy =    9.53975280
 
++    Wave function specifications:
      -----------------------------
 
      Number of closed shell electrons           0
      Number of electrons in active shells      12
      Max number of holes in RAS1 space          0
      Max nr of electrons in RAS3 space          0
      Number of inactive orbitals                0
      Number of active orbitals                 12
      Number of secondary orbitals              48
      Spin quantum number                      0.0
      State symmetry                             1
--
 
++    Orbital specifications:
      -----------------------
 
      Symmetry species                           1
                                                 a
      Frozen orbitals                            0
      Inactive orbitals                          0
      Active orbitals                           12
      RAS1 orbitals                              0
      RAS2 orbitals                             12
      RAS3 orbitals                              0
      Secondary orbitals                        48
      Deleted orbitals                           0
      Number of basis functions                 60
--
 
++    CI expansion specifications:
      ----------------------------
 
      Number of CSFs                        226512
      Number of determinants                427350
      Number of root(s) required                 1
      Root chosen for geometry opt.              1
      CI root used                               1
         
      highest root included in the CI            1
      max. size of the explicit Hamiltonian    500
--
 
++    Optimization specifications:
      ----------------------------
 
      RASSCF algorithm: Conventional
      Maximum number of macro iterations       200
      Maximum number of SX iterations          100
      Threshold for RASSCF energy            0.100E-07
      Threshold for max MO rotation          0.100E+00
      Threshold for max BLB element          0.100E-03
      Level shift parameter                  0.500E+00
      Make Quasi-Newton update
--
 
      The MO-coefficients are taken from the file:
      /home/grierjones/DDCASPT2/hydrogen_comps/H12_chain/H12_1.38/H12_1.38.RasOrb                                                     
      Title: RASSCF average (pseudo-natural) orbitals                                      
 
      Total molecular charge    0.00
 
      ************************************************************************************************************************
      *                                                                                                                      *
      *                                            Wave function control section                                             *
      *                                                                                                                      *
      ************************************************************************************************************************
 
 
                                         RASSCF iterations: Energy and convergence statistics
                                         ----------------------------------------------------
 
      Iter CI   SX   CI       RASSCF       Energy    max ROT     max BLB   max BLB  Level Ln srch  Step   QN   Walltime
          iter iter root      energy       change     param      element    value   shift minimum  type update hh:mm:ss
 Nr of preliminary CI iterations:   7
        1   1    4    1    -6.39470246    0.00E+00   0.43E-02    1  13 1 -0.66E-02*  0.06   0.00    SX    NO    0:00:08
        2   2    4    1    -6.39482227   -0.12E-03*  0.75E-03    1  13 1 -0.11E-02*  0.06   0.00    SX    NO    0:00:02
        3   1    3    1    -6.39482474   -0.25E-05*  0.17E-03    1  13 1 -0.19E-03*  0.06   0.00    SX    NO    0:00:02
        4  19    4    1    -6.39484315   -0.18E-04*  0.78E-03    9  27 1  0.42E-03*  0.06   0.00    SX    NO    0:00:14
        5   5    3    1    -6.39484455   -0.14E-05*  0.38E-03    9  27 1  0.14E-03*  0.06   1.49    LS   YES    0:00:04
        6   6    3    1    -6.39484475   -0.20E-06* -0.11E-03    6  20 1  0.62E-04   0.06   1.08    QN   YES    0:00:05
        7   3    3    1    -6.39484477   -0.21E-07* -0.22E-04    5  38 1  0.68E-05   0.06   1.12    QN   YES    0:00:03
        8   1    2    1    -6.39484478   -0.11E-08  -0.31E-05    6  20 1 -0.21E-05   0.06   1.02    QN   YES    0:00:02
      Convergence after  8 iterations
 
  Dmat in MO in SXCTL bf call to SXHAM                                                                                    
  mat. size =    12x   12
 
        1.9184909533643490
       -0.0000000245879864      1.9066012364663769
        0.0000813666844869      0.0000000215209128      1.8848958510439846
       -0.0000000325042443     -0.0001595738670432     -0.0000000380859476      1.8467517047069362
        0.0000539593495149      0.0000000054145125      0.0002797468230296     -0.0000001705433217      1.7771363983740109
        0.0000000397679274     -0.0001352563433272     -0.0000000292204605      0.0005105839369056     -0.0000006976475276
        1.6398077298335587
        0.0002794480409128      0.0000003419588801      0.0016133595107605      0.0000000180419505     -0.0012628906380536
        0.0000007354361454      0.1524577292382456
        0.0000001901894858      0.0007121011410679     -0.0000000040283704      0.0003101125376898     -0.0000004758955364
        0.0000276069108528     -0.0000000447864033      0.1080447835238810
       -0.0002572024994382      0.0000000241877810     -0.0011639854446100      0.0000008257246614     -0.0047350333438087
       -0.0000000017943007      0.0009630055503034      0.0000000463728355      0.3809757530805738
       -0.0000000107830332     -0.0007488240742507     -0.0000005238586489      0.0030477345394396      0.0000000103154711
       -0.0034232391414498      0.0000001672492603      0.0004530574732932     -0.0000006495580048      0.2319885185546611
       -0.0002285842464483      0.0000000009154063      0.0001289970582771     -0.0000003121331674     -0.0002487841063213
        0.0000000078726995      0.0000757620397827      0.0000000359868181      0.0000209087205992     -0.0000000049917907
        0.0829962602096504
       -0.0000000066204620      0.0001295746067227      0.0000001805337965      0.0001470119975737      0.0000000163273155
        0.0001002818367481      0.0000000273903446      0.0000421491686134      0.0000000295402759      0.0000071673832770
        0.0000000033660509      0.0698530816047799
        9   1    2    1    -6.39484478   -0.28E-10  -0.31E-05    3  27 1  0.27E-06   0.06   1.02    QN   YES    0:00:02
 
      ************************************************************************************************************************
                                                      Wave function printout:
                       occupation of active orbitals, and spin coupling of open shells (u,d: Spin up or down)
      ************************************************************************************************************************
 
      Note: transformation to natural orbitals
      has been made, which may change the order of the CSFs.
 
      printout of CI-coefficients larger than  0.05 for root  1
      energy=      -6.394845
      conf/sym  111111111111     Coeff  Weight
             1  222222000000  -0.75520 0.57033
            43  222220002000   0.23765 0.05648
            47  222220000200   0.05748 0.00330
            67  2222ud00ud00   0.19999 0.04000
            83  222u2du0d000  -0.13734 0.01886
            89  222u2d000200   0.05241 0.00275
           105  22u22d0ud000  -0.10852 0.01178
           107  22u22du00d00  -0.05063 0.00256
           134  2u222d00u0d0  -0.09482 0.00899
           160  u2222d00u00d   0.10037 0.01007
           167  222202u0d000  -0.05112 0.00261
           169  222202002000   0.06658 0.00443
           173  222202000200   0.10021 0.01004
           189  222ud20ud000  -0.05010 0.00251
           191  222ud2u00d00  -0.10435 0.01089
           193  222ud200ud00   0.05487 0.00301
           213  22u2d20u0d00  -0.08261 0.00682
           240  2u22d2000ud0  -0.07478 0.00559
           266  u222d2000u0d   0.05842 0.00341
           269  222022200000   0.05938 0.00353
           291  22ud22ud0000   0.07008 0.00491
           321  2u2d22u000d0   0.05321 0.00283
           484  2222uu00dd00  -0.07729 0.00597
           495  222u2ud0d000  -0.06098 0.00372
          5623  222200002200  -0.06026 0.00363
          5721  222ud0u02d00  -0.05067 0.00257
 
      Natural orbitals and occupation numbers for root  1
      sym 1:   1.918491   1.906602   1.884899   1.846758   1.777153   1.639815   0.152451   0.108043   0.380963   0.231976
               0.082996   0.069853
 
      ************************************************************************************************************************
      *                                                                                                                      *
      *                                                    Final results                                                     *
      *                                                                                                                      *
      ************************************************************************************************************************
 
 
++    Wave function specifications:
      -----------------------------
 
      Number of closed shell electrons           0
      Number of electrons in active shells      12
      Max number of holes in RAS1 space          0
      Max nr of electrons in RAS3 space          0
      Number of inactive orbitals                0
      Number of active orbitals                 12
      Number of secondary orbitals              48
      Spin quantum number                      0.0
      State symmetry                             1
--
 
++    Orbital specifications:
      -----------------------
 
      Symmetry species                           1
                                                 a
      Frozen orbitals                            0
      Inactive orbitals                          0
      Active orbitals                           12
      RAS1 orbitals                              0
      RAS2 orbitals                             12
      RAS3 orbitals                              0
      Secondary orbitals                        48
      Deleted orbitals                           0
      Number of basis functions                 60
--
 
++    CI expansion specifications:
      ----------------------------
 
      Number of CSFs                        226512
      Number of determinants                427350
      Number of root(s) required                 1
      CI root used                               1
      highest root included in the CI            1
      Root passed to geometry opt.               1
--
 
++    Final optimization conditions:
      ------------------------------
 
      Average CI energy                              -6.39484478
      RASSCF energy for state  1                     -6.39484478
      Super-CI energy                                -0.00000000
      RASSCF energy change                            0.00000000
      Max change in MO coefficients               0.932E-05
      Max non-diagonal density matrix element    -0.310E-05
      Maximum BLB matrix element                  0.268E-06
      (orbital pair   3,  27 in symmetry   1)
      Norm of electronic gradient            0.890E-06
--
 
 
      Final state energy(ies):
      ------------------------
 
::    RASSCF root number  1 Total energy:     -6.39484478
 
++    Molecular orbitals:
      -------------------
 
      Pseudonatural active orbitals and approximate occupation numbers
 
 
 
 
      Molecular orbitals for symmetry species 1: a  
 
 
      Orbital                1         2         3         4         5         6         7         8         9        10
      Energy            0.0000    0.0000    0.0000    0.0000    0.0000    0.0000    0.0000    0.0000    0.0000    0.0000
      Occ. No.          1.9185    1.9066    1.8849    1.8468    1.7772    1.6398    0.1525    0.1080    0.3810    0.2320
 
    1 H1     1s         0.0746    0.1543    0.2318   -0.2936    0.3207   -0.2720    0.4893    0.4515   -0.3293   -0.4560
    2 H1     2s         0.0007    0.0014    0.0031   -0.0085    0.0193   -0.0277    0.0313    0.0375   -0.0229   -0.0255
    3 H1     2px       -0.0000    0.0000   -0.0000   -0.0000   -0.0000   -0.0000    0.0000    0.0000   -0.0000   -0.0000
    4 H1     2py       -0.0000    0.0000    0.0000   -0.0000   -0.0000   -0.0000    0.0000    0.0000   -0.0000    0.0000
    5 H1     2pz        0.0044    0.0082    0.0102   -0.0096    0.0069   -0.0034    0.0062    0.0074   -0.0024   -0.0043
    6 H2     1s         0.1203    0.2323    0.3105   -0.3284    0.2738   -0.1558   -0.5372   -0.6658    0.0847    0.3065
    7 H2     2s        -0.0052   -0.0036    0.0097   -0.0336    0.0548   -0.0505   -0.0765   -0.1255   -0.0191    0.0183
    8 H2     2px        0.0000   -0.0000   -0.0000   -0.0000    0.0000   -0.0000   -0.0000    0.0000    0.0000    0.0000
    9 H2     2py       -0.0000   -0.0000   -0.0000   -0.0000    0.0000    0.0000   -0.0000    0.0000   -0.0000   -0.0000
   10 H2     2pz        0.0037    0.0045    0.0003    0.0078   -0.0151    0.0155   -0.0059    0.0006    0.0142    0.0129
   11 H3     1s         0.1924    0.2894    0.2223   -0.0002   -0.2635    0.3723    0.0760    0.5374    0.4296    0.3289
   12 H3     2s        -0.0001   -0.0013   -0.0049    0.0178   -0.0471    0.0712    0.0328    0.1184    0.0639    0.0355
   13 H3     2px        0.0000    0.0000    0.0000    0.0000   -0.0000    0.0000   -0.0000   -0.0000    0.0000    0.0000
   14 H3     2py        0.0000    0.0000    0.0000    0.0000    0.0000    0.0000   -0.0000   -0.0000   -0.0000    0.0000
   15 H3     2pz        0.0036    0.0012   -0.0071    0.0145   -0.0138    0.0061    0.0106    0.0091   -0.0048   -0.0092
   16 H4     1s         0.2312    0.2823    0.0988    0.1888   -0.3477    0.2506    0.3986   -0.1645   -0.2356   -0.5134
   17 H4     2s        -0.0053    0.0029    0.0131    0.0018   -0.0429    0.0582    0.0871   -0.0203   -0.0174   -0.0839
   18 H4     2px       -0.0000   -0.0000    0.0000   -0.0000   -0.0000   -0.0000    0.0000    0.0000    0.0000    0.0000
   19 H4     2py       -0.0000   -0.0000   -0.0000   -0.0000    0.0000   -0.0000    0.0000   -0.0000   -0.0000   -0.0000
   20 H4     2pz        0.0028   -0.0030   -0.0118    0.0101    0.0045   -0.0154   -0.0087   -0.0067   -0.0128   -0.0020
   21 H5     1s         0.2756    0.1829   -0.1607    0.2963    0.0107   -0.3818   -0.5771   -0.3320   -0.4233    0.0547
   22 H5     2s        -0.0023   -0.0062   -0.0126    0.0153    0.0158   -0.0748   -0.1111   -0.0596   -0.0565    0.0317
   23 H5     2px        0.0000   -0.0000    0.0000    0.0000    0.0000    0.0000   -0.0000   -0.0000   -0.0000   -0.0000
   24 H5     2py        0.0000    0.0000    0.0000    0.0000   -0.0000    0.0000    0.0000    0.0000    0.0000   -0.0000
   25 H5     2pz        0.0019   -0.0065   -0.0106   -0.0020    0.0154   -0.0109   -0.0041    0.0047    0.0085    0.0114
   26 H6     1s         0.2909    0.0883   -0.2648    0.1750    0.2424   -0.3379    0.2858    0.6250    0.3533    0.4051
   27 H6     2s        -0.0042    0.0073   -0.0021    0.0209    0.0200   -0.0709    0.0392    0.1326    0.0404    0.0811
   28 H6     2px        0.0000    0.0000   -0.0000   -0.0000   -0.0000   -0.0000   -0.0000   -0.0000    0.0000    0.0000
   29 H6     2py       -0.0000   -0.0000   -0.0000    0.0000    0.0000   -0.0000   -0.0000   -0.0000   -0.0000    0.0000
   30 H6     2pz        0.0006   -0.0086   -0.0042   -0.0129    0.0077    0.0143    0.0075   -0.0062    0.0115   -0.0068
   31 H7     1s         0.2909   -0.0883   -0.2648   -0.1750    0.2424    0.3379    0.2858   -0.6250    0.3533   -0.4051
   32 H7     2s        -0.0042   -0.0073   -0.0021   -0.0209    0.0200    0.0709    0.0392   -0.1326    0.0404   -0.0811
   33 H7     2px       -0.0000    0.0000   -0.0000    0.0000    0.0000    0.0000    0.0000    0.0000   -0.0000   -0.0000
   34 H7     2py        0.0000   -0.0000    0.0000   -0.0000   -0.0000   -0.0000   -0.0000    0.0000   -0.0000   -0.0000
   35 H7     2pz       -0.0006   -0.0086    0.0042   -0.0129   -0.0077    0.0143   -0.0075   -0.0062   -0.0115   -0.0068
   36 H8     1s         0.2756   -0.1829   -0.1607   -0.2963    0.0107    0.3818   -0.5771    0.3320   -0.4233   -0.0547
   37 H8     2s        -0.0023    0.0062   -0.0126   -0.0153    0.0158    0.0748   -0.1111    0.0596   -0.0565   -0.0317
   38 H8     2px        0.0000   -0.0000    0.0000   -0.0000   -0.0000    0.0000   -0.0000   -0.0000    0.0000    0.0000
   39 H8     2py       -0.0000   -0.0000   -0.0000   -0.0000    0.0000    0.0000    0.0000   -0.0000    0.0000    0.0000
   40 H8     2pz       -0.0019   -0.0065    0.0106   -0.0020   -0.0154   -0.0109    0.0041    0.0047   -0.0085    0.0114
   41 H9     1s         0.2312   -0.2823    0.0988   -0.1888   -0.3477   -0.2506    0.3986    0.1645   -0.2356    0.5134
   42 H9     2s        -0.0053   -0.0029    0.0131   -0.0018   -0.0429   -0.0582    0.0871    0.0203   -0.0174    0.0839
   43 H9     2px        0.0000    0.0000    0.0000   -0.0000    0.0000   -0.0000   -0.0000   -0.0000   -0.0000    0.0000
   44 H9     2py       -0.0000    0.0000    0.0000    0.0000   -0.0000   -0.0000   -0.0000    0.0000   -0.0000   -0.0000
   45 H9     2pz       -0.0028   -0.0030    0.0118    0.0101   -0.0045   -0.0154    0.0087   -0.0067    0.0128   -0.0020
   46 H10    1s         0.1924   -0.2894    0.2223    0.0002   -0.2635   -0.3723    0.0760   -0.5374    0.4296   -0.3289
   47 H10    2s        -0.0001    0.0013   -0.0049   -0.0178   -0.0471   -0.0712    0.0328   -0.1184    0.0639   -0.0355
   48 H10    2px        0.0000    0.0000   -0.0000    0.0000    0.0000    0.0000    0.0000   -0.0000    0.0000    0.0000
   49 H10    2py       -0.0000   -0.0000   -0.0000   -0.0000    0.0000    0.0000    0.0000   -0.0000    0.0000    0.0000
   50 H10    2pz       -0.0036    0.0012    0.0071    0.0145    0.0138    0.0061   -0.0106    0.0091    0.0048   -0.0092
   51 H11    1s         0.1203   -0.2323    0.3105    0.3284    0.2738    0.1558   -0.5372    0.6658    0.0847   -0.3065
   52 H11    2s        -0.0052    0.0036    0.0097    0.0336    0.0548    0.0505   -0.0765    0.1255   -0.0191   -0.0183
   53 H11    2px        0.0000   -0.0000    0.0000    0.0000   -0.0000    0.0000   -0.0000   -0.0000   -0.0000    0.0000
   54 H11    2py       -0.0000    0.0000   -0.0000    0.0000   -0.0000   -0.0000   -0.0000    0.0000   -0.0000   -0.0000
   55 H11    2pz       -0.0037    0.0045   -0.0003    0.0078    0.0151    0.0155    0.0059    0.0006   -0.0142    0.0129
   56 H12    1s         0.0746   -0.1543    0.2318    0.2936    0.3207    0.2720    0.4893   -0.4515   -0.3293    0.4560
   57 H12    2s         0.0007   -0.0014    0.0031    0.0085    0.0193    0.0277    0.0313   -0.0375   -0.0229    0.0255
   58 H12    2px       -0.0000   -0.0000    0.0000   -0.0000   -0.0000    0.0000    0.0000   -0.0000    0.0000   -0.0000
   59 H12    2py        0.0000   -0.0000   -0.0000   -0.0000    0.0000    0.0000   -0.0000    0.0000   -0.0000    0.0000
   60 H12    2pz       -0.0044    0.0082   -0.0102   -0.0096   -0.0069   -0.0034   -0.0062    0.0074    0.0024   -0.0043
 
 
      Orbital               11        12        13        14        15        16        17        18        19        20
      Energy            0.0000    0.0000    0.2526    0.2759    0.3153    0.3774    0.4732    0.6085    0.6085    0.6106
      Occ. No.          0.0830    0.0699    0.0000    0.0000    0.0000    0.0000    0.0000    0.0000    0.0000    0.0000
 
    1 H1     1s        -0.3498   -0.1919   -0.0585   -0.0657   -0.0082    0.1558   -0.3418    0.0000   -0.0000    0.5155
    2 H1     2s        -0.0372   -0.0239    0.1518    0.3211   -0.4903    0.6295   -0.7241    0.0000   -0.0000    0.7615
    3 H1     2px       -0.0000   -0.0000   -0.0000   -0.0000    0.0000   -0.0000    0.0000   -0.0260   -0.0723   -0.0000
    4 H1     2py       -0.0000    0.0000   -0.0000   -0.0000   -0.0000    0.0000   -0.0000   -0.0723    0.0260    0.0000
    5 H1     2pz       -0.0071   -0.0044   -0.0210   -0.0342    0.0336   -0.0205    0.0055   -0.0000    0.0000   -0.0050
    6 H2     1s         0.6185    0.3760   -0.0963   -0.1573    0.1646   -0.1519    0.1978   -0.0000    0.0000   -0.3745
    7 H2     2s         0.1371    0.0918    0.1140    0.1739   -0.1288   -0.0501    0.3605   -0.0000    0.0000   -0.7698
    8 H2     2px        0.0000   -0.0000    0.0000    0.0000   -0.0000    0.0000   -0.0000   -0.0484   -0.1344   -0.0000
    9 H2     2py       -0.0000   -0.0000    0.0000    0.0000   -0.0000    0.0000   -0.0000   -0.1344    0.0484    0.0000
   10 H2     2pz       -0.0032   -0.0024   -0.0021    0.0156   -0.0555    0.1016   -0.1312    0.0000   -0.0000    0.1292
   11 H3     1s        -0.7608   -0.5562   -0.0999   -0.0911   -0.0070    0.0732   -0.0088   -0.0000    0.0000   -0.1139
   12 H3     2s        -0.1719   -0.1333    0.1658    0.2405   -0.1476   -0.1061    0.3934   -0.0000    0.0000   -0.4835
   13 H3     2px        0.0000    0.0000    0.0000    0.0000   -0.0000    0.0000   -0.0000   -0.0690   -0.1917   -0.0000
   14 H3     2py        0.0000    0.0000    0.0000    0.0000   -0.0000    0.0000   -0.0000   -0.1917    0.0690    0.0000
   15 H3     2pz       -0.0062   -0.0031   -0.0125    0.0005   -0.0316    0.0436   -0.0013   -0.0000    0.0000   -0.0886
   16 H4     1s         0.7191    0.6863   -0.1165   -0.1107    0.0148    0.0328    0.0106    0.0000   -0.0000    0.0597
   17 H4     2s         0.1600    0.1708    0.1810    0.1709    0.0614   -0.3332    0.3391    0.0000   -0.0000    0.1243
   18 H4     2px       -0.0000   -0.0000    0.0000   -0.0000   -0.0000   -0.0000   -0.0000   -0.0855   -0.2374   -0.0000
   19 H4     2py       -0.0000   -0.0000    0.0000    0.0000    0.0000   -0.0000    0.0000   -0.2374    0.0855    0.0000
   20 H4     2pz       -0.0022   -0.0053   -0.0059    0.0196   -0.0477    0.0243    0.0515   -0.0000    0.0000   -0.0980
   21 H5     1s        -0.5000   -0.7864   -0.1276   -0.0469   -0.0745    0.0278    0.0231    0.0000   -0.0000    0.1623
   22 H5     2s        -0.1198   -0.1927    0.1994    0.1342    0.1603   -0.3078   -0.0449    0.0000   -0.0000    0.6257
   23 H5     2px        0.0000   -0.0000   -0.0000   -0.0000   -0.0000   -0.0000   -0.0000   -0.0974   -0.2704   -0.0000
   24 H5     2py       -0.0000    0.0000   -0.0000   -0.0000    0.0000   -0.0000    0.0000   -0.2704    0.0974    0.0000
   25 H5     2pz       -0.0070   -0.0040   -0.0054    0.0236   -0.0328   -0.0279    0.0897   -0.0000    0.0000   -0.0273
   26 H6     1s         0.1919    0.8350   -0.1316   -0.0417   -0.0791    0.0392   -0.0429   -0.0000   -0.0000    0.0734
   27 H6     2s         0.0373    0.2070    0.2074    0.0317    0.2554   -0.1120   -0.4102    0.0000   -0.0000    0.3319
   28 H6     2px        0.0000    0.0000   -0.0000   -0.0000   -0.0000    0.0000   -0.0000   -0.1034   -0.2871   -0.0000
   29 H6     2py       -0.0000   -0.0000   -0.0000   -0.0000    0.0000   -0.0000    0.0000   -0.2871    0.1034    0.0000
   30 H6     2pz        0.0039   -0.0050   -0.0009    0.0296   -0.0127   -0.0588    0.0369    0.0000   -0.0000    0.0939
   31 H7     1s         0.1919   -0.8350   -0.1316    0.0417   -0.0791   -0.0392   -0.0429   -0.0000    0.0000   -0.0734
   32 H7     2s         0.0373   -0.2070    0.2074   -0.0317    0.2554    0.1120   -0.4102   -0.0000    0.0000   -0.3319
   33 H7     2px       -0.0000    0.0000   -0.0000   -0.0000    0.0000    0.0000    0.0000   -0.1034   -0.2871   -0.0000
   34 H7     2py        0.0000   -0.0000   -0.0000   -0.0000   -0.0000   -0.0000   -0.0000   -0.2871    0.1034    0.0000
   35 H7     2pz       -0.0039   -0.0050    0.0009    0.0296    0.0127   -0.0588   -0.0369    0.0000   -0.0000    0.0939
   36 H8     1s        -0.5000    0.7864   -0.1276    0.0469   -0.0745   -0.0278    0.0231   -0.0000    0.0000   -0.1623
   37 H8     2s        -0.1198    0.1927    0.1994   -0.1342    0.1603    0.3078   -0.0449   -0.0000    0.0000   -0.6257
   38 H8     2px       -0.0000   -0.0000   -0.0000    0.0000   -0.0000   -0.0000   -0.0000   -0.0974   -0.2704   -0.0000
   39 H8     2py       -0.0000   -0.0000   -0.0000    0.0000    0.0000    0.0000    0.0000   -0.2704    0.0974    0.0000
   40 H8     2pz        0.0070   -0.0040    0.0054    0.0236    0.0328   -0.0279   -0.0897   -0.0000    0.0000   -0.0273
   41 H9     1s         0.7191   -0.6863   -0.1165    0.1107    0.0148   -0.0328    0.0106   -0.0000    0.0000   -0.0597
   42 H9     2s         0.1600   -0.1708    0.1810   -0.1709    0.0614    0.3332    0.3391   -0.0000    0.0000   -0.1243
   43 H9     2px        0.0000    0.0000   -0.0000    0.0000   -0.0000    0.0000    0.0000   -0.0855   -0.2374   -0.0000
   44 H9     2py        0.0000   -0.0000    0.0000   -0.0000    0.0000   -0.0000    0.0000   -0.2374    0.0855    0.0000
   45 H9     2pz        0.0022   -0.0053    0.0059    0.0196    0.0477    0.0243   -0.0515   -0.0000    0.0000   -0.0980
   46 H10    1s        -0.7608    0.5562   -0.0999    0.0911   -0.0070   -0.0732   -0.0088    0.0000   -0.0000    0.1139
   47 H10    2s        -0.1719    0.1333    0.1658   -0.2405   -0.1476    0.1061    0.3934    0.0000   -0.0000    0.4835
   48 H10    2px        0.0000   -0.0000   -0.0000    0.0000    0.0000    0.0000    0.0000   -0.0690   -0.1917   -0.0000
   49 H10    2py       -0.0000    0.0000    0.0000   -0.0000    0.0000    0.0000    0.0000   -0.1917    0.0690    0.0000
   50 H10    2pz        0.0062   -0.0031    0.0125    0.0005    0.0316    0.0436    0.0013   -0.0000    0.0000   -0.0886
   51 H11    1s         0.6185   -0.3760   -0.0963    0.1573    0.1646    0.1519    0.1978    0.0000   -0.0000    0.3745
   52 H11    2s         0.1371   -0.0918    0.1140   -0.1739   -0.1288    0.0501    0.3605    0.0000   -0.0000    0.7698
   53 H11    2px        0.0000   -0.0000   -0.0000    0.0000    0.0000    0.0000    0.0000   -0.0484   -0.1344   -0.0000
   54 H11    2py        0.0000   -0.0000    0.0000   -0.0000   -0.0000   -0.0000    0.0000   -0.1344    0.0484    0.0000
   55 H11    2pz        0.0032   -0.0024    0.0021    0.0156    0.0555    0.1016    0.1312    0.0000   -0.0000    0.1292
   56 H12    1s        -0.3498    0.1919   -0.0585    0.0657   -0.0082   -0.1558   -0.3418   -0.0000    0.0000   -0.5155
   57 H12    2s        -0.0372    0.0239    0.1518   -0.3211   -0.4903   -0.6295   -0.7241   -0.0000    0.0000   -0.7615
   58 H12    2px       -0.0000    0.0000    0.0000    0.0000    0.0000    0.0000    0.0000   -0.0260   -0.0723   -0.0000
   59 H12    2py       -0.0000    0.0000    0.0000   -0.0000   -0.0000   -0.0000    0.0000   -0.0723    0.0260    0.0000
   60 H12    2pz        0.0071   -0.0044    0.0210   -0.0342   -0.0336   -0.0205   -0.0055   -0.0000    0.0000   -0.0050
 
 
      Orbital               21        22        23        24        25        26        27        28        29        30
      Energy            0.6368    0.6368    0.6836    0.6836    0.7492    0.7492    0.7816    0.8340    0.8340    0.9375
      Occ. No.          0.0000    0.0000    0.0000    0.0000    0.0000    0.0000    0.0000    0.0000    0.0000    0.0000
 
    1 H1     1s         0.0000   -0.0000    0.0000   -0.0000    0.0000   -0.0000    0.6131   -0.0000   -0.0000   -0.0000
    2 H1     2s        -0.0000   -0.0000    0.0000    0.0000    0.0000   -0.0000    0.6958   -0.0000   -0.0000   -0.0000
    3 H1     2px        0.0263   -0.1515   -0.0339   -0.2254    0.0599   -0.2892   -0.0000    0.0177   -0.3510   -0.0437
    4 H1     2py        0.1515    0.0263   -0.2254    0.0339    0.2892    0.0599   -0.0000   -0.3510   -0.0177    0.3871
    5 H1     2pz        0.0000    0.0000   -0.0000    0.0000    0.0000    0.0000   -0.0453   -0.0000    0.0000    0.0000
    6 H2     1s        -0.0000    0.0000    0.0000    0.0000   -0.0000    0.0000   -0.6482   -0.0000    0.0000    0.0000
    7 H2     2s        -0.0000    0.0000    0.0000   -0.0000   -0.0000    0.0000   -1.1542    0.0000    0.0000    0.0000
    8 H2     2px        0.0443   -0.2554   -0.0480   -0.3190    0.0635   -0.3065   -0.0000    0.0113   -0.2241   -0.0077
    9 H2     2py        0.2554    0.0443   -0.3190    0.0480    0.3065    0.0635   -0.0000   -0.2241   -0.0113    0.0680
   10 H2     2pz       -0.0000   -0.0000   -0.0000    0.0000   -0.0000   -0.0000    0.1069   -0.0000   -0.0000    0.0000
   11 H3     1s         0.0000    0.0000   -0.0000   -0.0000    0.0000   -0.0000   -0.0565    0.0000   -0.0000   -0.0000
   12 H3     2s         0.0000    0.0000   -0.0000   -0.0000    0.0000   -0.0000   -0.1440    0.0000   -0.0000   -0.0000
   13 H3     2px        0.0532   -0.3068   -0.0393   -0.2607    0.0143   -0.0689   -0.0000   -0.0092    0.1834    0.0415
   14 H3     2py        0.3068    0.0532   -0.2607    0.0393    0.0689    0.0143    0.0000    0.1834    0.0092   -0.3678
   15 H3     2pz       -0.0000    0.0000    0.0000   -0.0000    0.0000    0.0000   -0.1774    0.0000    0.0000    0.0000
   16 H4     1s        -0.0000   -0.0000    0.0000   -0.0000   -0.0000    0.0000    0.3641   -0.0000    0.0000   -0.0000
   17 H4     2s        -0.0000   -0.0000    0.0000   -0.0000    0.0000   -0.0000    0.7970   -0.0000   -0.0000   -0.0000
   18 H4     2px        0.0500   -0.2878   -0.0110   -0.0733   -0.0468    0.2261   -0.0000   -0.0180    0.3572    0.0189
   19 H4     2py        0.2878    0.0500   -0.0733    0.0110   -0.2261   -0.0468    0.0000    0.3572    0.0180   -0.1677
   20 H4     2pz        0.0000    0.0000   -0.0000   -0.0000   -0.0000   -0.0000   -0.0197    0.0000   -0.0000    0.0000
   21 H5     1s         0.0000   -0.0000   -0.0000   -0.0000    0.0000    0.0000    0.2228   -0.0000   -0.0000    0.0000
   22 H5     2s        -0.0000   -0.0000   -0.0000    0.0000    0.0000   -0.0000    0.4827   -0.0000   -0.0000    0.0000
   23 H5     2px        0.0354   -0.2040    0.0228    0.1511   -0.0685    0.3306    0.0000   -0.0040    0.0790   -0.0364
   24 H5     2py        0.2040    0.0354    0.1511   -0.0228   -0.3306   -0.0685    0.0000    0.0790    0.0040    0.3231
   25 H5     2pz        0.0000   -0.0000   -0.0000   -0.0000    0.0000    0.0000    0.0895   -0.0000    0.0000   -0.0000
   26 H6     1s         0.0000    0.0000   -0.0000    0.0000    0.0000    0.0000   -0.3119   -0.0000    0.0000    0.0000
   27 H6     2s        -0.0000    0.0000   -0.0000    0.0000   -0.0000    0.0000   -0.6852    0.0000    0.0000    0.0000
   28 H6     2px        0.0128   -0.0738    0.0451    0.2997   -0.0319    0.1542    0.0000    0.0150   -0.2981   -0.0287
   29 H6     2py        0.0738    0.0128    0.2997   -0.0451   -0.1542   -0.0319   -0.0000   -0.2981   -0.0150    0.2548
   30 H6     2pz       -0.0000   -0.0000    0.0000    0.0000   -0.0000   -0.0000    0.1016   -0.0000   -0.0000    0.0000
   31 H7     1s        -0.0000    0.0000    0.0000    0.0000   -0.0000   -0.0000   -0.3119   -0.0000   -0.0000   -0.0000
   32 H7     2s        -0.0000    0.0000    0.0000   -0.0000   -0.0000   -0.0000   -0.6852    0.0000   -0.0000   -0.0000
   33 H7     2px       -0.0128    0.0738    0.0451    0.2997    0.0319   -0.1542    0.0000    0.0150   -0.2981    0.0287
   34 H7     2py       -0.0738   -0.0128    0.2997   -0.0451    0.1542    0.0319   -0.0000   -0.2981   -0.0150   -0.2548
   35 H7     2pz       -0.0000   -0.0000   -0.0000    0.0000   -0.0000    0.0000   -0.1016    0.0000    0.0000   -0.0000
   36 H8     1s        -0.0000    0.0000   -0.0000   -0.0000    0.0000    0.0000    0.2228    0.0000    0.0000   -0.0000
   37 H8     2s         0.0000    0.0000   -0.0000   -0.0000    0.0000    0.0000    0.4827    0.0000    0.0000   -0.0000
   38 H8     2px       -0.0354    0.2040    0.0228    0.1511    0.0685   -0.3306    0.0000   -0.0040    0.0790    0.0364
   39 H8     2py       -0.2040   -0.0354    0.1511   -0.0228    0.3306    0.0685   -0.0000    0.0790    0.0040   -0.3231
   40 H8     2pz        0.0000    0.0000   -0.0000   -0.0000   -0.0000    0.0000   -0.0895    0.0000   -0.0000    0.0000
   41 H9     1s         0.0000   -0.0000   -0.0000    0.0000   -0.0000   -0.0000    0.3641   -0.0000   -0.0000    0.0000
   42 H9     2s         0.0000   -0.0000    0.0000   -0.0000    0.0000   -0.0000    0.7970   -0.0000   -0.0000    0.0000
   43 H9     2px       -0.0500    0.2878   -0.0110   -0.0733    0.0468   -0.2261    0.0000   -0.0180    0.3572   -0.0189
   44 H9     2py       -0.2878   -0.0500   -0.0733    0.0110    0.2261    0.0468    0.0000    0.3572    0.0180    0.1677
   45 H9     2pz        0.0000    0.0000    0.0000   -0.0000    0.0000   -0.0000    0.0197   -0.0000   -0.0000   -0.0000
   46 H10    1s        -0.0000    0.0000   -0.0000    0.0000   -0.0000   -0.0000   -0.0565   -0.0000   -0.0000    0.0000
   47 H10    2s        -0.0000   -0.0000   -0.0000    0.0000   -0.0000    0.0000   -0.1440   -0.0000    0.0000    0.0000
   48 H10    2px       -0.0532    0.3068   -0.0393   -0.2607   -0.0143    0.0689    0.0000   -0.0092    0.1834   -0.0415
   49 H10    2py       -0.3068   -0.0532   -0.2607    0.0393   -0.0689   -0.0143    0.0000    0.1834    0.0092    0.3678
   50 H10    2pz        0.0000    0.0000   -0.0000   -0.0000    0.0000   -0.0000    0.1774   -0.0000    0.0000    0.0000
   51 H11    1s        -0.0000    0.0000    0.0000    0.0000   -0.0000    0.0000   -0.6482    0.0000   -0.0000   -0.0000
   52 H11    2s        -0.0000    0.0000    0.0000    0.0000   -0.0000    0.0000   -1.1542    0.0000    0.0000   -0.0000
   53 H11    2px       -0.0443    0.2554   -0.0480   -0.3190   -0.0635    0.3065    0.0000    0.0113   -0.2241    0.0077
   54 H11    2py       -0.2554   -0.0443   -0.3190    0.0480   -0.3065   -0.0635    0.0000   -0.2241   -0.0113   -0.0680
   55 H11    2pz       -0.0000   -0.0000    0.0000    0.0000   -0.0000   -0.0000   -0.1069    0.0000    0.0000   -0.0000
   56 H12    1s         0.0000   -0.0000    0.0000   -0.0000    0.0000   -0.0000    0.6131   -0.0000   -0.0000    0.0000
   57 H12    2s         0.0000    0.0000   -0.0000   -0.0000    0.0000   -0.0000    0.6958   -0.0000   -0.0000    0.0000
   58 H12    2px       -0.0263    0.1515   -0.0339   -0.2254   -0.0599    0.2892    0.0000    0.0177   -0.3510    0.0437
   59 H12    2py       -0.1515   -0.0263   -0.2254    0.0339   -0.2892   -0.0599   -0.0000   -0.3510   -0.0177   -0.3871
   60 H12    2pz        0.0000   -0.0000   -0.0000   -0.0000    0.0000    0.0000    0.0453   -0.0000    0.0000    0.0000
 
 
[...]
   53 H11    2px        0.1886    0.0000   -0.0000    0.0000    0.0000   -0.0000    0.0000   -0.0000    0.0000   -0.0000
   54 H11    2py        0.1702    0.0000    0.0000    0.0000    0.0000    0.0000   -0.0000    0.0000    0.0000   -0.0000
   55 H11    2pz        0.0000   -0.2696   -0.1720   -0.1443    0.4151   -0.6364    0.7771   -0.8008   -0.6738    0.3896
   56 H12    1s         0.0000   -0.6218    0.5440   -0.3888   -0.5438    0.5045   -0.4662    0.4091    0.3135   -0.1726
   57 H12    2s         0.0000   -0.6277    0.4696   -0.3723   -0.3732    0.2622   -0.1846    0.1295    0.0848   -0.0426
   58 H12    2px       -0.0918   -0.0000    0.0000   -0.0000   -0.0000   -0.0000    0.0000   -0.0000   -0.0000    0.0000
   59 H12    2py       -0.0829   -0.0000   -0.0000   -0.0000    0.0000   -0.0000   -0.0000    0.0000   -0.0000    0.0000
   60 H12    2pz       -0.0000    0.2891   -0.5508    0.1813    0.5418   -0.4990    0.4461   -0.3751   -0.2770    0.1489
--
 
      Von Neumann Entropy (Root  1) =  2.38268
 

      Mulliken population analysis for root number:  1
      -----------------------------------------------
 
 
++    Molecular charges:
      ------------------
 
      Mulliken charges per centre and basis function type
      ---------------------------------------------------
 
                H1      H2      H3      H4      H5      H6      H7      H8      H9      H10     H11     H12   
      1s       0.9660  1.0170  1.0102  1.0041  1.0068  1.0060  1.0060  1.0068  1.0041  1.0102  1.0170  0.9660
      2s       0.0003 -0.0106 -0.0329 -0.0242 -0.0269 -0.0258 -0.0258 -0.0269 -0.0242 -0.0329 -0.0106  0.0003
      2px      0.0000  0.0000  0.0000  0.0000  0.0000  0.0000  0.0000  0.0000  0.0000  0.0000  0.0000  0.0000
      2pz      0.0088  0.0212  0.0198  0.0201  0.0201  0.0201  0.0201  0.0201  0.0201  0.0198  0.0212  0.0088
      2py      0.0000  0.0000  0.0000  0.0000  0.0000  0.0000  0.0000  0.0000  0.0000  0.0000  0.0000  0.0000
      Total    0.9751  1.0276  0.9971  1.0000  1.0000  1.0003  1.0003  1.0000  1.0000  0.9971  1.0276  0.9751
 
      N-E      0.0249 -0.0276  0.0029  0.0000  0.0000 -0.0003 -0.0003  0.0000  0.0000  0.0029 -0.0276  0.0249
 
      Total electronic charge=   12.000000
 
      Total            charge=   -0.000000
--
 
 

      Expectation values of various properties for root number:  1
      -----------------------------------------------------------
 
 
++    Molecular properties:
      ---------------------
 
      Charge (e):
                      =   -0.0000
      Dipole Moment (Debye):
      Origin of the operator (Ang)=    0.0000    0.0000    0.0000
                   X= -5.3928E-13               Y=  6.0475E-13               Z=  1.3764E-08           Total=  1.3764E-08
      Quadrupole Moment (Debye*Ang):
      Origin of the operator (Ang)=    0.0000    0.0000    7.7000
                  XX= -1.6278E+01              XY=  8.0648E-27              XZ=  1.7416E-12              YY= -1.6278E+01
                  YZ=  1.6395E-12              ZZ= -1.0450E+01
      In traceless form (Debye*Ang)
                  XX= -2.9140E+00              XY=  1.2097E-26              XZ=  2.6124E-12              YY= -2.9140E+00
                  YZ=  2.4592E-12              ZZ=  5.8279E+00
--
 

      LoProp population analysis for root number:  1
      -----------------------------------------------
 
 
++    LoProp analysis:
      ----------------
 
 
 
  Input file to MOLDEN was generated!
 
 
++    Static properties:
      ------------------
 
 
      LoProp Charges per center
 

                   H1       H2       H3       H4       H5       H6       H7       H8       H9       H10   
      Nuclear      1.0000   1.0000   1.0000   1.0000   1.0000   1.0000   1.0000   1.0000   1.0000   1.0000
      Electronic  -1.0005  -0.9997  -0.9991  -1.0006  -0.9999  -1.0002  -1.0002  -0.9999  -1.0006  -0.9991
 
      Total       -0.0005   0.0003   0.0009  -0.0006   0.0001  -0.0002  -0.0002   0.0001  -0.0006   0.0009
 

                   H11      H12   
      Nuclear      1.0000   1.0000
      Electronic  -0.9997  -1.0005
 
      Total        0.0003  -0.0005
--
 
 
      Natural Bond Order analysis for root number:  1
 
++    Natural Bond Order analysis
      ---------------------------
      Based on LoProp computed density
      -------------------------------------------------------------------------------------
      Atom A       Atom B       Bond Order
      -------------------------------------------------------------------------------------
      NBO located      0.979 non-bonded electrons on atom H1        
      NBO located      1.019 non-bonded electrons on atom H3        
      NBO located      1.013 non-bonded electrons on atom H4        
      NBO located      1.016 non-bonded electrons on atom H5        
      NBO located      1.015 non-bonded electrons on atom H6        
      NBO located      1.015 non-bonded electrons on atom H7        
      NBO located      1.016 non-bonded electrons on atom H8        
      NBO located      1.013 non-bonded electrons on atom H9        
      NBO located      1.019 non-bonded electrons on atom H10       
      NBO located      0.979 non-bonded electrons on atom H12       
      The remaining    1.916 electrons are to be considered as diffuse
--
 
--
 
 
  Input file to MOLDEN was generated!
 
      Average orbitals are written to the RASORB file
      Natural orbitals for root   1 are written to the RASORB.1 file
      Spin density orbitals for root   1 are written to the SPDORB.1 file
 
--- Stop Module: rasscf at Tue Nov 12 21:04:39 2024 /rc=_RC_ALL_IS_WELL_ ---
*** files: H12_1.40.LprOrb H12_1.40.rasscf.molden H12_1.40.LoProp.molden H12_1.40.RasOrb H12_1.40.RasOrb.1 H12_1.40.rasscf.h5 H12_1.40.SpdOrb.1 xmldump
    saved to directory /home/grierjones/DDCASPT2/hydrogen_comps/H12_chain/H12_1.40
--- Module rasscf spent 48 seconds ---

>>> COPY /tmp/H12_1.40/H12_1.40.rasscf.h5 /home/grierjones/DDCASPT2/hydrogen_comps/H12_chain/H12_1.40/

>>> COPY /tmp/H12_1.40/GMJ_Fock_MO.csv /home/grierjones/DDCASPT2/hydrogen_comps/H12_chain/H12_1.40/H12_1.40.GMJ_Fock_MO.csv

>>> COPY /tmp/H12_1.40/GMJ_PT2_Fock_MO.csv /home/grierjones/DDCASPT2/hydrogen_comps/H12_chain/H12_1.40/H12_1.40.GMJ_PT2_Fock_MO.csv

*** symbolic link created: INPORB -> H12_1.40.RasOrb
--- Start Module: motra at Tue Nov 12 21:04:39 2024 ---
 
()()()()()()()()()()()()()()()()()()()()()()()()()()()()()()()()()()()()()()()()()()()()()()()()()()

                                               &MOTRA

                                   only a single process is used
                       available to each process: 2.0 GB of memory, 1 thread?
()()()()()()()()()()()()()()()()()()()()()()()()()()()()()()()()()()()()()()()()()()()()()()()()()()
 
 
      *** WARNING: Default frozen orbitals is overwritten by user input.
      *** Default values:   0
 
      Header of the integral files:
      
       Integrals generated by seward 4.2.0  , Tue Nov 12 21:03:49 2024
 
 
      Header of MO coefficients source file:
      * RASSCF average (pseudo-natural) orbitals                                      
 
 
      Cartesian coordinates in Angstrom:
      -----------------------------------------------------
      No.  Label        X            Y            Z        
      -----------------------------------------------------
       1   H1         0.00000000   0.00000000   0.00000000
       2   H2         0.00000000   0.00000000   1.40000000
       3   H3         0.00000000   0.00000000   2.80000000
       4   H4         0.00000000   0.00000000   4.20000000
       5   H5         0.00000000   0.00000000   5.60000000
       6   H6         0.00000000   0.00000000   7.00000000
       7   H7         0.00000000   0.00000000   8.40000000
       8   H8         0.00000000   0.00000000   9.80000000
       9   H9         0.00000000   0.00000000  11.20000000
      10   H10        0.00000000   0.00000000  12.60000000
      11   H11        0.00000000   0.00000000  14.00000000
      12   H12        0.00000000   0.00000000  15.40000000
      -----------------------------------------------------
      Nuclear repulsion energy =    9.53975280
 
      Orbital specifications:
      -----------------------
 
      Symmetry species:              1
      Number of basis functions:    60
      Frozen orbitals:               0
      Deleted orbitals:              0
      Number of orbitals used:      60

       SYMMETRY  BASIS FUNCTIONS       ORBITALS      INTEGRALS   CPU(SEC)  I/O(SEC)
 
        1 1 1 1   60  60  60  60    60  60  60  60     1675365       0.00      0.00

       TOTAL CPU TIME(SEC)    0.61TOTAL I/O TIME(SEC)    2.16
 
--- Stop Module: motra at Tue Nov 12 21:04:41 2024 /rc=_RC_ALL_IS_WELL_ ---
*** files: xmldump
    saved to directory /home/grierjones/DDCASPT2/hydrogen_comps/H12_chain/H12_1.40
--- Module motra spent 2 seconds ---

>>> COPY /tmp/H12_1.40/GMJ_one_int_indx.csv /home/grierjones/DDCASPT2/hydrogen_comps/H12_chain/H12_1.40/H12_1.40.GMJ_one_int_indx.csv

>>> COPY /tmp/H12_1.40/GMJ_one_int.csv /home/grierjones/DDCASPT2/hydrogen_comps/H12_chain/H12_1.40/H12_1.40.GMJ_one_int.csv

>>> COPY /tmp/H12_1.40/GMJ_two_int_indx.csv /home/grierjones/DDCASPT2/hydrogen_comps/H12_chain/H12_1.40/H12_1.40.GMJ_two_int_indx.csv

>>> COPY /tmp/H12_1.40/GMJ_two_int.csv /home/grierjones/DDCASPT2/hydrogen_comps/H12_chain/H12_1.40/H12_1.40.GMJ_two_int.csv

*** symbolic link created: INPORB -> H12_1.40.RasOrb
--- Start Module: caspt2 at Tue Nov 12 21:04:41 2024 ---
 
()()()()()()()()()()()()()()()()()()()()()()()()()()()()()()()()()()()()()()()()()()()()()()()()()()

                                              &CASPT2

                                   only a single process is used
                       available to each process: 2.0 GB of memory, 1 thread?
()()()()()()()()()()()()()()()()()()()()()()()()()()()()()()()()()()()()()()()()()()()()()()()()()()
 
 Cholesky algorithm in CASPT2 =    1
 
 ###############################################################################
 ###############################################################################
 ###                                                                         ###
 ###                                                                         ###
 ###    User changed nr of frozen orbitals.                                  ###
 ###                                                                         ###
 ###                                                                         ###
 ###############################################################################
 ###############################################################################
 
++    Wave function specifications:
      -----------------------------
 
      Number of closed shell electrons           0
      Number of electrons in active shells      12
      Max number of holes in RAS1 space          0
      Max number of electrons in RAS3 space      0
      Number of inactive orbitals                0
      Number of active orbitals                 12
      Number of secondary orbitals              48
      Spin quantum number                      0.0
      State symmetry                             1
      Number of CSFs                        226512
      Number of root(s) available                1
      Root passed to geometry opt.               1
      A file JOBMIX will be created.
      This is a CASSCF or RASSCF reference function
--
 
++    Orbital specifications:
      -----------------------
 
      Symmetry species                           1
                                                 a
      Frozen orbitals                            0
      Inactive orbitals                          0
      Active orbitals                           12
      Secondary orbitals                        48
      Deleted orbitals                           0
      Number of basis functions                 60
--
 
      Type of Fock operator: STANDARD
      Type of 0-order Hamiltonian: STANDARD WITH DEFAULT IPEA
        "IP-EA" denominator shift =      0.25
      The input orbitals and the CI vector will be transformed.
 
--------------------------------------------------------------------------------
 Estimated memory requirements:
  POLY3 :                 54392696
  RHS:                     1916944
  SIGMA :                   616912
  PRPCTL:                        0
 Available workspace:    230179958
 
++ CASPT2 computation for group   1
 
********************************************************************************
 Multi-State initialization phase begins for group   1
--------------------------------------------------------------------------------
********************************************************************************
 Compute H0 matrices for state    1
--------------------------------------------------------------------------------
--------------------------------------------------------------------------------
 H0 matrices have been computed.
 
********************************************************************************
  CASPT2 EQUATION SOLUTION
--------------------------------------------------------------------------------
 
  Total nr of CASPT2 parameters:
   Before reduction:      249120
   After  reduction:      248544
 
 The contributions to the second order correlation energy in atomic units.
-----------------------------------------------------------------------------------------------------------------------------
  IT.      VJTU        VJTI        ATVX        AIVX        VJAI        BVAT        BJAT        BJAI        TOTAL       RNORM  
-----------------------------------------------------------------------------------------------------------------------------
   1     0.000000    0.000000   -0.021004    0.000000    0.000000   -0.043766    0.000000    0.000000   -0.064770    0.002437
   2     0.000000    0.000000   -0.021210    0.000000    0.000000   -0.043809    0.000000    0.000000   -0.065019    0.000189
   3     0.000000    0.000000   -0.021211    0.000000    0.000000   -0.043810    0.000000    0.000000   -0.065021    0.000026
   4     0.000000    0.000000   -0.021210    0.000000    0.000000   -0.043810    0.000000    0.000000   -0.065020    0.000002
-------------------------------------------------------------------------------------------------------------------
 
  FINAL CASPT2 RESULT:
 
  Correlation energy /Case, /Symm, and sums:
 VJTU      0.00000000  0.00000000
 VJTIP     0.00000000  0.00000000
 VJTIM     0.00000000  0.00000000
 ATVX     -0.02121031 -0.02121031
 AIVX      0.00000000  0.00000000
 VJAIP     0.00000000  0.00000000
 VJAIM     0.00000000  0.00000000
 BVATP    -0.04144378 -0.04144378
 BVATM    -0.00236595 -0.00236595
 BJATP     0.00000000  0.00000000
 BJATM     0.00000000  0.00000000
 BJAIP     0.00000000  0.00000000
 BJAIM     0.00000000  0.00000000
 Summed:  -0.06502004 -0.06502004
 
      Reference energy:          -6.3948447756
      E2 (Non-variational):      -0.0650200381
      E2 (Variational):          -0.0650200465
      Total energy:              -6.4598648221
      Residual norm:              0.0000002898
      Reference weight:           0.97005
 
      Contributions to the CASPT2 correlation energy
      Active & Virtual Only:         -0.0650200381
      One Inactive Excited:           0.0000000000
      Two Inactive Excited:           0.0000000000
 
 
++ Denominators, etc.
----------------------------------------------------------------------------------------------------
 Report on small energy denominators, large coefficients, and large energy contributions.
CASE  SYMM ACTIVE-MIX  NON-ACTIVE INDICES          DENOMINATOR     RHS VALUE       COEFFICIENT     CONTRIBUTION
ATVX     1  Mu1.0001  Se1.013                       0.17639473     -0.00000000      0.00000000     -0.00000000
ATVX     1  Mu1.0002  Se1.013                       0.26317724      0.00002240      0.00009763      0.00000000
ATVX     1  Mu1.0001  Se1.014                       0.19967973      0.00032622     -0.00129799     -0.00000042
ATVX     1  Mu1.0002  Se1.014                       0.28646225     -0.00000000      0.00000000     -0.00000000
ATVX     1  Mu1.0001  Se1.015                       0.23908509     -0.00000000      0.00000000     -0.00000000
--
 
   (Skipping property calculation,
    use PROP keyword to activate)
--
 
  Total CASPT2 energies:
::    CASPT2 Root  1     Total energy:     -6.45986482
 
  A NEW JOBIPH FILE NAMED 'JOBMIX' IS PREPARED.
********************************************************************************
--- Stop Module: caspt2 at Tue Nov 12 21:05:15 2024 /rc=_RC_ALL_IS_WELL_ ---
*** files: xmldump
    saved to directory /home/grierjones/DDCASPT2/hydrogen_comps/H12_chain/H12_1.40
--- Module caspt2 spent 34 seconds ---

>>> EXPORT i = B

>>> EXPORT j = P

>>> IF (-FILE GMJ_e2_${i}_${j}.csv)
(Skipped)

>>> END FOREACH

>>> EXPORT j = M

>>> IF (-FILE GMJ_e2_${i}_${j}.csv)
(Skipped)

>>> END FOREACH

>>> END FOREACH

>>> EXPORT i = E

>>> EXPORT j = P

>>> IF (-FILE GMJ_e2_${i}_${j}.csv)
(Skipped)

>>> END FOREACH

>>> EXPORT j = M

>>> IF (-FILE GMJ_e2_${i}_${j}.csv)
(Skipped)

>>> END FOREACH

>>> END FOREACH

>>> EXPORT i = F

>>> EXPORT j = P

>>> IF (-FILE GMJ_e2_${i}_${j}.csv)

>>> COPY /tmp/H12_1.40/GMJ_RHS_F_P.csv /home/grierjones/DDCASPT2/hydrogen_comps/H12_chain/H12_1.40/GMJ_RHS_F_P.csv

>>> COPY /tmp/H12_1.40/GMJ_IVECW_F_P.csv /home/grierjones/DDCASPT2/hydrogen_comps/H12_chain/H12_1.40/GMJ_IVECW_F_P.csv

>>> COPY /tmp/H12_1.40/GMJ_IVECX_F_P.csv /home/grierjones/DDCASPT2/hydrogen_comps/H12_chain/H12_1.40/GMJ_IVECX_F_P.csv

>>> COPY /tmp/H12_1.40/GMJ_IVECC2_F_P.csv /home/grierjones/DDCASPT2/hydrogen_comps/H12_chain/H12_1.40/GMJ_IVECC2_F_P.csv

>>> COPY /tmp/H12_1.40/GMJ_e2_F_P.csv /home/grierjones/DDCASPT2/hydrogen_comps/H12_chain/H12_1.40/GMJ_e2_F_P.csv

>>> END FOREACH

>>> EXPORT j = M

>>> IF (-FILE GMJ_e2_${i}_${j}.csv)

>>> COPY /tmp/H12_1.40/GMJ_RHS_F_M.csv /home/grierjones/DDCASPT2/hydrogen_comps/H12_chain/H12_1.40/GMJ_RHS_F_M.csv

>>> COPY /tmp/H12_1.40/GMJ_IVECW_F_M.csv /home/grierjones/DDCASPT2/hydrogen_comps/H12_chain/H12_1.40/GMJ_IVECW_F_M.csv

>>> COPY /tmp/H12_1.40/GMJ_IVECX_F_M.csv /home/grierjones/DDCASPT2/hydrogen_comps/H12_chain/H12_1.40/GMJ_IVECX_F_M.csv

>>> COPY /tmp/H12_1.40/GMJ_IVECC2_F_M.csv /home/grierjones/DDCASPT2/hydrogen_comps/H12_chain/H12_1.40/GMJ_IVECC2_F_M.csv

>>> COPY /tmp/H12_1.40/GMJ_e2_F_M.csv /home/grierjones/DDCASPT2/hydrogen_comps/H12_chain/H12_1.40/GMJ_e2_F_M.csv

>>> END FOREACH

>>> END FOREACH

>>> EXPORT i = G

>>> EXPORT j = P

>>> IF (-FILE GMJ_e2_${i}_${j}.csv)
(Skipped)

>>> END FOREACH

>>> EXPORT j = M

>>> IF (-FILE GMJ_e2_${i}_${j}.csv)
(Skipped)

>>> END FOREACH

>>> END FOREACH

>>> EXPORT i = H

>>> EXPORT j = P

>>> IF (-FILE GMJ_e2_${i}_${j}.csv)
(Skipped)

>>> END FOREACH

>>> EXPORT j = M

>>> IF (-FILE GMJ_e2_${i}_${j}.csv)
(Skipped)

>>> END FOREACH

>>> END FOREACH

>>> EXPORT i = A

>>> IF (-FILE GMJ_e2_$i.csv)
(Skipped)

>>> END FOREACH

>>> EXPORT i = C

>>> IF (-FILE GMJ_e2_$i.csv)

>>> COPY /tmp/H12_1.40/GMJ_RHS_C.csv /home/grierjones/DDCASPT2/hydrogen_comps/H12_chain/H12_1.40/GMJ_RHS_C.csv

>>> COPY /tmp/H12_1.40/GMJ_IVECW_C.csv /home/grierjones/DDCASPT2/hydrogen_comps/H12_chain/H12_1.40/GMJ_IVECW_C.csv

>>> COPY /tmp/H12_1.40/GMJ_IVECX_C.csv /home/grierjones/DDCASPT2/hydrogen_comps/H12_chain/H12_1.40/GMJ_IVECX_C.csv

>>> COPY /tmp/H12_1.40/GMJ_IVECC2_C.csv /home/grierjones/DDCASPT2/hydrogen_comps/H12_chain/H12_1.40/GMJ_IVECC2_C.csv

>>> COPY /tmp/H12_1.40/GMJ_e2_C.csv /home/grierjones/DDCASPT2/hydrogen_comps/H12_chain/H12_1.40/GMJ_e2_C.csv

>>> END FOREACH

>>> EXPORT i = D

>>> IF (-FILE GMJ_e2_$i.csv)
(Skipped)

>>> END FOREACH

.########################.
.# Non-zero return code #.
.########################.

    Timing: Wall=86.60 User=83.84 System=2.73
****************************************
*** WorkDir at /tmp/H12_1.40 cleaned ***
****************************************
