[Molden Format]
[N_Atoms]
                     2
[Atoms] (AU)
C1          1      6           0.00000000      0.00000000      0.00000000
N2          2      7           0.00000000      0.00000000      3.40150702
[Charge] (Mulliken)
 -5.741994525731986E-002
  5.741994525727989E-002
[GTO] (AU)
   1
   s  14
  5.055750100E+04  1.128874000E-04
  7.524785600E+03  5.295373000E-04
  1.694327600E+03  2.450038300E-03
  4.728227900E+02  1.005398470E-02
  1.517107500E+02  3.545398060E-02
  5.391874600E+01  1.044071086E-01
  2.065931100E+01  2.412894918E-01
  8.383976000E+00  3.834225483E-01
  3.577015000E+00  3.078514393E-01
  1.547118000E+00  6.872442990E-02
  6.130130000E-01  2.224445000E-04
  2.460680000E-01  1.976748900E-03
  9.908700000E-02  2.057859400E-03
  3.468000000E-02  4.182020000E-04
   s  14
  5.055750100E+04 -2.507420000E-05
  7.524785600E+03 -1.175945000E-04
  1.694327600E+03 -5.456275000E-04
  4.728227900E+02 -2.245077100E-03
  1.517107500E+02 -8.043471800E-03
  5.391874600E+01 -2.442588710E-02
  2.065931100E+01 -6.136791180E-02
  8.383976000E+00 -1.177767835E-01
  3.577015000E+00 -1.550487783E-01
  1.547118000E+00 -1.933316860E-02
  6.130130000E-01  3.996930678E-01
  2.460680000E-01  5.589420949E-01
  9.908700000E-02  1.711195023E-01
  3.468000000E-02  7.456244600E-03
   p   9
  8.333315500E+01  1.344656000E-03
  1.955761100E+01  1.023555500E-02
  6.080365000E+00  4.520067100E-02
  2.179317000E+00  1.410756198E-01
  8.651500000E-01  3.047388085E-01
  3.619440000E-01  3.995281011E-01
  1.547400000E-01  2.719163432E-01
  6.542900000E-02  5.857669330E-02
  2.290000000E-02 -1.263813000E-04
 
   2
   s  14
  7.476171500E+04  1.182599996E-04
  1.112365400E+04  5.172899983E-04
  2.512685700E+03  2.266659992E-03
  7.037772900E+02  9.145289970E-03
  2.254787900E+02  3.239342989E-02
  7.961581000E+01  9.770792967E-02
  3.023728300E+01  2.317036792E-01
  1.226362200E+01  3.768898887E-01
  5.265086000E+00  3.177420689E-01
  2.333471000E+00  8.211308973E-02
  9.018560000E-01  3.312089989E-03
  3.583360000E-01  3.720819988E-03
  1.410930000E-01  3.165419989E-03
  4.938300000E-02  4.595799985E-04
   s  14
  7.476171500E+04 -2.707000010E-05
  1.112365400E+04 -1.183700004E-04
  2.512685700E+03 -5.203800020E-04
  7.037772900E+02 -2.102930008E-03
  2.254787900E+02 -7.568200028E-03
  7.961581000E+01 -2.346767009E-02
  3.023728300E+01 -6.042901023E-02
  1.226362200E+01 -1.170549104E-01
  5.265086000E+00 -1.555321506E-01
  2.333471000E+00 -2.468935009E-02
  9.018560000E-01  3.625054514E-01
  3.583360000E-01  5.550845021E-01
  1.410930000E-01  2.148376908E-01
  4.938300000E-02  8.983850034E-03
   p   9
  1.266665700E+02  1.233630000E-03
  2.983738900E+01  9.493409996E-03
  9.394038000E+00  4.293961998E-02
  3.405104000E+00  1.362925399E-01
  1.350000000E+00  2.921362499E-01
  5.576960000E-01  3.887887598E-01
  2.324490000E-01  2.946801399E-01
  9.426400000E-02  8.012875997E-02
  3.299200000E-02  5.405199998E-04
 
[MO]
Sym=     1a  
Ene=   -15.6380
Spin= Alpha
Occup=    1.00000
   1        -0.00006700
   2        -0.00056427
   3        -0.00000000
   4        -0.00000000
   5        -0.00026771
   6         0.99998802
   7        -0.00743642
   8        -0.00000000
   9         0.00000000
  10        -0.00095177
Sym=     1a  
Ene=   -15.6900
Spin= Beta
Occup=    1.00000
   1        -0.00014791
   2        -0.00108889
   3        -0.00000000
   4        -0.00000000
   5        -0.00097830
   6         1.00003805
   7        -0.00385364
   8        -0.00000000
   9         0.00000000
  10        -0.00137087
Sym=     2a  
Ene=   -11.2810
Spin= Alpha
Occup=    1.00000
   1         1.00002125
   2         0.00108246
   3        -0.00000000
   4         0.00000000
   5         0.00020575
   6        -0.00017159
   7        -0.00086866
   8        -0.00000000
   9         0.00000000
  10         0.00036633
Sym=     2a  
Ene=   -11.2140
Spin= Beta
Occup=    1.00000
   1         0.99999427
   2        -0.00442753
   3        -0.00000000
   4         0.00000000
   5         0.00046079
   6        -0.00007502
   7        -0.00035458
   8         0.00000000
   9        -0.00000000
  10        -0.00000805
Sym=     3a  
Ene=    -0.9612
Spin= Alpha
Occup=    1.00000
   1        -0.01164698
   2         0.60182576
   3        -0.00000000
   4         0.00000000
   5         0.04738723
   6        -0.00496185
   7         0.64733428
   8         0.00000000
   9        -0.00000000
  10        -0.10432856
Sym=     3a  
Ene=    -1.1094
Spin= Beta
Occup=    1.00000
   1        -0.01260784
   2         0.10295206
   3        -0.00000000
   4         0.00000000
   5         0.05645522
   6         0.00091779
   7         0.95402526
   8        -0.00000000
   9         0.00000000
  10        -0.05235596
Sym=     4a  
Ene=    -0.7795
Spin= Alpha
Occup=    1.00000
   1        -0.00358900
   2        -0.72745759
   3         0.00000000
   4        -0.00000000
   5         0.21174125
   6         0.00917124
   7         0.69053263
   8         0.00000000
   9        -0.00000000
  10         0.16128774
Sym=     4a  
Ene=    -0.5724
Spin= Beta
Occup=    1.00000
   1        -0.00000000
   2         0.00000000
   3         0.04105533
   4        -0.02965053
   5         0.00000000
   6        -0.00000000
   7        -0.00000000
   8         0.80439548
   9        -0.58094170
  10        -0.00000000
Sym=     5a  
Ene=    -0.4694
Spin= Alpha
Occup=    1.00000
   1         0.01808867
   2         0.22657390
   3         0.00000000
   4         0.00000000
   5        -0.53679235
   6         0.01509878
   7         0.20623595
   8         0.00000000
   9        -0.00000000
  10         0.74236211
Sym=     5a  
Ene=    -0.5724
Spin= Beta
Occup=    1.00000
   1         0.00000000
   2        -0.00000000
   3         0.02965053
   4         0.04105533
   5        -0.00000000
   6         0.00000000
   7         0.00000000
   8         0.58094170
   9         0.80439548
  10         0.00000000
Sym=     6a  
Ene=    -0.4294
Spin= Alpha
Occup=    1.00000
   1         0.00000000
   2         0.00000000
   3        -0.63474607
   4         0.74200448
   5        -0.00000000
   6         0.00000000
   7         0.00000000
   8        -0.08072526
   9         0.09436609
  10         0.00000000
Sym=     6a  
Ene=    -0.5299
Spin= Beta
Occup=    1.00000
   1         0.00369757
   2        -0.77487772
   3         0.00000000
   4        -0.00000000
   5        -0.22201711
   6         0.01969679
   7         0.35337470
   8         0.00000000
   9        -0.00000000
  10         0.41764630
Sym=     7a  
Ene=    -0.4294
Spin= Alpha
Occup=    1.00000
   1        -0.00000000
   2        -0.00000000
   3         0.74200448
   4         0.63474607
   5         0.00000000
   6        -0.00000000
   7        -0.00000000
   8         0.09436609
   9         0.08072526
  10        -0.00000000
Sym=     7a  
Ene=     0.0399
Spin= Beta
Occup=    0.00000
   1         0.02267508
   2         0.68180672
   3         0.00000000
   4        -0.00000000
   5        -0.38060337
   6         0.00241388
   7        -0.01620766
   8        -0.00000000
   9        -0.00000000
  10         0.70553612
Sym=     8a  
Ene=     0.1844
Spin= Alpha
Occup=    0.00000
   1         0.00000000
   2         0.00000000
   3        -0.25138034
   4        -0.00774884
   5         0.00000000
   6        -0.00000000
   7        -0.00000000
   8         1.00017663
   9         0.03083061
  10         0.00000000
Sym=     8a  
Ene=     0.2579
Spin= Beta
Occup=    0.00000
   1         0.00000000
   2         0.00000000
   3        -1.00646850
   4        -0.03437748
   5        -0.00000000
   6        -0.00000000
   7        -0.00000000
   8         0.17928328
   9         0.00612370
  10         0.00000000
Sym=     9a  
Ene=     0.1844
Spin= Alpha
Occup=    0.00000
   1        -0.00000000
   2        -0.00000000
   3         0.00774884
   4        -0.25138034
   5        -0.00000000
   6         0.00000000
   7         0.00000000
   8        -0.03083061
   9         1.00017663
  10         0.00000000
Sym=     9a  
Ene=     0.2579
Spin= Beta
Occup=    0.00000
   1         0.00000000
   2        -0.00000000
   3         0.03437748
   4        -1.00646850
   5         0.00000000
   6        -0.00000000
   7        -0.00000000
   8        -0.00612370
   9         0.17928328
  10         0.00000000
Sym=    10a  
Ene=     0.2611
Spin= Alpha
Occup=    0.00000
   1         0.02701424
   2         0.43496084
   3         0.00000000
   4        -0.00000000
   5         0.92046924
   6        -0.03673454
   7        -0.46615050
   8        -0.00000000
   9         0.00000000
  10         0.75513515
Sym=    10a  
Ene=     0.3905
Spin= Beta
Occup=    0.00000
   1         0.02393015
   2         0.23664558
   3        -0.00000000
   4         0.00000000
   5         0.99254762
   6        -0.03451779
   7        -0.34705481
   8         0.00000000
   9        -0.00000000
  10         0.69518137
