[Molden Format]
[N_Atoms]
                     2
[Atoms] (AU)
C1          1      6           0.00000000      0.00000000      0.00000000
N2          2      7           0.00000000      0.00000000      3.40150702
[Charge] (Mulliken)
  0.167208952833914     
 -0.167208952833915     
[GTO] (AU)
   1
   s  14
  5.055750100E+04  1.128874000E-04
  7.524785600E+03  5.295373000E-04
  1.694327600E+03  2.450038300E-03
  4.728227900E+02  1.005398470E-02
  1.517107500E+02  3.545398060E-02
  5.391874600E+01  1.044071086E-01
  2.065931100E+01  2.412894918E-01
  8.383976000E+00  3.834225483E-01
  3.577015000E+00  3.078514393E-01
  1.547118000E+00  6.872442990E-02
  6.130130000E-01  2.224445000E-04
  2.460680000E-01  1.976748900E-03
  9.908700000E-02  2.057859400E-03
  3.468000000E-02  4.182020000E-04
   s  14
  5.055750100E+04 -2.507420000E-05
  7.524785600E+03 -1.175945000E-04
  1.694327600E+03 -5.456275000E-04
  4.728227900E+02 -2.245077100E-03
  1.517107500E+02 -8.043471800E-03
  5.391874600E+01 -2.442588710E-02
  2.065931100E+01 -6.136791180E-02
  8.383976000E+00 -1.177767835E-01
  3.577015000E+00 -1.550487783E-01
  1.547118000E+00 -1.933316860E-02
  6.130130000E-01  3.996930678E-01
  2.460680000E-01  5.589420949E-01
  9.908700000E-02  1.711195023E-01
  3.468000000E-02  7.456244600E-03
   p   9
  8.333315500E+01  1.344656000E-03
  1.955761100E+01  1.023555500E-02
  6.080365000E+00  4.520067100E-02
  2.179317000E+00  1.410756198E-01
  8.651500000E-01  3.047388085E-01
  3.619440000E-01  3.995281011E-01
  1.547400000E-01  2.719163432E-01
  6.542900000E-02  5.857669330E-02
  2.290000000E-02 -1.263813000E-04
 
   2
   s  14
  7.476171500E+04  1.182599996E-04
  1.112365400E+04  5.172899983E-04
  2.512685700E+03  2.266659992E-03
  7.037772900E+02  9.145289970E-03
  2.254787900E+02  3.239342989E-02
  7.961581000E+01  9.770792967E-02
  3.023728300E+01  2.317036792E-01
  1.226362200E+01  3.768898887E-01
  5.265086000E+00  3.177420689E-01
  2.333471000E+00  8.211308973E-02
  9.018560000E-01  3.312089989E-03
  3.583360000E-01  3.720819988E-03
  1.410930000E-01  3.165419989E-03
  4.938300000E-02  4.595799985E-04
   s  14
  7.476171500E+04 -2.707000010E-05
  1.112365400E+04 -1.183700004E-04
  2.512685700E+03 -5.203800020E-04
  7.037772900E+02 -2.102930008E-03
  2.254787900E+02 -7.568200028E-03
  7.961581000E+01 -2.346767009E-02
  3.023728300E+01 -6.042901023E-02
  1.226362200E+01 -1.170549104E-01
  5.265086000E+00 -1.555321506E-01
  2.333471000E+00 -2.468935009E-02
  9.018560000E-01  3.625054514E-01
  3.583360000E-01  5.550845021E-01
  1.410930000E-01  2.148376908E-01
  4.938300000E-02  8.983850034E-03
   p   9
  1.266665700E+02  1.233630000E-03
  2.983738900E+01  9.493409996E-03
  9.394038000E+00  4.293961998E-02
  3.405104000E+00  1.362925399E-01
  1.350000000E+00  2.921362499E-01
  5.576960000E-01  3.887887598E-01
  2.324490000E-01  2.946801399E-01
  9.426400000E-02  8.012875997E-02
  3.299200000E-02  5.405199998E-04
 
[MO]
Sym=     1a  
Ene=   -15.5520
Spin= Alpha
Occup=    1.00000
   1        -0.00008419
   2        -0.00080255
   3        -0.00000000
   4         0.00000000
   5        -0.00062783
   6         1.00001602
   7        -0.00537010
   8        -0.00000000
   9         0.00000000
  10        -0.00094121
Sym=     1a  
Ene=   -15.5520
Spin= Beta
Occup=    1.00000
   1        -0.00008419
   2        -0.00080255
   3        -0.00000000
   4         0.00000000
   5        -0.00062783
   6         1.00001602
   7        -0.00537010
   8        -0.00000000
   9         0.00000000
  10        -0.00094121
Sym=     2a  
Ene=   -11.4070
Spin= Alpha
Occup=    1.00000
   1         1.00000399
   2        -0.00290736
   3        -0.00000000
   4         0.00000000
   5         0.00074413
   6        -0.00013806
   7        -0.00047790
   8        -0.00000000
   9         0.00000000
  10         0.00008673
Sym=     2a  
Ene=   -11.4070
Spin= Beta
Occup=    1.00000
   1         1.00000399
   2        -0.00290736
   3        -0.00000000
   4         0.00000000
   5         0.00074413
   6        -0.00013806
   7        -0.00047790
   8        -0.00000000
   9         0.00000000
  10         0.00008673
Sym=     3a  
Ene=    -0.9843
Spin= Alpha
Occup=    1.00000
   1        -0.01067072
   2         0.37903397
   3        -0.00000000
   4         0.00000000
   5         0.09567118
   6        -0.00363483
   7         0.81445783
   8        -0.00000000
   9         0.00000000
  10        -0.05894933
Sym=     3a  
Ene=    -0.9843
Spin= Beta
Occup=    1.00000
   1        -0.01067072
   2         0.37903397
   3        -0.00000000
   4         0.00000000
   5         0.09567118
   6        -0.00363483
   7         0.81445783
   8        -0.00000000
   9         0.00000000
  10        -0.05894933
Sym=     4a  
Ene=    -0.7071
Spin= Alpha
Occup=    1.00000
   1         0.00572032
   2         0.89398636
   3         0.00000000
   4        -0.00000000
   5        -0.07160016
   6        -0.01363048
   7        -0.54152045
   8        -0.00000000
   9         0.00000000
  10        -0.13606808
Sym=     4a  
Ene=    -0.7071
Spin= Beta
Occup=    1.00000
   1         0.00572032
   2         0.89398636
   3         0.00000000
   4        -0.00000000
   5        -0.07160016
   6        -0.01363048
   7        -0.54152045
   8        -0.00000000
   9         0.00000000
  10        -0.13606808
Sym=     5a  
Ene=    -0.3560
Spin= Alpha
Occup=    1.00000
   1        -0.00000000
   2        -0.00000000
   3        -0.50194195
   4        -0.04597238
   5         0.00000000
   6        -0.00000000
   7        -0.00000000
   8        -0.79810656
   9        -0.07309782
  10        -0.00000000
Sym=     5a  
Ene=    -0.3560
Spin= Beta
Occup=    1.00000
   1        -0.00000000
   2        -0.00000000
   3        -0.50194195
   4        -0.04597238
   5         0.00000000
   6        -0.00000000
   7        -0.00000000
   8        -0.79810656
   9        -0.07309782
  10        -0.00000000
Sym=     6a  
Ene=    -0.3560
Spin= Alpha
Occup=    1.00000
   1        -0.00000000
   2        -0.00000000
   3        -0.04597238
   4         0.50194195
   5         0.00000000
   6        -0.00000000
   7        -0.00000000
   8        -0.07309782
   9         0.79810656
  10        -0.00000000
Sym=     6a  
Ene=    -0.3560
Spin= Beta
Occup=    1.00000
   1        -0.00000000
   2        -0.00000000
   3        -0.04597238
   4         0.50194195
   5         0.00000000
   6        -0.00000000
   7        -0.00000000
   8        -0.07309782
   9         0.79810656
  10        -0.00000000
Sym=     7a  
Ene=    -0.2179
Spin= Alpha
Occup=    1.00000
   1         0.01178944
   2         0.16698183
   3        -0.00000000
   4         0.00000000
   5        -0.76109413
   6         0.02258010
   7         0.27869013
   8        -0.00000000
   9         0.00000000
  10         0.51717049
Sym=     7a  
Ene=    -0.2179
Spin= Beta
Occup=    0.00000
   1         0.01178944
   2         0.16698183
   3        -0.00000000
   4         0.00000000
   5        -0.76109413
   6         0.02258010
   7         0.27869013
   8        -0.00000000
   9         0.00000000
  10         0.51717049
Sym=     8a  
Ene=    -0.0000
Spin= Alpha
Occup=    0.00000
   1        -0.00000000
   2        -0.00000000
   3        -0.87322314
   4        -0.01214510
   5         0.00000000
   6        -0.00000000
   7        -0.00000000
   8         0.61182968
   9         0.00850954
  10        -0.00000000
Sym=     8a  
Ene=    -0.0000
Spin= Beta
Occup=    0.00000
   1        -0.00000000
   2        -0.00000000
   3        -0.87322314
   4        -0.01214510
   5         0.00000000
   6        -0.00000000
   7        -0.00000000
   8         0.61182968
   9         0.00850954
  10        -0.00000000
Sym=     9a  
Ene=     0.0469
Spin= Alpha
Occup=    0.00000
   1        -0.00000000
   2        -0.00000000
   3         0.01214510
   4        -0.87322314
   5        -0.00000000
   6         0.00000000
   7         0.00000000
   8        -0.00850954
   9         0.61182968
  10        -0.00000000
Sym=     9a  
Ene=     0.0469
Spin= Beta
Occup=    0.00000
   1        -0.00000000
   2        -0.00000000
   3         0.01214510
   4        -0.87322314
   5        -0.00000000
   6         0.00000000
   7         0.00000000
   8        -0.00850954
   9         0.61182968
  10        -0.00000000
Sym=    10a  
Ene=     0.3199
Spin= Alpha
Occup=    0.00000
   1        -0.03089408
   2        -0.40143062
   3         0.00000000
   4         0.00000000
   5        -0.76742745
   6         0.03035274
   7         0.34853893
   8         0.00000000
   9        -0.00000000
  10        -0.93208050
Sym=    10a  
Ene=     0.3199
Spin= Beta
Occup=    0.00000
   1        -0.03089408
   2        -0.40143062
   3         0.00000000
   4         0.00000000
   5        -0.76742745
   6         0.03035274
   7         0.34853893
   8         0.00000000
   9        -0.00000000
  10        -0.93208050
