[Molden Format]
[N_Atoms]
                     2
[Atoms] (AU)
C1          1      6           0.00000000      0.00000000      0.00000000
N2          2      7           0.00000000      0.00000000      3.40150702
[Charge] (Mulliken)
  0.165868808975818     
 -0.165868808975844     
[GTO] (AU)
   1
   s  14
  5.055750100E+04  1.128874000E-04
  7.524785600E+03  5.295373000E-04
  1.694327600E+03  2.450038300E-03
  4.728227900E+02  1.005398470E-02
  1.517107500E+02  3.545398060E-02
  5.391874600E+01  1.044071086E-01
  2.065931100E+01  2.412894918E-01
  8.383976000E+00  3.834225483E-01
  3.577015000E+00  3.078514393E-01
  1.547118000E+00  6.872442990E-02
  6.130130000E-01  2.224445000E-04
  2.460680000E-01  1.976748900E-03
  9.908700000E-02  2.057859400E-03
  3.468000000E-02  4.182020000E-04
   s  14
  5.055750100E+04 -2.507420000E-05
  7.524785600E+03 -1.175945000E-04
  1.694327600E+03 -5.456275000E-04
  4.728227900E+02 -2.245077100E-03
  1.517107500E+02 -8.043471800E-03
  5.391874600E+01 -2.442588710E-02
  2.065931100E+01 -6.136791180E-02
  8.383976000E+00 -1.177767835E-01
  3.577015000E+00 -1.550487783E-01
  1.547118000E+00 -1.933316860E-02
  6.130130000E-01  3.996930678E-01
  2.460680000E-01  5.589420949E-01
  9.908700000E-02  1.711195023E-01
  3.468000000E-02  7.456244600E-03
   p   9
  8.333315500E+01  1.344656000E-03
  1.955761100E+01  1.023555500E-02
  6.080365000E+00  4.520067100E-02
  2.179317000E+00  1.410756198E-01
  8.651500000E-01  3.047388085E-01
  3.619440000E-01  3.995281011E-01
  1.547400000E-01  2.719163432E-01
  6.542900000E-02  5.857669330E-02
  2.290000000E-02 -1.263813000E-04
 
   2
   s  14
  7.476171500E+04  1.182599996E-04
  1.112365400E+04  5.172899983E-04
  2.512685700E+03  2.266659992E-03
  7.037772900E+02  9.145289970E-03
  2.254787900E+02  3.239342989E-02
  7.961581000E+01  9.770792967E-02
  3.023728300E+01  2.317036792E-01
  1.226362200E+01  3.768898887E-01
  5.265086000E+00  3.177420689E-01
  2.333471000E+00  8.211308973E-02
  9.018560000E-01  3.312089989E-03
  3.583360000E-01  3.720819988E-03
  1.410930000E-01  3.165419989E-03
  4.938300000E-02  4.595799985E-04
   s  14
  7.476171500E+04 -2.707000010E-05
  1.112365400E+04 -1.183700004E-04
  2.512685700E+03 -5.203800020E-04
  7.037772900E+02 -2.102930008E-03
  2.254787900E+02 -7.568200028E-03
  7.961581000E+01 -2.346767009E-02
  3.023728300E+01 -6.042901023E-02
  1.226362200E+01 -1.170549104E-01
  5.265086000E+00 -1.555321506E-01
  2.333471000E+00 -2.468935009E-02
  9.018560000E-01  3.625054514E-01
  3.583360000E-01  5.550845021E-01
  1.410930000E-01  2.148376908E-01
  4.938300000E-02  8.983850034E-03
   p   9
  1.266665700E+02  1.233630000E-03
  2.983738900E+01  9.493409996E-03
  9.394038000E+00  4.293961998E-02
  3.405104000E+00  1.362925399E-01
  1.350000000E+00  2.921362499E-01
  5.576960000E-01  3.887887598E-01
  2.324490000E-01  2.946801399E-01
  9.426400000E-02  8.012875997E-02
  3.299200000E-02  5.405199998E-04
 
[MO]
Sym=     1a  
Ene=   -15.5370
Spin= Alpha
Occup=    1.00000
   1        -0.00046371
   2         0.00028435
   3        -0.00001793
   4        -0.00003998
   5        -0.00794613
   6         1.00018041
   7        -0.00516430
   8        -0.00002608
   9        -0.00006116
  10         0.00386174
Sym=     1a  
Ene=   -15.5370
Spin= Beta
Occup=    1.00000
   1        -0.00046371
   2         0.00028435
   3        -0.00001793
   4        -0.00003998
   5        -0.00794613
   6         1.00018041
   7        -0.00516430
   8        -0.00002608
   9        -0.00006116
  10         0.00386174
Sym=     2a  
Ene=   -11.3850
Spin= Alpha
Occup=    1.00000
   1         1.00013301
   2        -0.00099961
   3        -0.00002631
   4        -0.00005889
   5        -0.00942091
   6         0.00052951
   7        -0.00050439
   8        -0.00003851
   9        -0.00008999
  10         0.00793506
Sym=     2a  
Ene=   -11.3850
Spin= Beta
Occup=    1.00000
   1         1.00013301
   2        -0.00099961
   3        -0.00002631
   4        -0.00005889
   5        -0.00942091
   6         0.00052951
   7        -0.00050439
   8        -0.00003851
   9        -0.00008999
  10         0.00793506
Sym=     3a  
Ene=    -0.9316
Spin= Alpha
Occup=    1.00000
   1        -0.00663675
   2         0.43389503
   3        -0.00052680
   4        -0.00118659
   5        -0.09005492
   6         0.00157785
   7         0.84139851
   8        -0.00078668
   9        -0.00182216
  10         0.08076151
Sym=     3a  
Ene=    -0.9316
Spin= Beta
Occup=    1.00000
   1        -0.00663675
   2         0.43389503
   3        -0.00052680
   4        -0.00118659
   5        -0.09005492
   6         0.00157785
   7         0.84139851
   8        -0.00078668
   9        -0.00182216
  10         0.08076151
Sym=     4a  
Ene=    -0.7109
Spin= Alpha
Occup=    1.00000
   1        -0.00408078
   2        -0.86705927
   3        -0.00005300
   4        -0.00011994
   5         0.05350319
   6         0.01397814
   7         0.55214382
   8        -0.00008579
   9        -0.00017128
  10         0.19317234
Sym=     4a  
Ene=    -0.7109
Spin= Beta
Occup=    1.00000
   1        -0.00408078
   2        -0.86705927
   3        -0.00005300
   4        -0.00011994
   5         0.05350319
   6         0.01397814
   7         0.55214382
   8        -0.00008579
   9        -0.00017128
  10         0.19317234
Sym=     5a  
Ene=    -0.3507
Spin= Alpha
Occup=    1.00000
   1         0.00011894
   2         0.00198721
   3         0.19917190
   4         0.47008204
   5        -0.00648939
   6         0.00018771
   7         0.00242856
   8         0.31085854
   9         0.73368133
  10         0.00491887
Sym=     5a  
Ene=    -0.3507
Spin= Beta
Occup=    1.00000
   1         0.00011894
   2         0.00198721
   3         0.19917190
   4         0.47008204
   5        -0.00648939
   6         0.00018771
   7         0.00242856
   8         0.31085854
   9         0.73368133
  10         0.00491887
Sym=     6a  
Ene=    -0.4567
Spin= Alpha
Occup=    1.00000
   1         0.00128449
   2         0.12702661
   3        -0.00182163
   4        -0.00407265
   5        -0.73683098
   6         0.01140236
   7         0.02389925
   8        -0.00266937
   9        -0.00622572
  10         0.53855785
Sym=     6a  
Ene=    -0.4567
Spin= Beta
Occup=    1.00000
   1         0.00128449
   2         0.12702661
   3        -0.00182163
   4        -0.00407265
   5        -0.73683098
   6         0.01140236
   7         0.02389925
   8        -0.00266937
   9        -0.00622572
  10         0.53855785
Sym=     7a  
Ene=     0.0000
Spin= Alpha
Occup=    1.00000
   1        -0.00000150
   2        -0.00001700
   3        -0.14831462
   4         0.06284043
   5         0.00001706
   6        -0.00000030
   7        -0.00001343
   8        -0.88991493
   9         0.37705477
  10        -0.00006025
Sym=     7a  
Ene=     0.0000
Spin= Beta
Occup=    0.00000
   1        -0.00000150
   2        -0.00001700
   3        -0.14831462
   4         0.06284043
   5         0.00001706
   6        -0.00000030
   7        -0.00001343
   8        -0.88991493
   9         0.37705477
  10        -0.00006025
Sym=     8a  
Ene=     0.0549
Spin= Alpha
Occup=    0.00000
   1        -0.00000132
   2        -0.00001473
   3        -0.33921961
   4        -0.80061678
   5         0.00007273
   6        -0.00000221
   7        -0.00002412
   8         0.24104354
   9         0.56890435
  10        -0.00005316
Sym=     8a  
Ene=     0.0549
Spin= Beta
Occup=    0.00000
   1        -0.00000132
   2        -0.00001473
   3        -0.33921961
   4        -0.80061678
   5         0.00007273
   6        -0.00000221
   7        -0.00002412
   8         0.24104354
   9         0.56890435
  10        -0.00005316
Sym=     9a  
Ene=     0.0888
Spin= Alpha
Occup=    0.00000
   1        -0.00000210
   2        -0.00003206
   3        -0.91650702
   4         0.38832212
   5         0.00003509
   6        -0.00000078
   7        -0.00000571
   8         0.26463933
   9        -0.11212705
  10        -0.00007414
Sym=     9a  
Ene=     0.0888
Spin= Beta
Occup=    0.00000
   1        -0.00000210
   2        -0.00003206
   3        -0.91650702
   4         0.38832212
   5         0.00003509
   6        -0.00000078
   7        -0.00000571
   8         0.26463933
   9        -0.11212705
  10        -0.00007414
Sym=    10a  
Ene=     0.2791
Spin= Alpha
Occup=    0.00000
   1        -0.03032121
   2        -0.41918906
   3         0.00004462
   4         0.00001021
   5        -0.79271891
   6         0.03119549
   7         0.37728550
   8         0.00003539
   9         0.00003318
  10        -0.90787950
Sym=    10a  
Ene=     0.2791
Spin= Beta
Occup=    0.00000
   1        -0.03032121
   2        -0.41918906
   3         0.00004462
   4         0.00001021
   5        -0.79271891
   6         0.03119549
   7         0.37728550
   8         0.00003539
   9         0.00003318
  10        -0.90787950
