[Molden Format]
[N_Atoms]
                     2
[Atoms] (AU)
B1          1      5           0.00000000      0.00000000      0.00000000
C2          2      6           0.00000000      0.00000000      3.40150702
[Charge] (Mulliken)
  0.109431436787570     
 -0.109431436787581     
[GTO] (AU)
   1
   s  14
  3.336021700E+04  1.039699991E-04
  4.972095200E+03  5.254399956E-04
  1.125641700E+03  2.509059979E-03
  3.164913600E+02  1.031887991E-02
  1.020072600E+02  3.636632969E-02
  3.629587300E+01  1.064607991E-01
  1.397141000E+01  2.403999880E-01
  5.741156000E+00  3.748581168E-01
  2.494268000E+00  3.100066974E-01
  1.114202000E+00  7.922455933E-02
  4.215490000E-01 -4.947589958E-03
  1.696330000E-01 -7.737119935E-03
  6.853500000E-02 -1.501079987E-03
  2.398700000E-02 -1.333299989E-04
   s  14
  3.336021700E+04 -2.030000008E-05
  4.972095200E+03 -1.025700004E-04
  1.125641700E+03 -4.911300020E-04
  3.164913600E+02 -2.026570008E-03
  1.020072600E+02 -7.261010030E-03
  3.629587300E+01 -2.197722009E-02
  1.397141000E+01 -5.408428022E-02
  5.741156000E+00 -1.022402604E-01
  2.494268000E+00 -1.423595206E-01
  1.114202000E+00 -4.658690019E-02
  4.215490000E-01  3.799402916E-01
  1.696330000E-01  5.890463624E-01
  6.853500000E-02  1.749075107E-01
  2.398700000E-02 -1.142030005E-03
   p   9
  5.500000000E+01  1.229800005E-03
  1.336610100E+01  8.827380035E-03
  4.135394000E+00  3.843340015E-02
  1.481256000E+00  1.150031805E-01
  6.021360000E-01  2.733674011E-01
  2.556360000E-01  4.061972116E-01
  1.111510000E-01  3.014967912E-01
  4.764800000E-02  7.684809030E-02
  1.667700000E-02 -8.170000032E-06
 
   2
   s  14
  5.055750100E+04  1.128874000E-04
  7.524785600E+03  5.295373000E-04
  1.694327600E+03  2.450038300E-03
  4.728227900E+02  1.005398470E-02
  1.517107500E+02  3.545398060E-02
  5.391874600E+01  1.044071086E-01
  2.065931100E+01  2.412894918E-01
  8.383976000E+00  3.834225483E-01
  3.577015000E+00  3.078514393E-01
  1.547118000E+00  6.872442990E-02
  6.130130000E-01  2.224445000E-04
  2.460680000E-01  1.976748900E-03
  9.908700000E-02  2.057859400E-03
  3.468000000E-02  4.182020000E-04
   s  14
  5.055750100E+04 -2.507420000E-05
  7.524785600E+03 -1.175945000E-04
  1.694327600E+03 -5.456275000E-04
  4.728227900E+02 -2.245077100E-03
  1.517107500E+02 -8.043471800E-03
  5.391874600E+01 -2.442588710E-02
  2.065931100E+01 -6.136791180E-02
  8.383976000E+00 -1.177767835E-01
  3.577015000E+00 -1.550487783E-01
  1.547118000E+00 -1.933316860E-02
  6.130130000E-01  3.996930678E-01
  2.460680000E-01  5.589420949E-01
  9.908700000E-02  1.711195023E-01
  3.468000000E-02  7.456244600E-03
   p   9
  8.333315500E+01  1.344656000E-03
  1.955761100E+01  1.023555500E-02
  6.080365000E+00  4.520067100E-02
  2.179317000E+00  1.410756198E-01
  8.651500000E-01  3.047388085E-01
  3.619440000E-01  3.995281011E-01
  1.547400000E-01  2.719163432E-01
  6.542900000E-02  5.857669330E-02
  2.290000000E-02 -1.263813000E-04
 
[MO]
Sym=     1a  
Ene=   -11.2660
Spin= Alpha
Occup=    1.00000
   1        -0.00017265
   2        -0.00121643
   3        -0.00000023
   4         0.00000065
   5        -0.00072159
   6         1.00007240
   7        -0.00164021
   8         0.00000011
   9        -0.00000033
  10        -0.00161150
Sym=     1a  
Ene=   -11.2660
Spin= Beta
Occup=    1.00000
   1        -0.00017265
   2        -0.00121643
   3        -0.00000023
   4         0.00000065
   5        -0.00072159
   6         1.00007240
   7        -0.00164021
   8         0.00000011
   9        -0.00000033
  10        -0.00161150
Sym=     2a  
Ene=    -7.7080
Spin= Alpha
Occup=    1.00000
   1         0.99990926
   2         0.01428668
   3         0.00000005
   4        -0.00000014
   5         0.00140512
   6        -0.00019318
   7        -0.00043616
   8        -0.00000043
   9         0.00000123
  10         0.00002375
Sym=     2a  
Ene=    -7.7080
Spin= Beta
Occup=    1.00000
   1         0.99990926
   2         0.01428668
   3         0.00000005
   4        -0.00000014
   5         0.00140512
   6        -0.00019318
   7        -0.00043616
   8        -0.00000043
   9         0.00000123
  10         0.00002375
Sym=     3a  
Ene=    -0.7826
Spin= Alpha
Occup=    1.00000
   1        -0.03024934
   2         0.33695628
   3         0.00000271
   4        -0.00000775
   5         0.14554658
   6        -0.01588509
   7         0.75658931
   8        -0.00001325
   9         0.00003738
  10        -0.12193272
Sym=     3a  
Ene=    -0.7826
Spin= Beta
Occup=    1.00000
   1        -0.03024934
   2         0.33695628
   3         0.00000271
   4        -0.00000775
   5         0.14554658
   6        -0.01588509
   7         0.75658931
   8        -0.00001325
   9         0.00003738
  10        -0.12193272
Sym=     4a  
Ene=    -0.4619
Spin= Alpha
Occup=    1.00000
   1         0.00989256
   2        -0.85281783
   3        -0.00000211
   4         0.00000616
   5         0.13799692
   6         0.01757691
   7         0.55919461
   8         0.00000925
   9        -0.00002540
  10         0.23001092
Sym=     4a  
Ene=    -0.4619
Spin= Beta
Occup=    1.00000
   1         0.00989256
   2        -0.85281783
   3        -0.00000211
   4         0.00000616
   5         0.13799692
   6         0.01757691
   7         0.55919461
   8         0.00000925
   9        -0.00002540
  10         0.23001092
Sym=     5a  
Ene=    -0.3167
Spin= Alpha
Occup=    1.00000
   1        -0.00000002
   2        -0.00000058
   3        -0.39879617
   4        -0.14097876
   5         0.00000059
   6        -0.00000002
   7        -0.00000016
   8        -0.77401363
   9        -0.27362220
  10        -0.00000060
Sym=     5a  
Ene=    -0.3167
Spin= Beta
Occup=    1.00000
   1        -0.00000002
   2        -0.00000058
   3        -0.39879617
   4        -0.14097876
   5         0.00000059
   6        -0.00000002
   7        -0.00000016
   8        -0.77401363
   9        -0.27362220
  10        -0.00000060
Sym=     6a  
Ene=     0.3093
Spin= Alpha
Occup=    0.00000
   1        -0.04461312
   2        -0.52875718
   3         0.04830384
   4        -0.13647586
   5        -0.84152720
   6         0.06216944
   7         0.56907690
   8         0.17047547
   9        -0.48234329
  10        -0.74449443
Sym=     6a  
Ene=     0.3093
Spin= Beta
Occup=    0.00000
   1        -0.04461312
   2        -0.52875718
   3         0.04830384
   4        -0.13647586
   5        -0.84152720
   6         0.06216944
   7         0.56907690
   8         0.17047547
   9        -0.48234329
  10        -0.74449443
Sym=     7a  
Ene=    -0.0001
Spin= Alpha
Occup=    1.00000
   1         0.02399081
   2         0.33001812
   3        -0.00001332
   4         0.00003657
   5        -0.59419021
   6         0.02528616
   7         0.29690387
   8         0.00003891
   9        -0.00011253
  10         0.67786692
Sym=     7a  
Ene=    -0.0001
Spin= Beta
Occup=    0.00000
   1         0.02399081
   2         0.33001812
   3        -0.00001332
   4         0.00003657
   5        -0.59419021
   6         0.02528616
   7         0.29690387
   8         0.00003891
   9        -0.00011253
  10         0.67786692
Sym=     8a  
Ene=     0.1018
Spin= Alpha
Occup=    0.00000
   1         0.01915893
   2         0.22708189
   3         0.29989342
   4        -0.84951186
   5         0.36141573
   6        -0.02669959
   7        -0.24439626
   8         0.04113608
   9        -0.11558893
  10         0.31970852
Sym=     8a  
Ene=     0.1018
Spin= Beta
Occup=    0.00000
   1         0.01915893
   2         0.22708189
   3         0.29989342
   4        -0.84951186
   5         0.36141573
   6        -0.02669959
   7        -0.24439626
   8         0.04113608
   9        -0.11558893
  10         0.31970852
Sym=     9a  
Ene=     0.1208
Spin= Alpha
Occup=    0.00000
   1        -0.00000952
   2        -0.00011279
   3        -0.87856170
   4        -0.31016021
   5        -0.00017964
   6         0.00001327
   7         0.00012143
   8         0.57583745
   9         0.20353957
  10        -0.00015887
Sym=     9a  
Ene=     0.1208
Spin= Beta
Occup=    0.00000
   1        -0.00000952
   2        -0.00011279
   3        -0.87856170
   4        -0.31016021
   5        -0.00017964
   6         0.00001327
   7         0.00012143
   8         0.57583745
   9         0.20353957
  10        -0.00015887
Sym=    10a  
Ene=     0.2317
Spin= Alpha
Occup=    0.00000
   1        -0.02332412
   2        -0.27647500
   3         0.15428884
   4        -0.43659246
   5        -0.44010190
   6         0.03251243
   7         0.29758428
   8        -0.29247815
   9         0.82744793
  10        -0.38918253
Sym=    10a  
Ene=     0.2317
Spin= Beta
Occup=    0.00000
   1        -0.02332412
   2        -0.27647500
   3         0.15428884
   4        -0.43659246
   5        -0.44010190
   6         0.03251243
   7         0.29758428
   8        -0.29247815
   9         0.82744793
  10        -0.38918253
