*******************************************************************************************
*** WorkDir at /lustre/isaac/scratch/gjones39/ANO-RCC-VTZP/ozone_107.50/3189720 cleaned ***
*******************************************************************************************
   This run of MOLCAS is using the pymolcas driver

                             OPE
                             OPE          NMOL  CASOP  ENMOLC A   SO
                 OPE        NMOLC        AS  OP EN  MO LC     AS  OP
                OPENM       OL CA        SO  PE NM  OL CA     SOP EN
                OP EN      MO   LC       AS  OP ENMOL  CASO   PENMOL
                OP  EN     MO   LC       AS  OP EN     MO     LC ASO
               OP   E  NMOL  C  AS       OP  EN MO     LC     AS  OP
               OP  E   NMO   LC AS        OPEN  MO     LCASOP EN   M
               O  PEN   MO  LCA  SO
            OPE   NMO   L   CAS    OP
        OPENMOL  CASOP     ENMOL   CASOPE
     OPENMOLCA   SOPENMOLCASOPEN   MOLCASOPE
    OPENMOLCAS   OP           EN   MOL    CAS
    OPENMOLCAS       OP  ENM        O     LCA
    OPENMOLCAS    OPEN  MOLCASO     P  E  NMO
    OPENMOLCAS     OP               E  N  MOL
    OPENMOLCA   SO           PENM   O  L  CAS    OPEN    MO    LCAS
    OPENMOLCA   SOP           ENM   O  L  CAS   OP  EN  MOLC  AS   O
    OPENMOLCA   SOPE           NM      O  LCA   S      OP  EN MO
    OPENMOLC                AS         O  PEN   M      OL  CA  SOPE
    OPENMO        LCASOPE  NMOL        C  ASO   P      ENMOLC     AS
    OPE     NMO      LCA  SO     P     E   NM   OL  CA SO  PE N   MO
          OPENMOLCA            SOPE   NMO        LCAS  O    P  ENMO
     OPENMOLCASOPENMOLCASOPENMOLCASOPENMOLCA
        OPENMOLCASOPENMOLCASOPENMOLCASOPE
            OPENMOLCASOPENMOLCASOPENM
               OPENMOLCASOPENMOLCA        version: f37762c57-dirty
                   OPENMOLCASO
                       OPE                tag:

 OpenMolcas is free software; you can redistribute it and/or modify it
 under the terms of the GNU Lesser General Public License version 2.1.
 OpenMolcas is distributed in the hope that it will be useful, but it
 is provided "as is" and without any express or implied warranties.
 For more details see the full text of the license in the file
 LICENSE or in <http://www.gnu.org/licenses/>.

                 Copyright (C) The OpenMolcas Authors
           For the author list and the recommended citation,
                   consult the file CONTRIBUTORS.md

           *************************************************
           * pymolcas version py2.05                       *
           *   build c53fbf9a0f911de0c7c16766b0715e61      *
           *   (after the EMIL interpreter by V. Veryazov) *
           *************************************************

configuration info
------------------
C Compiler ID: GNU
C flags: -std=gnu99
Fortran Compiler ID: Intel
Fortran flags: -fpp -i8 -r8 -heap-arrays
Definitions: _MOLCAS_;_I8_;_LINUX_
Parallel: OFF (GA=OFF)


   ---------------------------------------------------------------------------------------
  |
  |              Project: ozone_107.50
  |       Submitted from: /lustre/isaac/scratch/gjones39/ANO-RCC-VTZP/ozone_107.50
  |         Scratch area: /lustre/isaac/scratch/gjones39/ANO-RCC-VTZP/ozone_107.50/3189720
  |      Save outputs to: /lustre/isaac/scratch/gjones39/ANO-RCC-VTZP/ozone_107.50
  |               Molcas: /lustre/isaac/proj/UTK0022/Grier2025/Test/build
  |
  | Scratch area is empty
  |
  |       MOLCAS_DRIVER = /nfs/home/gjones39/bin/pymolcas
  | MOLCAS_KEEP_WORKDIR = NO
  |      MOLCAS_MAXITER = 100
  |  MOLCAS_NEW_WORKDIR = YES
  |       MOLCAS_NPROCS = 1
  |       MOLCAS_SOURCE = /lustre/isaac/proj/UTK0022/Grier2025/Test
  |    MOLCAS_STRUCTURE = 0
  |
   ---------------------------------------------------------------------------------------

++ ---------   Input file   ---------

&GATEWAY
coord=ozone_107.50.xyz
Basis = ANO-RCC-VTZP
Group = nosymm
End of Input

&SEWARD
End of Input

&SCF
FileOrb
/lustre/isaac/scratch/gjones39/ANO-RCC-VTZP/ozone_107.25/ozone_107.25.ScfOrb

>>> COPY $WorkDir/ozone_107.50.scf.h5 $CurrDir/

&RASSCF
Title= RASSCF
ITERation
200 100
CIMX
200
SDAV
500
FileOrb
/lustre/isaac/scratch/gjones39/ANO-RCC-VTZP/ozone_107.25/ozone_107.25.RasOrb
CIROOT
3 3 1
NACTEL
12 0 0
Inactive
6
RAS2
9
Symmetry
1
Spin
1
orblisting
all

>>> COPY $WorkDir/ozone_107.50.rasscf.h5 $CurrDir/

>>> COPY $WorkDir/GMJ_Fock_MO.csv $CurrDir/ozone_107.50.GMJ_Fock_MO.csv

&MOTRA
Frozen=0
LUMORB

>>> COPY $WorkDir/GMJ_one_int_indx.csv $CurrDir/ozone_107.50.GMJ_one_int_indx.csv

>>> COPY $WorkDir/GMJ_one_int.csv $CurrDir/ozone_107.50.GMJ_one_int.csv

>>> COPY $WorkDir/GMJ_two_int_indx.csv $CurrDir/ozone_107.50.GMJ_two_int_indx.csv

>>> COPY $WorkDir/GMJ_two_int.csv $CurrDir/ozone_107.50.GMJ_two_int.csv

&CASPT2

Multistate
ALL

Frozen
0

MAXITER
50

>>> FOREACH k IN (1,2,3)

  >>> FOREACH i IN (B,E,F,G,H)

    >>> FOREACH j IN (P,M)

      >>> IF (-FILE GMJ_e2_${i}_${j}_${k}_.csv)

        >>> COPY $WorkDir/GMJ_RHS_${i}_${j}_${k}_.csv $CurrDir/GMJ_RHS_${i}_${j}_${k}_.csv

        >>> COPY $WorkDir/GMJ_IVECW_${i}_${j}_${k}_.csv $CurrDir/GMJ_IVECW_${i}_${j}_${k}_.csv

        >>> COPY $WorkDir/GMJ_IVECX_${i}_${j}_${k}_.csv $CurrDir/GMJ_IVECX_${i}_${j}_${k}_.csv

        >>> COPY $WorkDir/GMJ_IVECC2_${i}_${j}_${k}_.csv $CurrDir/GMJ_IVECC2_${i}_${j}_${k}_.csv

        >>> COPY $WorkDir/GMJ_e2_${i}_${j}_${k}_.csv $CurrDir/GMJ_e2_${i}_${j}_${k}_.csv

      >>> END IF

    >>> END FOREACH

  >>> END FOREACH

>>> END FOREACH

>>> FOREACH j IN (1,2,3)

  >>> FOREACH i IN (A,C,D)

    >>> IF (-FILE GMJ_e2_${i}_${j}_.csv)

      >>> COPY $WorkDir/GMJ_RHS_${i}_${j}_.csv $CurrDir/GMJ_RHS_${i}_${j}_.csv

      >>> COPY $WorkDir/GMJ_IVECW_${i}_${j}_.csv $CurrDir/GMJ_IVECW_${i}_${j}_.csv

      >>> COPY $WorkDir/GMJ_IVECX_${i}_${j}_.csv $CurrDir/GMJ_IVECX_${i}_${j}_.csv

      >>> COPY $WorkDir/GMJ_IVECC2_${i}_${j}_.csv $CurrDir/GMJ_IVECC2_${i}_${j}_.csv

      >>> COPY $WorkDir/GMJ_e2_${i}_${j}_.csv $CurrDir/GMJ_e2_${i}_${j}_.csv

    >>> END IF

  >>> END FOREACH

>>> END FOREACH

-- ----------------------------------

--- Start Module: gateway at Tue Apr 29 12:30:06 2025 ---
 
()()()()()()()()()()()()()()()()()()()()()()()()()()()()()()()()()()()()()()()()()()()()()()()()()()

                                              &GATEWAY

                                   only a single process is used
                       available to each process: 62 GB of memory, 1 thread?
()()()()()()()()()()()()()()()()()()()()()()()()()()()()()()()()()()()()()()()()()()()()()()()()()()
 
 
++    Symmetry information:
      ---------------------
 
                    Character Table for C1 
 
                             E  
                    a        1  x, y, xy, Rz, z, xz, Ry, yz, Rx, I
--
 
 
++    Basis set information:
      ----------------------
 
 
      Basis set label: O.ANO-RCC...4S3P2D1F.
 
      Electronic valence basis set:
      ------------------
      Associated Effective Charge   8.000000 au
      Associated Actual Charge      8.000000 au
      Nuclear Model: Point charge
 
      Shell  nPrim  nBasis  Cartesian Spherical Contaminant
         s      14       4        X                  
         p       9       3        X                  
         d       4       2                 X         
         f       3       1                 X         
--
 
 
++    Molecular structure info:
      -------------------------
 
                    ************************************************ 
                    **** Cartesian Coordinates / Bohr, Angstrom **** 
                    ************************************************ 
 
     Center  Label                x              y              z                     x              y              z
        1      O1               1.428055       1.947620       0.000000              0.755694       1.030636       0.000000
        2      O2               0.000000       0.000000       0.000000              0.000000       0.000000       0.000000
        3      O3               1.428055      -1.947620       0.000000              0.755694      -1.030636       0.000000
 
                    *************************************** 
                    *    InterNuclear Distances / Bohr    * 
                    *************************************** 
 
               1 O1            2 O2            3 O3    
    1 O1       0.000000
    2 O2       2.415070        0.000000
    3 O3       3.895240        2.415070        0.000000
 
                    ******************************************* 
                    *    InterNuclear Distances / Angstrom    * 
                    ******************************************* 
 
               1 O1            2 O2            3 O3    
    1 O1       0.000000
    2 O2       1.278000        0.000000
    3 O3       2.061272        1.278000        0.000000
 
                    ************************************** 
                    *    Valence Bond Angles / Degree    * 
                    ************************************** 
                          Atom centers                 Phi
                      1 O1       2 O2       3 O3       107.50
--
 
 
            Nuclear Potential Energy             69.43084634 au
 
--- Stop Module: gateway at Tue Apr 29 12:30:13 2025 /rc=_RC_ALL_IS_WELL_ ---
*** files: xmldump
    saved to directory /lustre/isaac/scratch/gjones39/ANO-RCC-VTZP/ozone_107.50
--- Module gateway spent 6 seconds ---

--- Start Module: seward at Tue Apr 29 12:30:13 2025 ---
 
()()()()()()()()()()()()()()()()()()()()()()()()()()()()()()()()()()()()()()()()()()()()()()()()()()

                                              &SEWARD

                                   only a single process is used
                       available to each process: 62 GB of memory, 1 thread?
()()()()()()()()()()()()()()()()()()()()()()()()()()()()()()()()()()()()()()()()()()()()()()()()()()
 
               SEWARD will generate:
                  Multipole Moment integrals up to order  2
                  Kinetic Energy integrals
                  Nuclear Attraction integrals (point charge)
                  One-Electron Hamiltonian integrals
                  Velocity integrals
                  Relativistic Douglas-Kroll-Hess integrals:
                    - Parametrization         : EXP
                    - DKH order of Hamiltonian: 2
                    - DKH order of Properties : 0
                         - multipole moment operators
                         - electric potential operators
                         - contact operators
                  Atomic mean-field integrals
                  Two-Electron Repulsion integrals
 
                   Integrals are discarded if absolute value <: 0.10E-13
                   Integral cutoff threshold is set to       <: 0.10E-15
 
            Nuclear Potential Energy             69.43084634 au
 
 
      Basis set specifications :
      Symmetry species         a  
      Basis functions           90
 
 
  Input file to MOLDEN was generated!
 
--- Stop Module: seward at Tue Apr 29 12:30:25 2025 /rc=_RC_ALL_IS_WELL_ ---
*** files: ozone_107.50.GssOrb ozone_107.50.guessorb.h5 ozone_107.50.guessorb.molden xmldump
    saved to directory /lustre/isaac/scratch/gjones39/ANO-RCC-VTZP/ozone_107.50
--- Module seward spent 11 seconds ---

*** symbolic link created: INPORB -> ozone_107.50.GssOrb
--- Start Module: scf at Tue Apr 29 12:30:25 2025 ---
 
()()()()()()()()()()()()()()()()()()()()()()()()()()()()()()()()()()()()()()()()()()()()()()()()()()

                                                &SCF

                                   only a single process is used
                       available to each process: 62 GB of memory, 1 thread?
()()()()()()()()()()()()()()()()()()()()()()()()()()()()()()()()()()()()()()()()()()()()()()()()()()
 
++    Input section:
      --------------
 
      Header of the integral files:
      
       Integrals generated by seward 4.2.0  , Tue Apr 29 12:30:14 2025
 
 
      Cartesian coordinates in Angstrom:
      -----------------------------------------------------
      No.  Label        X            Y            Z        
      -----------------------------------------------------
       1   O1         0.75569400   1.03063600   0.00000000
       2   O2         0.00000000   0.00000000   0.00000000
       3   O3         0.75569400  -1.03063600   0.00000000
      -----------------------------------------------------
      Nuclear repulsion energy =   69.43084634
--
 
++    Orbital specifications:
      -----------------------
 
      Symmetry species               1
                                     a
      Frozen orbitals                0
      Occupied orbitals             12
      Secondary orbitals            78
      Deleted orbitals               0
      Total number of orbitals      90
      Number of basis functions     90
--
 
      Molecular charge                           0.000
 
++    Optimization specifications:
      ----------------------------
 
      SCF Algorithm: Conventional
      Minimized density differences are used
      Number of density matrices in core                5
      Maximum number of NDDO SCF iterations           400
      Maximum number of HF SCF iterations             400
      Threshold for SCF energy change            0.10E-08
      Threshold for density matrix               0.10E-03
      Threshold for Fock matrix                  0.15E-03
      Threshold for linear dependence            0.10E-08
      Threshold at which DIIS is turned on       0.15E+00
      Threshold at which QNR/C2DIIS is turned on 0.75E-01
      Threshold for Norm(delta) (QNR/C2DIIS)     0.20E-04
      DIIS extrapolation of the SCF procedure
      All orbitals punched on: SCFORB
--
 
      Input vectors read from INPORB
      Orbital file label: * SCF orbitals
 
 
++ Convergence information
                                   SCF        iterations: Energy and convergence statistics
 
Iter     Tot. SCF        One-elec.       Two-elec.     Energy      Max Dij or  Max Fij      DNorm      TNorm      AccCon     Time
         Energy          Energy          Energy        Change      Delta Norm                                                in Sec.
   1  -224.505588854  -446.556436699   152.620001506   0.00E+00    0.99E-03*   0.50E-03*    0.75E+01   0.11E+03   None         0.
   2  -224.505594372  -446.556546397   152.620105686  -0.55E-05*   0.51E-03*   0.28E-03*    0.73E-02   0.11E+03   EDIIS        0.
   3  -224.505595474  -446.557114075   152.620672261  -0.11E-05*   0.55E-03*   0.23E-03*    0.16E-02   0.11E+03   c2DIIS       0.
   4  -224.505595730  -446.556101396   152.619659327  -0.26E-06*   0.44E-03*   0.20E-03*    0.14E-02   0.11E+03   QNRc2DIIS    0.
   5  -224.505595747  -446.557582121   152.621140035  -0.16E-07*   0.22E-03*   0.22E-03*    0.45E-03   0.11E+03   QNRc2DIIS    0.
   6  -224.505595984  -446.556831537   152.620389214  -0.24E-06*   0.11E-03*   0.25E-04     0.43E-04   0.11E+03   QNRc2DIIS    0.
   7  -224.505595994  -446.556832289   152.620389956  -0.10E-07*   0.14E-05    0.10E-05     0.35E-04   0.11E+03   QNRc2DIIS    0.
   8  -224.505595994  -446.556825615   152.620383282  -0.97E-11    0.34E-05    0.79E-06     0.51E-03   0.11E+03   QNRc2DIIS    0.
 
       Convergence after  8 Macro Iterations
--
 
 *****************************************************************************************************************************
 *                                                                                                                           *
 *                                             SCF/KS-DFT Program, Final results                                             *
 *                                                                                                                           *
 *                                                                                                                           *
 *                                                                                                                           *
 *                                                       Final Results                                                       *
 *                                                                                                                           *
 *****************************************************************************************************************************
 
::    Total SCF energy                               -224.5055959942
      One-electron energy                            -446.5568256147
      Two-electron energy                             152.6203832817
      Nuclear repulsion energy                         69.4308463388
      Kinetic energy (interpolated)                   225.1154397438
      Virial theorem                                    0.9972909732
      Total spin, S(S+1)                                0.0000000000
      Total spin, S                                     0.0000000000
      Max non-diagonal density matrix element           0.0000054852
      Max non-diagonal Fock matrix element              0.0000012150
 
 
      All orbitals with orbital energies smaller than  E(LUMO)+0.5 are printed
 
++    Molecular orbitals:
      -------------------
 
      Title: SCF orbitals

      Molecular orbitals for symmetry species 1: a  
 
          Orbital            1         2         3         4         5         6         7         8         9        10    
          Energy          -20.9382  -20.7186  -20.7185   -1.7566   -1.4142   -1.1078   -0.8301   -0.7939   -0.7819   -0.5701
          Occ. No.          2.0000    2.0000    2.0000    2.0000    2.0000    2.0000    2.0000    2.0000    2.0000    2.0000
 
        1 O1     1s         0.0022   -0.7060    0.7067   -0.0141    0.0112    0.0083   -0.0145   -0.0232   -0.0000    0.0051
        2 O1     2s         0.0040    0.0048   -0.0052    0.3319   -0.5812    0.5666   -0.3052   -0.4273   -0.0000    0.0359
        3 O1     3s         0.0023    0.0036   -0.0036   -0.0118    0.0181    0.0140   -0.0312   -0.0527   -0.0000    0.0151
        4 O1     4s         0.0004    0.0007   -0.0007   -0.0010    0.0040    0.0022   -0.0059   -0.0113    0.0000    0.0039
        5 O1     2px       -0.0012   -0.0015    0.0014   -0.0626    0.0698    0.1100    0.0840   -0.3473   -0.0000    0.6160
        6 O1     3px       -0.0008   -0.0015    0.0014    0.0125   -0.0097   -0.0180   -0.0004    0.0324    0.0000   -0.0013
        7 O1     4px        0.0002    0.0008   -0.0009    0.0026   -0.0002    0.0009    0.0001    0.0025    0.0000   -0.0062
        8 O1     2py       -0.0022   -0.0020    0.0021   -0.1044    0.0553    0.0567   -0.3755   -0.2177   -0.0000   -0.1970
        9 O1     3py       -0.0012   -0.0021    0.0020    0.0168   -0.0120   -0.0095    0.0390    0.0324    0.0000   -0.0125
       10 O1     4py        0.0006    0.0012   -0.0012    0.0003   -0.0035    0.0011    0.0028    0.0025    0.0000    0.0007
       11 O1     2pz        0.0000    0.0000    0.0000   -0.0000    0.0000    0.0000   -0.0000   -0.0000    0.3659    0.0000
       12 O1     3pz       -0.0000    0.0000   -0.0000   -0.0000    0.0000    0.0000   -0.0000    0.0000   -0.0199   -0.0000
       13 O1     4pz       -0.0000   -0.0000   -0.0000   -0.0000   -0.0000   -0.0000    0.0000    0.0000   -0.0067   -0.0000
       14 O1     3d2-       0.0005    0.0011   -0.0011    0.0193   -0.0154   -0.0114    0.0133    0.0288    0.0000   -0.0151
       15 O1     4d2-       0.0002    0.0005   -0.0006    0.0024   -0.0019   -0.0009    0.0015    0.0026    0.0000   -0.0016
       16 O1     3d1-       0.0000    0.0000    0.0000    0.0000    0.0000   -0.0000    0.0000    0.0000   -0.0248   -0.0000
       17 O1     4d1-      -0.0000    0.0000    0.0000    0.0000   -0.0000   -0.0000    0.0000    0.0000   -0.0032    0.0000
       18 O1     3d0       -0.0003   -0.0005    0.0005   -0.0104    0.0086    0.0027   -0.0100   -0.0147   -0.0000    0.0054
       19 O1     4d0       -0.0002   -0.0005    0.0004   -0.0001    0.0010   -0.0002   -0.0004   -0.0011   -0.0000    0.0002
       20 O1     3d1+       0.0000   -0.0000    0.0000   -0.0000   -0.0000   -0.0000    0.0000    0.0000   -0.0197    0.0000
       21 O1     4d1+       0.0000    0.0000    0.0000   -0.0000   -0.0000   -0.0000   -0.0000    0.0000   -0.0038    0.0000
       22 O1     3d2+      -0.0004   -0.0004    0.0003   -0.0077    0.0012   -0.0022   -0.0220    0.0014   -0.0000   -0.0043
       23 O1     4d2+      -0.0002   -0.0002    0.0002   -0.0002    0.0005    0.0003   -0.0014    0.0006   -0.0000   -0.0016
       24 O1     4f3-       0.0001   -0.0001    0.0001   -0.0012    0.0028    0.0025    0.0040   -0.0050   -0.0000    0.0036
       25 O1     4f2-      -0.0000   -0.0000   -0.0000   -0.0000    0.0000    0.0000   -0.0000   -0.0000    0.0068   -0.0000
       26 O1     4f1-       0.0000    0.0001   -0.0001    0.0029   -0.0023   -0.0003    0.0023    0.0028    0.0000   -0.0015
       27 O1     4f0       -0.0000    0.0000    0.0000   -0.0000    0.0000    0.0000    0.0000    0.0000   -0.0038    0.0000
       28 O1     4f1+       0.0000    0.0001   -0.0001    0.0020   -0.0020   -0.0008    0.0011    0.0023    0.0000   -0.0002
       29 O1     4f2+       0.0000    0.0000   -0.0000   -0.0000   -0.0000   -0.0000   -0.0000    0.0000   -0.0021   -0.0000
       30 O1     4f3+       0.0001    0.0002   -0.0002    0.0061   -0.0042   -0.0013    0.0060    0.0050    0.0000   -0.0020
       31 O2     1s         0.9989   -0.0000   -0.0007   -0.0267    0.0000   -0.0172   -0.0079    0.0000   -0.0000    0.0182
       32 O2     2s        -0.0077    0.0000    0.0105    0.6139   -0.0000   -0.6847   -0.0841    0.0000   -0.0000    0.2244
       33 O2     3s        -0.0054    0.0000    0.0060   -0.0641    0.0000   -0.0123   -0.0117    0.0000   -0.0000    0.0429
       34 O2     4s        -0.0012    0.0000    0.0010   -0.0111    0.0000   -0.0033   -0.0034    0.0000   -0.0000    0.0106
       35 O2     2px       -0.0022    0.0000    0.0040    0.1194   -0.0000    0.2688    0.6372    0.0000    0.0000   -0.4596
       36 O2     3px       -0.0028    0.0000    0.0025   -0.0395    0.0000   -0.0373   -0.0638   -0.0000   -0.0000    0.0039
       37 O2     4px        0.0018   -0.0000   -0.0009   -0.0022    0.0000    0.0008   -0.0091   -0.0000    0.0000   -0.0000
       38 O2     2py        0.0000   -0.0051    0.0000   -0.0000   -0.3277    0.0000   -0.0000    0.5769    0.0000   -0.0000
       39 O2     3py        0.0000   -0.0030    0.0000   -0.0000    0.0606   -0.0000    0.0000   -0.0558   -0.0000   -0.0000
       40 O2     4py       -0.0000    0.0012   -0.0000    0.0000   -0.0012   -0.0000    0.0000   -0.0095   -0.0000    0.0000
       41 O2     2pz        0.0000    0.0000    0.0000    0.0000    0.0000    0.0000   -0.0000   -0.0000    0.6955   -0.0000
       42 O2     3pz        0.0000    0.0000    0.0000    0.0000    0.0000   -0.0000    0.0000    0.0000   -0.0451    0.0000
       43 O2     4pz       -0.0000   -0.0000   -0.0000   -0.0000   -0.0000   -0.0000    0.0000    0.0000   -0.0157    0.0000
       44 O2     3d2-       0.0000   -0.0015    0.0000   -0.0000   -0.0439    0.0000   -0.0000    0.0325    0.0000   -0.0000
       45 O2     4d2-       0.0000   -0.0007    0.0000   -0.0000   -0.0050    0.0000   -0.0000    0.0033   -0.0000   -0.0000
       46 O2     3d1-      -0.0000    0.0000    0.0000    0.0000    0.0000    0.0000   -0.0000   -0.0000   -0.0000    0.0000
       47 O2     4d1-      -0.0000    0.0000    0.0000    0.0000    0.0000   -0.0000   -0.0000   -0.0000   -0.0000    0.0000
       48 O2     3d0        0.0007   -0.0000   -0.0010   -0.0160    0.0000   -0.0077   -0.0156   -0.0000    0.0000    0.0169
       49 O2     4d0        0.0007   -0.0000   -0.0005    0.0004    0.0000   -0.0006   -0.0013    0.0000    0.0000    0.0018
       50 O2     3d1+       0.0000    0.0000    0.0000    0.0000    0.0000    0.0000   -0.0000   -0.0000    0.0359   -0.0000
       51 O2     4d1+       0.0000    0.0000    0.0000    0.0000    0.0000    0.0000   -0.0000   -0.0000    0.0058    0.0000
       52 O2     3d2+       0.0001   -0.0000   -0.0005   -0.0048   -0.0000    0.0033    0.0242    0.0000    0.0000    0.0391
       53 O2     4d2+      -0.0001   -0.0000   -0.0003   -0.0001   -0.0000   -0.0001    0.0031    0.0000   -0.0000    0.0086
       54 O2     4f3-       0.0000   -0.0001    0.0000   -0.0000   -0.0018   -0.0000   -0.0000   -0.0022   -0.0000   -0.0000
       55 O2     4f2-      -0.0000   -0.0000    0.0000   -0.0000    0.0000    0.0000   -0.0000   -0.0000   -0.0000    0.0000
       56 O2     4f1-      -0.0000    0.0001   -0.0000    0.0000    0.0048   -0.0000    0.0000   -0.0040   -0.0000    0.0000
       57 O2     4f0       -0.0000   -0.0000   -0.0000   -0.0000   -0.0000   -0.0000    0.0000    0.0000   -0.0065    0.0000
       58 O2     4f1+       0.0002   -0.0000   -0.0001   -0.0039    0.0000   -0.0009   -0.0029   -0.0000    0.0000   -0.0000
       59 O2     4f2+      -0.0000   -0.0000   -0.0000    0.0000   -0.0000   -0.0000    0.0000    0.0000   -0.0033    0.0000
       60 O2     4f3+       0.0001   -0.0000   -0.0002   -0.0085   -0.0000   -0.0003   -0.0016    0.0000    0.0000    0.0072
       61 O3     1s         0.0022    0.7068    0.7060   -0.0141   -0.0112    0.0083   -0.0145    0.0232    0.0000    0.0051
       62 O3     2s         0.0040   -0.0049   -0.0052    0.3319    0.5812    0.5666   -0.3052    0.4273    0.0000    0.0359
       63 O3     3s         0.0023   -0.0036   -0.0036   -0.0118   -0.0181    0.0140   -0.0312    0.0527    0.0000    0.0151
       64 O3     4s         0.0004   -0.0007   -0.0007   -0.0010   -0.0040    0.0022   -0.0059    0.0113    0.0000    0.0039
       65 O3     2px       -0.0012    0.0015    0.0014   -0.0626   -0.0698    0.1100    0.0840    0.3473    0.0000    0.6160
       66 O3     3px       -0.0008    0.0015    0.0014    0.0125    0.0097   -0.0180   -0.0004   -0.0324   -0.0000   -0.0013
       67 O3     4px        0.0002   -0.0008   -0.0009    0.0026    0.0002    0.0009    0.0001   -0.0025   -0.0000   -0.0062
       68 O3     2py        0.0022   -0.0020   -0.0021    0.1044    0.0553   -0.0567    0.3755   -0.2177   -0.0000    0.1970
       69 O3     3py        0.0012   -0.0021   -0.0020   -0.0168   -0.0120    0.0095   -0.0390    0.0324    0.0000    0.0125
       70 O3     4py       -0.0006    0.0012    0.0012   -0.0003   -0.0035   -0.0011   -0.0028    0.0025    0.0000   -0.0007
       71 O3     2pz        0.0000    0.0000    0.0000   -0.0000    0.0000   -0.0000   -0.0000   -0.0000    0.3659   -0.0000
       72 O3     3pz        0.0000    0.0000    0.0000   -0.0000   -0.0000   -0.0000    0.0000    0.0000   -0.0199    0.0000
       73 O3     4pz        0.0000    0.0000    0.0000   -0.0000   -0.0000   -0.0000    0.0000    0.0000   -0.0067    0.0000
       74 O3     3d2-      -0.0005    0.0011    0.0011   -0.0193   -0.0154    0.0114   -0.0133    0.0288    0.0000    0.0151
       75 O3     4d2-      -0.0002    0.0005    0.0006   -0.0024   -0.0019    0.0009   -0.0015    0.0026    0.0000    0.0016
       76 O3     3d1-      -0.0000    0.0000    0.0000   -0.0000    0.0000   -0.0000   -0.0000   -0.0000    0.0248   -0.0000
       77 O3     4d1-       0.0000   -0.0000   -0.0000    0.0000   -0.0000   -0.0000    0.0000   -0.0000    0.0032    0.0000
       78 O3     3d0       -0.0003    0.0005    0.0005   -0.0104   -0.0086    0.0027   -0.0100    0.0147    0.0000    0.0054
       79 O3     4d0       -0.0002    0.0005    0.0004   -0.0001   -0.0010   -0.0002   -0.0004    0.0011    0.0000    0.0002
       80 O3     3d1+       0.0000    0.0000    0.0000   -0.0000   -0.0000    0.0000    0.0000    0.0000   -0.0197    0.0000
       81 O3     4d1+       0.0000    0.0000   -0.0000    0.0000    0.0000    0.0000    0.0000    0.0000   -0.0038    0.0000
       82 O3     3d2+      -0.0004    0.0004    0.0003   -0.0077   -0.0012   -0.0022   -0.0220   -0.0014   -0.0000   -0.0043
       83 O3     4d2+      -0.0002    0.0002    0.0002   -0.0002   -0.0005    0.0003   -0.0014   -0.0006   -0.0000   -0.0016
       84 O3     4f3-      -0.0001   -0.0001   -0.0001    0.0012    0.0028   -0.0025   -0.0040   -0.0050   -0.0000   -0.0036
       85 O3     4f2-       0.0000    0.0000    0.0000   -0.0000   -0.0000    0.0000    0.0000    0.0000   -0.0068    0.0000
       86 O3     4f1-      -0.0000    0.0001    0.0001   -0.0029   -0.0023    0.0003   -0.0023    0.0028    0.0000    0.0015
       87 O3     4f0        0.0000   -0.0000    0.0000   -0.0000   -0.0000    0.0000    0.0000    0.0000   -0.0038    0.0000
       88 O3     4f1+       0.0000   -0.0001   -0.0001    0.0020    0.0020   -0.0008    0.0011   -0.0023   -0.0000   -0.0002
       89 O3     4f2+       0.0000   -0.0000    0.0000   -0.0000   -0.0000   -0.0000    0.0000    0.0000   -0.0021    0.0000
       90 O3     4f3+       0.0001   -0.0002   -0.0002    0.0061    0.0042   -0.0013    0.0060   -0.0050   -0.0000   -0.0020
 
          Orbital           11        12        13        14        15        16        17        18        19        20    
          Energy           -0.5473   -0.4809   -0.0522    0.1715    0.1749    0.2369    0.3048    0.3409    0.3798    0.3913
          Occ. No.          2.0000    2.0000    0.0000    0.0000    0.0000    0.0000    0.0000    0.0000    0.0000    0.0000
 
        1 O1     1s         0.0045   -0.0000   -0.0000   -0.1491   -0.1820   -0.0000   -0.0068   -0.0173    0.0722    0.0000
        2 O1     2s         0.0218    0.0000   -0.0000   -1.0670   -1.3654   -0.0000    0.0570   -0.0086    0.4010    0.0000
        3 O1     3s         0.0151   -0.0000    0.0000   -0.6267   -0.7909   -0.0000   -0.1101   -0.0445    0.4599   -0.0000
        4 O1     4s         0.0038   -0.0000    0.0000   -0.1330   -0.1797   -0.0000   -0.0388   -0.0063    0.1346   -0.0000
        5 O1     2px       -0.4867    0.0000   -0.0000    0.3175    0.5365    0.0000   -0.3206   -0.3149    0.2373   -0.0000
        6 O1     3px       -0.0197    0.0000   -0.0000    0.3933    0.4462    0.0000    0.0501   -0.7242    0.7869    0.0000
        7 O1     4px        0.0020    0.0000   -0.0000    0.0739    0.0357    0.0000    0.0819   -0.2829    0.2883    0.0000
        8 O1     2py        0.5657   -0.0000   -0.0000    0.6988    0.4890    0.0000   -0.4379   -0.3190   -0.1031   -0.0000
        9 O1     3py        0.0016   -0.0000    0.0000    0.5788    0.6585    0.0000   -0.5414   -0.1780   -0.1118    0.0000
       10 O1     4py       -0.0037   -0.0000    0.0000    0.0383    0.1172    0.0000   -0.2066   -0.0325    0.0198    0.0000
       11 O1     2pz        0.0000   -0.7146    0.6586   -0.0000   -0.0000   -0.1764    0.0000    0.0000    0.0000   -0.1999
       12 O1     3pz        0.0000   -0.0403    0.1593   -0.0000   -0.0000    0.2733   -0.0000    0.0000    0.0000   -0.9785
       13 O1     4pz        0.0000    0.0061    0.0242   -0.0000   -0.0000    0.1777   -0.0000    0.0000    0.0000   -0.3876
       14 O1     3d2-      -0.0061   -0.0000    0.0000   -0.0624   -0.0791   -0.0000    0.0023   -0.0041   -0.0292   -0.0000
       15 O1     4d2-      -0.0000   -0.0000    0.0000   -0.0420   -0.0488   -0.0000    0.0112    0.0143   -0.0271   -0.0000
       16 O1     3d1-       0.0000    0.0199    0.0058   -0.0000    0.0000    0.0229   -0.0000   -0.0000   -0.0000    0.0031
       17 O1     4d1-      -0.0000    0.0051   -0.0002   -0.0000    0.0000    0.0118   -0.0000   -0.0000   -0.0000    0.0114
       18 O1     3d0        0.0032    0.0000   -0.0000    0.0431    0.0555    0.0000    0.0130   -0.0009    0.0030    0.0000
       19 O1     4d0       -0.0001    0.0000   -0.0000    0.0264    0.0369    0.0000    0.0020   -0.0084    0.0112    0.0000
       20 O1     3d1+      -0.0000    0.0157    0.0054    0.0000    0.0000    0.0070    0.0000   -0.0000    0.0000    0.0166
       21 O1     4d1+      -0.0000    0.0038   -0.0004   -0.0000   -0.0000    0.0012    0.0000   -0.0000    0.0000    0.0148
       22 O1     3d2+       0.0164    0.0000   -0.0000    0.0430    0.0278   -0.0000    0.0380   -0.0049   -0.0530   -0.0000
       23 O1     4d2+       0.0031    0.0000   -0.0000    0.0275    0.0171   -0.0000    0.0128   -0.0015   -0.0330   -0.0000
       24 O1     4f3-      -0.0040    0.0000    0.0000   -0.0002    0.0021    0.0000   -0.0010   -0.0054    0.0134    0.0000
       25 O1     4f2-      -0.0000   -0.0052    0.0004   -0.0000   -0.0000    0.0021    0.0000    0.0000   -0.0000   -0.0047
       26 O1     4f1-      -0.0004   -0.0000   -0.0000   -0.0029   -0.0066    0.0000    0.0015    0.0043   -0.0029   -0.0000
       27 O1     4f0        0.0000    0.0014    0.0014    0.0000    0.0000   -0.0008   -0.0000   -0.0000   -0.0000    0.0066
       28 O1     4f1+      -0.0014   -0.0000   -0.0000   -0.0031   -0.0028    0.0000    0.0007    0.0053   -0.0036   -0.0000
       29 O1     4f2+      -0.0000    0.0013   -0.0005   -0.0000   -0.0000    0.0007   -0.0000   -0.0000   -0.0000    0.0018
       30 O1     4f3+      -0.0043   -0.0000    0.0000   -0.0051   -0.0078    0.0000    0.0055    0.0079   -0.0005   -0.0000
       31 O2     1s        -0.0000    0.0000   -0.0000    0.3107    0.0000   -0.0000   -0.0935   -0.0000   -0.0155   -0.0000
       32 O2     2s        -0.0000    0.0000   -0.0000    2.2511    0.0000   -0.0000   -0.7316   -0.0000   -0.1810   -0.0000
       33 O2     3s        -0.0000    0.0000   -0.0000    1.2703    0.0000   -0.0000   -0.2231   -0.0000   -0.0084   -0.0000
       34 O2     4s        -0.0000    0.0000   -0.0000    0.2722    0.0000   -0.0000   -0.0447   -0.0000    0.0280   -0.0000
       35 O2     2px        0.0000   -0.0000    0.0000    0.8801    0.0000   -0.0000   -0.3226   -0.0000   -0.7075   -0.0000
       36 O2     3px        0.0000    0.0000   -0.0000    0.9930    0.0000   -0.0000    0.3021   -0.0000   -1.5525   -0.0000
       37 O2     4px        0.0000   -0.0000   -0.0000    0.1512    0.0000    0.0000    0.1595   -0.0000   -0.4114   -0.0000
       38 O2     2py       -0.1506   -0.0000    0.0000   -0.0000    1.2552    0.0000    0.0000   -0.2125    0.0000   -0.0000
       39 O2     3py       -0.0106    0.0000    0.0000   -0.0000    1.1737    0.0000   -0.0000    0.5149   -0.0000    0.0000
       40 O2     4py       -0.0016   -0.0000    0.0000   -0.0000    0.1250    0.0000   -0.0000    0.2428   -0.0000   -0.0000
       41 O2     2pz       -0.0000   -0.0000   -0.8474    0.0000    0.0000    0.0576   -0.0000   -0.0000    0.0000   -0.0000
       42 O2     3pz       -0.0000   -0.0000   -0.1814    0.0000   -0.0000    0.4571   -0.0000   -0.0000    0.0000   -0.0000
       43 O2     4pz       -0.0000    0.0000   -0.0218    0.0000   -0.0000    0.2245   -0.0000   -0.0000    0.0000   -0.0000
       44 O2     3d2-      -0.0383    0.0000    0.0000   -0.0000    0.1403    0.0000   -0.0000    0.0917   -0.0000    0.0000
       45 O2     4d2-      -0.0069    0.0000    0.0000   -0.0000    0.0891    0.0000   -0.0000    0.0664   -0.0000    0.0000
       46 O2     3d1-       0.0000   -0.0554    0.0000    0.0000   -0.0000    0.0000    0.0000   -0.0000   -0.0000    0.0871
       47 O2     4d1-       0.0000   -0.0132    0.0000    0.0000   -0.0000    0.0000    0.0000   -0.0000   -0.0000    0.0525
       48 O2     3d0       -0.0000   -0.0000    0.0000   -0.0927   -0.0000    0.0000   -0.0560    0.0000    0.0765    0.0000
       49 O2     4d0       -0.0000   -0.0000    0.0000   -0.0606   -0.0000    0.0000   -0.0325    0.0000    0.0575    0.0000
       50 O2     3d1+       0.0000   -0.0000    0.0101    0.0000    0.0000   -0.0262    0.0000   -0.0000    0.0000   -0.0000
       51 O2     4d1+       0.0000   -0.0000    0.0021    0.0000    0.0000   -0.0080   -0.0000   -0.0000    0.0000   -0.0000
       52 O2     3d2+      -0.0000   -0.0000    0.0000   -0.0245   -0.0000   -0.0000   -0.0527   -0.0000   -0.0759   -0.0000
       53 O2     4d2+      -0.0000    0.0000    0.0000   -0.0094   -0.0000   -0.0000   -0.0191   -0.0000   -0.0551   -0.0000
       54 O2     4f3-      -0.0097    0.0000    0.0000    0.0000   -0.0012   -0.0000   -0.0000    0.0090   -0.0000    0.0000
       55 O2     4f2-       0.0000   -0.0091    0.0000   -0.0000    0.0000    0.0000   -0.0000   -0.0000   -0.0000    0.0092
       56 O2     4f1-       0.0010   -0.0000    0.0000    0.0000   -0.0068   -0.0000    0.0000   -0.0132    0.0000   -0.0000
       57 O2     4f0       -0.0000   -0.0000   -0.0019    0.0000    0.0000   -0.0042    0.0000    0.0000   -0.0000    0.0000
       58 O2     4f1+       0.0000   -0.0000    0.0000   -0.0092   -0.0000    0.0000   -0.0086    0.0000    0.0157    0.0000
       59 O2     4f2+       0.0000   -0.0000    0.0009    0.0000   -0.0000   -0.0009    0.0000    0.0000   -0.0000    0.0000
       60 O2     4f3+      -0.0000   -0.0000   -0.0000   -0.0120   -0.0000    0.0000   -0.0076    0.0000    0.0125    0.0000
       61 O3     1s        -0.0045   -0.0000    0.0000   -0.1491    0.1820    0.0000   -0.0068    0.0173    0.0722    0.0000
       62 O3     2s        -0.0218   -0.0000    0.0000   -1.0670    1.3654    0.0000    0.0570    0.0086    0.4010    0.0000
       63 O3     3s        -0.0151   -0.0000    0.0000   -0.6267    0.7909    0.0000   -0.1101    0.0445    0.4599    0.0000
       64 O3     4s        -0.0038   -0.0000    0.0000   -0.1330    0.1797    0.0000   -0.0388    0.0063    0.1346    0.0000
       65 O3     2px        0.4867    0.0000   -0.0000    0.3175   -0.5365   -0.0000   -0.3206    0.3149    0.2373    0.0000
       66 O3     3px        0.0197    0.0000   -0.0000    0.3933   -0.4462   -0.0000    0.0501    0.7242    0.7869    0.0000
       67 O3     4px       -0.0020    0.0000   -0.0000    0.0739   -0.0357   -0.0000    0.0819    0.2829    0.2883    0.0000
       68 O3     2py        0.5657    0.0000   -0.0000   -0.6988    0.4890    0.0000    0.4379   -0.3190    0.1031   -0.0000
       69 O3     3py        0.0016   -0.0000    0.0000   -0.5788    0.6585    0.0000    0.5414   -0.1780    0.1118    0.0000
       70 O3     4py       -0.0037   -0.0000    0.0000   -0.0383    0.1172    0.0000    0.2066   -0.0325   -0.0198    0.0000
       71 O3     2pz       -0.0000    0.7146    0.6586    0.0000    0.0000   -0.1764    0.0000   -0.0000   -0.0000    0.1999
       72 O3     3pz       -0.0000    0.0403    0.1593    0.0000   -0.0000    0.2733    0.0000   -0.0000   -0.0000    0.9785
       73 O3     4pz       -0.0000   -0.0061    0.0242    0.0000   -0.0000    0.1777    0.0000   -0.0000   -0.0000    0.3876
       74 O3     3d2-      -0.0061    0.0000   -0.0000    0.0624   -0.0791   -0.0000   -0.0023   -0.0041    0.0292   -0.0000
       75 O3     4d2-      -0.0000    0.0000   -0.0000    0.0420   -0.0488   -0.0000   -0.0112    0.0143    0.0271   -0.0000
       76 O3     3d1-      -0.0000    0.0199   -0.0058    0.0000    0.0000   -0.0229    0.0000   -0.0000   -0.0000    0.0031
       77 O3     4d1-      -0.0000    0.0051    0.0002    0.0000    0.0000   -0.0118    0.0000   -0.0000   -0.0000    0.0114
       78 O3     3d0       -0.0032    0.0000   -0.0000    0.0431   -0.0555   -0.0000    0.0130    0.0009    0.0030   -0.0000
       79 O3     4d0        0.0001    0.0000   -0.0000    0.0264   -0.0369   -0.0000    0.0020    0.0084    0.0112   -0.0000
       80 O3     3d1+       0.0000   -0.0157    0.0054    0.0000   -0.0000    0.0070    0.0000   -0.0000    0.0000   -0.0166
       81 O3     4d1+      -0.0000   -0.0038   -0.0004    0.0000   -0.0000    0.0012    0.0000    0.0000    0.0000   -0.0148
       82 O3     3d2+      -0.0164    0.0000   -0.0000    0.0430   -0.0278   -0.0000    0.0380    0.0049   -0.0530   -0.0000
       83 O3     4d2+      -0.0031    0.0000   -0.0000    0.0275   -0.0171   -0.0000    0.0128    0.0015   -0.0330   -0.0000
       84 O3     4f3-      -0.0040    0.0000    0.0000    0.0002    0.0021   -0.0000    0.0010   -0.0054   -0.0134   -0.0000
       85 O3     4f2-       0.0000   -0.0052   -0.0004    0.0000    0.0000   -0.0021    0.0000   -0.0000    0.0000   -0.0047
       86 O3     4f1-      -0.0004   -0.0000   -0.0000    0.0029   -0.0066   -0.0000   -0.0015    0.0043    0.0029   -0.0000
       87 O3     4f0        0.0000   -0.0014    0.0014   -0.0000    0.0000   -0.0008   -0.0000    0.0000    0.0000   -0.0066
       88 O3     4f1+       0.0014   -0.0000    0.0000   -0.0031    0.0028    0.0000    0.0007   -0.0053   -0.0036    0.0000
       89 O3     4f2+       0.0000   -0.0013   -0.0005   -0.0000    0.0000    0.0007   -0.0000    0.0000   -0.0000   -0.0018
       90 O3     4f3+       0.0043    0.0000   -0.0000   -0.0051    0.0078    0.0000    0.0055   -0.0079   -0.0005    0.0000
 
          Orbital           21        22    
          Energy            0.4074    0.4339
          Occ. No.          0.0000    0.0000
 
        1 O1     1s         0.0009   -0.0525
        2 O1     2s         0.0580   -0.2598
        3 O1     3s        -0.1798   -0.2390
        4 O1     4s        -0.0574   -0.0342
        5 O1     2px       -0.3570    0.0325
        6 O1     3px        0.1851    0.2436
        7 O1     4px        0.0916    0.0177
        8 O1     2py       -0.0451   -0.0678
        9 O1     3py        0.5821    0.7740
       10 O1     4py        0.1908    0.2383
       11 O1     2pz        0.0000   -0.0000
       12 O1     3pz        0.0000   -0.0000
       13 O1     4pz        0.0000   -0.0000
       14 O1     3d2-      -0.0815   -0.1543
       15 O1     4d2-      -0.0472   -0.0932
       16 O1     3d1-       0.0000    0.0000
       17 O1     4d1-       0.0000    0.0000
       18 O1     3d0        0.0721    0.0492
       19 O1     4d0        0.0455    0.0275
       20 O1     3d1+      -0.0000    0.0000
       21 O1     4d1+      -0.0000    0.0000
       22 O1     3d2+       0.0092    0.0605
       23 O1     4d2+       0.0153    0.0324
       24 O1     4f3-       0.0032    0.0004
       25 O1     4f2-       0.0000   -0.0000
       26 O1     4f1-      -0.0099   -0.0075
       27 O1     4f0       -0.0000    0.0000
       28 O1     4f1+      -0.0066   -0.0055
       29 O1     4f2+      -0.0000    0.0000
       30 O1     4f3+      -0.0069   -0.0173
       31 O2     1s        -0.0000    0.1802
       32 O2     2s        -0.0000    0.9540
       33 O2     3s        -0.0000    0.9734
       34 O2     4s        -0.0000    0.2166
       35 O2     2px        0.0000   -0.1421
       36 O2     3px       -0.0000    0.2474
       37 O2     4px        0.0000   -0.0478
       38 O2     2py       -0.8002   -0.0000
       39 O2     3py       -0.3364   -0.0000
       40 O2     4py       -0.1425   -0.0000
       41 O2     2pz        0.0000    0.0000
       42 O2     3pz        0.0000    0.0000
       43 O2     4pz        0.0000    0.0000
       44 O2     3d2-       0.1605    0.0000
       45 O2     4d2-       0.0549    0.0000
       46 O2     3d1-      -0.0000    0.0000
       47 O2     4d1-      -0.0000    0.0000
       48 O2     3d0        0.0000   -0.1629
       49 O2     4d0        0.0000   -0.0734
       50 O2     3d1+       0.0000    0.0000
       51 O2     4d1+       0.0000    0.0000
       52 O2     3d2+       0.0000   -0.0452
       53 O2     4d2+       0.0000   -0.0108
       54 O2     4f3-       0.0037    0.0000
       55 O2     4f2-      -0.0000   -0.0000
       56 O2     4f1-       0.0030    0.0000
       57 O2     4f0       -0.0000   -0.0000
       58 O2     4f1+       0.0000   -0.0065
       59 O2     4f2+      -0.0000   -0.0000
       60 O2     4f3+       0.0000   -0.0118
       61 O3     1s        -0.0009   -0.0525
       62 O3     2s        -0.0580   -0.2598
       63 O3     3s         0.1798   -0.2390
       64 O3     4s         0.0574   -0.0342
       65 O3     2px        0.3570    0.0325
       66 O3     3px       -0.1851    0.2436
       67 O3     4px       -0.0916    0.0177
       68 O3     2py       -0.0451    0.0678
       69 O3     3py        0.5821   -0.7740
       70 O3     4py        0.1908   -0.2383
       71 O3     2pz       -0.0000   -0.0000
       72 O3     3pz       -0.0000   -0.0000
       73 O3     4pz       -0.0000   -0.0000
       74 O3     3d2-      -0.0815    0.1543
       75 O3     4d2-      -0.0472    0.0932
       76 O3     3d1-      -0.0000   -0.0000
       77 O3     4d1-      -0.0000   -0.0000
       78 O3     3d0       -0.0721    0.0492
       79 O3     4d0       -0.0455    0.0275
       80 O3     3d1+       0.0000    0.0000
       81 O3     4d1+       0.0000    0.0000
       82 O3     3d2+      -0.0092    0.0605
       83 O3     4d2+      -0.0153    0.0324
       84 O3     4f3-       0.0032   -0.0004
       85 O3     4f2-       0.0000    0.0000
       86 O3     4f1-      -0.0099    0.0075
       87 O3     4f0        0.0000    0.0000
       88 O3     4f1+       0.0066   -0.0055
       89 O3     4f2+       0.0000    0.0000
       90 O3     4f3+       0.0069   -0.0173
--
 
 
++    Molecular charges:
      ------------------
 
      Mulliken charges per centre and basis function type
      ---------------------------------------------------
 
                O1      O2      O3    
      1s       1.9980  1.9978  1.9980
      2s       1.9422  1.7338  1.9422
      2px      1.5787  1.4743  1.5787
      2pz      1.3629  1.1989  1.3629
      2py      1.2568  1.0769  1.2568
      3s      -0.0011 -0.0197 -0.0011
      3px     -0.0105 -0.0085 -0.0105
      3pz     -0.0138 -0.0126 -0.0138
      3py      0.0031 -0.0016  0.0031
      4s       0.0045  0.0022  0.0045
      3d2+     0.0075  0.0380  0.0075
      3d1+     0.0059  0.0114  0.0059
      3d0      0.0055  0.0074  0.0055
      3d1-     0.0091  0.0414  0.0091
      3d2-     0.0201  0.0413  0.0201
      4px      0.0011  0.0022  0.0011
      4pz      0.0012  0.0016  0.0012
      4py      0.0018  0.0029  0.0018
      4d2+    -0.0004  0.0082 -0.0004
      4d1+     0.0011  0.0017  0.0011
      4d0     -0.0001 -0.0001 -0.0001
      4d1-     0.0005  0.0108  0.0005
      4d2-     0.0009  0.0034  0.0009
      4f3+     0.0030  0.0038  0.0030
      4f2+     0.0002  0.0003  0.0002
      4f1+     0.0005  0.0007  0.0005
      4f0      0.0009  0.0016  0.0009
      4f1-     0.0008  0.0011  0.0008
      4f2-     0.0020  0.0050  0.0020
      4f3-     0.0020  0.0072  0.0020
      Total    8.1842  7.6315  8.1842
 
      N-E     -0.1842  0.3685 -0.1842
 
      Total electronic charge=   24.000000
 
      Total            charge=   -0.000000
--
 
 
  Input file to MOLDEN was generated!
 
 
++    Static properties:
      ------------------
 
 
      LoProp Charges per center
 

                   O1       O2       O3    
      Nuclear      8.0000   8.0000   8.0000
      Electronic  -8.2089  -7.5822  -8.2089
 
      Total       -0.2089   0.4178  -0.2089
--
 
 
++    Natural Bond Order analysis
      ---------------------------
      Based on LoProp computed density
      -------------------------------------------------------------------------------------
      Atom A       Atom B       Bond Order | Atom A       Atom B       Bond Order
        O1           O2             1.998  |   O2           O3             1.998
      -------------------------------------------------------------------------------------
      NBO located      9.999 core electrons.
      NBO located      5.947 lone pair electrons.
      NBO located      7.992 electrons involved in    2 bonds.
      The remaining    0.062 electrons are to be considered as diffuse
--
 
 
++    Molecular properties:
      ---------------------
 
      Charge (e):
                      =   -0.0000
      Dipole Moment (Debye):
      Origin of the operator (Ang)=    0.0000    0.0000    0.0000
                   X= -9.6093E-01               Y=  1.9560E-06               Z= -2.4061E-13           Total=  9.6093E-01
      Quadrupole Moment (Debye*Ang):
      Origin of the operator (Ang)=    0.5038    0.0000    0.0000
                  XX= -1.5451E+01              XY=  5.6365E-07              XZ= -4.3640E-14              YY= -1.7495E+01
                  YZ= -4.3542E-13              ZZ= -1.4884E+01
      In traceless form (Debye*Ang)
                  XX=  7.3874E-01              XY=  8.4547E-07              XZ= -6.5460E-14              YY= -2.3274E+00
                  YZ= -6.5313E-13              ZZ=  1.5886E+00
--
 
 
  Input file to MOLDEN was generated!
 
 ###############################################################################
 ###############################################################################
 ###                                                                         ###
 ###                                                                         ###
 ###    RunFile label nBas                                                   ###
 ###    was used       78 times                                              ###
 ###                                                                         ###
 ###                                                                         ###
 ###############################################################################
 ###############################################################################
--- Stop Module: scf at Tue Apr 29 12:30:39 2025 /rc=_RC_ALL_IS_WELL_ ---
*** files: ozone_107.50.LprOrb ozone_107.50.LoProp.molden ozone_107.50.scf.molden ozone_107.50.ScfOrb ozone_107.50.scf.h5 xmldump
    saved to directory /lustre/isaac/scratch/gjones39/ANO-RCC-VTZP/ozone_107.50
--- Module scf spent 13 seconds ---

>>> COPY /lustre/isaac/scratch/gjones39/ANO-RCC-VTZP/ozone_107.50/3189720/ozone_107.50.scf.h5 /lustre/isaac/scratch/gjones39/ANO-RCC-VTZP/ozone_107.50/

*** symbolic link created: INPORB -> ozone_107.50.ScfOrb
--- Start Module: rasscf at Tue Apr 29 12:30:39 2025 ---
 
()()()()()()()()()()()()()()()()()()()()()()()()()()()()()()()()()()()()()()()()()()()()()()()()()()

                                              &RASSCF

                                   only a single process is used
                       available to each process: 62 GB of memory, 1 thread?
()()()()()()()()()()()()()()()()()()()()()()()()()()()()()()()()()()()()()()()()()()()()()()()()()()
 
 
      Header of the ONEINT file:
      --------------------------
      
      Integrals generated by seward 4.2.0  , Tue Apr 29 12:30:14 2025
 
 
      OrdInt status: non-squared
 
 
      Cartesian coordinates in Angstrom:
      -----------------------------------------------------
      No.  Label        X            Y            Z        
      -----------------------------------------------------
       1   O1         0.75569400   1.03063600   0.00000000
       2   O2         0.00000000   0.00000000   0.00000000
       3   O3         0.75569400  -1.03063600   0.00000000
      -----------------------------------------------------
      Nuclear repulsion energy =   69.43084634
 
++    Wave function specifications:
      -----------------------------
 
      Number of closed shell electrons          12
      Number of electrons in active shells      12
      Max number of holes in RAS1 space          0
      Max nr of electrons in RAS3 space          0
      Number of inactive orbitals                6
      Number of active orbitals                  9
      Number of secondary orbitals              75
      Spin quantum number                      0.0
      State symmetry                             1
--
 
++    Orbital specifications:
      -----------------------
 
      Symmetry species                           1
                                                 a
      Frozen orbitals                            0
      Inactive orbitals                          6
      Active orbitals                            9
      RAS1 orbitals                              0
      RAS2 orbitals                              9
      RAS3 orbitals                              0
      Secondary orbitals                        75
      Deleted orbitals                           0
      Number of basis functions                 90
--
 
++    CI expansion specifications:
      ----------------------------
 
      Number of CSFs                          2520
      Number of determinants                  3570
      Number of root(s) required                 3
      Root chosen for geometry opt.              3
      CI roots used                              1     2     3
      weights                                0.333 0.333 0.333
      highest root included in the CI            3
      max. size of the explicit Hamiltonian    500
--
 
++    Optimization specifications:
      ----------------------------
 
      RASSCF algorithm: Conventional
      Maximum number of macro iterations       200
      Maximum number of SX iterations          100
      Threshold for RASSCF energy            0.100E-07
      Threshold for max MO rotation          0.100E+00
      Threshold for max BLB element          0.100E-03
      Level shift parameter                  0.500E+00
      Make Quasi-Newton update
--
 
      The MO-coefficients are taken from the file:
      /lustre/isaac/scratch/gjones39/ANO-RCC-VTZP/ozone_107.25/ozone_107.25.RasOrb                                                    
      Title: RASSCF average (pseudo-natural) orbitals                                      
 
      Total molecular charge    0.00
 
      ************************************************************************************************************************
      *                                                                                                                      *
      *                                            Wave function control section                                             *
      *                                                                                                                      *
      ************************************************************************************************************************
 
 
                                         RASSCF iterations: Energy and convergence statistics
                                         ----------------------------------------------------
 
      Iter CI   SX   CI       RASSCF       Energy    max ROT     max BLB   max BLB  Level Ln srch  Step   QN   Walltime
          iter iter root      energy       change     param      element    value   shift minimum  type update hh:mm:ss
 Nr of preliminary CI iterations:   5
        1   1    7    0  -224.67949470    0.00E+00  -0.53E-03    7  75 1 -0.10E-02*  0.00   0.00    SX    NO    0:00:01
        2   1    6    0  -224.67949701   -0.23E-05*  0.18E-03    4  14 1  0.16E-03*  0.00   0.00    SX    NO    0:00:00
        3   2    5    0  -224.67950229   -0.53E-05* -0.58E-04   10  38 1  0.69E-04   0.00   0.00    SX    NO    0:00:00
        4   6    5    0  -224.67950405   -0.18E-05* -0.10E-03   12  29 1 -0.13E-03*  0.00   0.00    SX    NO    0:00:00
        5   5    5    0  -224.67950415   -0.99E-07* -0.79E-04    6  26 1  0.62E-04   0.00   1.23    QN   YES    0:00:02
        6   3    5    0  -224.67950417   -0.22E-07*  0.13E-04   12  29 1  0.18E-04   0.00   0.89    QN   YES    0:00:01
        7   1    5    0  -224.67950417   -0.17E-08   0.25E-04    6  22 1  0.24E-04   0.00   0.94    QN   YES    0:00:01
      Convergence after  7 iterations
 
  Dmat in MO in SXCTL bf call to SXHAM                                                                                    
  mat. size =     9x    9
 
        1.9622269665028527
        0.0000000002952053      1.9519519966076875
       -0.0000000000009336     -0.0000000001304779      1.9751005482620789
        0.0006053978554555     -0.0000000005447156     -0.0000000000216073      1.6914981777940157
       -0.0000000002165531     -0.0005806073771733     -0.0000000144022260     -0.0000000001500470      1.6271288163829654
       -0.0000000024659010     -0.0000000000031094      0.0000000005138308     -0.0000000061784047     -0.0000000000288980
        1.7620732419222183
        0.0000000000008285      0.0000000009357727      0.0003145692108201      0.0000000000055390      0.0000000075323482
        0.0000000008275287      0.9277719071366681
        0.0010055544718998     -0.0000000005167485      0.0000000000074277      0.0029022854586930     -0.0000000002744891
       -0.0000000002468859      0.0000000000024580      0.0533258879974953
       -0.0000000003397982     -0.0001085252300662      0.0000000006365661      0.0000000000248296     -0.0018420846474503
       -0.0000000000013704      0.0000000058219064     -0.0000000003696368      0.0489224573940284
        8   1    5    0  -224.67950418   -0.13E-08   0.25E-04    6  50 1  0.89E-05   0.00   0.94    QN   YES    0:00:01
 
      ************************************************************************************************************************
                                                      Wave function printout:
                       occupation of active orbitals, and spin coupling of open shells (u,d: Spin up or down)
      ************************************************************************************************************************
 
      Note: transformation to natural orbitals
      has been made, which may change the order of the CSFs.
 
      printout of CI-coefficients larger than  0.05 for root  1
      energy=    -224.730704
      conf/sym  111111111     Coeff  Weight
             1  222222000  -0.89130 0.79441
             4  222220200   0.34556 0.11941
            72  222u2du0d  -0.05311 0.00282
            74  222u2ud0d  -0.05043 0.00254
           126  22u222d00  -0.06666 0.00444
           205  2u222dud0   0.06248 0.00390
           207  2u222udd0   0.05222 0.00273
           551  220222200   0.06725 0.00452
           611  2ud222u0d   0.06552 0.00429
           652  u2d222ud0  -0.05895 0.00348
           731  202222002   0.06645 0.00442
           764  ud22220ud  -0.07513 0.00564
           805  022222020   0.06315 0.00399
           992  2uu222d0d   0.06760 0.00457
          1031  u2u222dd0  -0.05512 0.00304
 
      printout of CI-coefficients larger than  0.05 for root  2
      energy=    -224.668651
      conf/sym  111111111     Coeff  Weight
             3  2222u2d00   0.88067 0.77558
            52  222u2d200  -0.38777 0.15037
           128  22u2d2200  -0.06465 0.00418
           277  u2222d200   0.05374 0.00289
           361  222022u0d   0.05537 0.00307
           613  2ud2u220d  -0.05218 0.00272
           654  u2d2u22d0   0.05362 0.00288
           733  2022u2d02  -0.06950 0.00483
           766  ud22u2dud   0.07959 0.00633
           807  0222u2d20  -0.06809 0.00464
           994  2uu2d220d  -0.06181 0.00382
          1033  u2u2d22d0   0.05285 0.00279
 
      printout of CI-coefficients larger than  0.05 for root  3
      energy=    -224.639157
      conf/sym  111111111     Coeff  Weight
             5  2222ud200  -0.49925 0.24925
            51  222u22d00   0.82795 0.68550
           202  2u222d200   0.05862 0.00344
           768  ud22ud2ud  -0.05413 0.00293
          1381  202u22d02  -0.06518 0.00425
          1406  ud2u22dud   0.07670 0.00588
          1442  022u22d20  -0.06396 0.00409
          1485  2uud2220d  -0.05760 0.00332
 
      Natural orbitals and occupation numbers for root  1
      sym 1:   1.956160   1.948499   1.964313   1.993371   1.992941   1.722428   0.312962   0.056867   0.052460
 
      Natural orbitals and occupation numbers for root  2
      sym 1:   1.960141   1.954753   1.983785   1.815154   1.172124   1.833624   1.180249   0.051996   0.048173
 
      Natural orbitals and occupation numbers for root  3
      sym 1:   1.964928   1.953570   1.985302   1.272406   1.716393   1.730168   1.282007   0.050130   0.045096
 
      ************************************************************************************************************************
      *                                                                                                                      *
      *                                                    Final results                                                     *
      *                                                                                                                      *
      ************************************************************************************************************************
 
 
++    Wave function specifications:
      -----------------------------
 
      Number of closed shell electrons          12
      Number of electrons in active shells      12
      Max number of holes in RAS1 space          0
      Max nr of electrons in RAS3 space          0
      Number of inactive orbitals                6
      Number of active orbitals                  9
      Number of secondary orbitals              75
      Spin quantum number                      0.0
      State symmetry                             1
--
 
++    Orbital specifications:
      -----------------------
 
      Symmetry species                           1
                                                 a
      Frozen orbitals                            0
      Inactive orbitals                          6
      Active orbitals                            9
      RAS1 orbitals                              0
      RAS2 orbitals                              9
      RAS3 orbitals                              0
      Secondary orbitals                        75
      Deleted orbitals                           0
      Number of basis functions                 90
--
 
++    CI expansion specifications:
      ----------------------------
 
      Number of CSFs                          2520
      Number of determinants                  3570
      Number of root(s) required                 3
      CI roots used                              1     2     3
      weights                                0.333 0.333 0.333
      highest root included in the CI            3
      Root passed to geometry opt.               3
--
 
++    Final optimization conditions:
      ------------------------------
 
      Average CI energy                            -224.67950418
      RASSCF energy for state  3                   -224.63915726
      Super-CI energy                                -0.00000000
      RASSCF energy change                            0.00000000
      Max change in MO coefficients              -0.186E-04
      Max non-diagonal density matrix element     0.253E-04
      Maximum BLB matrix element                  0.887E-05
      (orbital pair   6,  50 in symmetry   1)
      Norm of electronic gradient            0.669E-01
--
 
 
      Final state energy(ies):
      ------------------------
 
::    RASSCF root number  1 Total energy:   -224.73070413
::    RASSCF root number  2 Total energy:   -224.66865114
::    RASSCF root number  3 Total energy:   -224.63915726
 
++    Molecular orbitals:
      -------------------
 
      Pseudonatural active orbitals and approximate occupation numbers
 
 
 
 
      Molecular orbitals for symmetry species 1: a  
 
 
      Orbital                1         2         3         4         5         6         7         8         9        10
      Energy          -20.7992  -20.6939  -20.6939   -1.5131   -1.2825   -1.0709    0.0000    0.0000    0.0000    0.0000
      Occ. No.          2.0000    2.0000    2.0000    2.0000    2.0000    2.0000    1.9622    1.9520    1.9751    1.6915
 
    1 O1     1s         0.0036   -0.7065    0.7064   -0.0058   -0.0006    0.0098   -0.0187   -0.0239    0.0000    0.0002
    2 O1     2s         0.0045    0.0043   -0.0046    0.4744   -0.7115    0.5385   -0.1063   -0.1019    0.0000   -0.0416
    3 O1     3s         0.0026    0.0033   -0.0034    0.0037   -0.0083    0.0174   -0.0355   -0.0548    0.0000    0.0082
    4 O1     4s         0.0004    0.0006   -0.0005    0.0016   -0.0009    0.0018   -0.0060   -0.0113    0.0000    0.0028
    5 O1     2px       -0.0014   -0.0012    0.0012   -0.0079   -0.0632    0.0820   -0.0860   -0.3121   -0.0000    0.6440
    6 O1     3px       -0.0009   -0.0014    0.0013    0.0111    0.0051   -0.0202    0.0082    0.0358   -0.0000   -0.0029
    7 O1     4px        0.0002    0.0008   -0.0008    0.0013    0.0009    0.0009    0.0010    0.0018    0.0000   -0.0075
    8 O1     2py       -0.0025   -0.0016    0.0017    0.0637   -0.0773    0.0469   -0.3698   -0.3036    0.0000   -0.2359
    9 O1     3py       -0.0014   -0.0019    0.0019   -0.0022    0.0032   -0.0100    0.0453    0.0378   -0.0000   -0.0060
   10 O1     4py        0.0007    0.0011   -0.0011   -0.0018   -0.0017    0.0022    0.0026    0.0034   -0.0000    0.0024
   11 O1     2pz       -0.0000    0.0000    0.0000    0.0000    0.0000    0.0000   -0.0000    0.0000    0.3299    0.0000
   12 O1     3pz       -0.0000   -0.0000    0.0000    0.0000   -0.0000   -0.0000   -0.0000   -0.0000   -0.0276   -0.0000
   13 O1     4pz        0.0000    0.0000   -0.0000    0.0000   -0.0000    0.0000    0.0000   -0.0000   -0.0048   -0.0000
   14 O1     3d2-       0.0006    0.0009   -0.0009    0.0089   -0.0015   -0.0109    0.0202    0.0308   -0.0000   -0.0123
   15 O1     4d2-       0.0003    0.0005   -0.0006    0.0011   -0.0006   -0.0008    0.0018    0.0026   -0.0000   -0.0013
   16 O1     3d1-       0.0000    0.0000   -0.0000   -0.0000    0.0000    0.0000    0.0000   -0.0000   -0.0220   -0.0000
   17 O1     4d1-       0.0000    0.0000   -0.0000   -0.0000    0.0000    0.0000    0.0000   -0.0000   -0.0025   -0.0000
   18 O1     3d0       -0.0004   -0.0006    0.0005   -0.0042    0.0013    0.0036   -0.0143   -0.0167    0.0000    0.0022
   19 O1     4d0       -0.0002   -0.0004    0.0003   -0.0000    0.0007   -0.0001   -0.0004   -0.0013    0.0000   -0.0006
   20 O1     3d1+       0.0000   -0.0000    0.0000    0.0000   -0.0000   -0.0000    0.0000   -0.0000   -0.0155   -0.0000
   21 O1     4d1+       0.0000    0.0000   -0.0000    0.0000   -0.0000    0.0000    0.0000   -0.0000   -0.0020   -0.0000
   22 O1     3d2+      -0.0005   -0.0003    0.0003    0.0023    0.0010   -0.0034   -0.0221   -0.0010    0.0000   -0.0101
   23 O1     4d2+      -0.0003   -0.0002    0.0002    0.0004    0.0006   -0.0002   -0.0013    0.0001    0.0000   -0.0022
   24 O1     4f3-       0.0001   -0.0001    0.0001   -0.0020    0.0006    0.0025    0.0023   -0.0045   -0.0000    0.0033
   25 O1     4f2-      -0.0000    0.0000   -0.0000   -0.0000    0.0000   -0.0000   -0.0000    0.0000    0.0055    0.0000
   26 O1     4f1-       0.0001    0.0001   -0.0001    0.0015   -0.0010   -0.0003    0.0041    0.0037   -0.0000   -0.0004
   27 O1     4f0        0.0000   -0.0000   -0.0000    0.0000   -0.0000    0.0000    0.0000   -0.0000   -0.0044   -0.0000
   28 O1     4f1+       0.0000    0.0001   -0.0001    0.0015   -0.0008   -0.0010    0.0017    0.0034   -0.0000   -0.0012
   29 O1     4f2+      -0.0000    0.0000   -0.0000   -0.0000    0.0000   -0.0000    0.0000   -0.0000   -0.0020   -0.0000
   30 O1     4f3+       0.0001    0.0002   -0.0002    0.0023   -0.0015   -0.0012    0.0071    0.0058   -0.0000   -0.0010
   31 O2     1s         0.9987   -0.0000   -0.0027   -0.0179   -0.0000   -0.0188   -0.0255   -0.0000   -0.0000    0.0201
   32 O2     2s        -0.0084    0.0000    0.0096    0.5620    0.0000   -0.7628    0.1386    0.0000   -0.0000    0.2109
   33 O2     3s        -0.0062    0.0000    0.0054   -0.0329   -0.0000   -0.0314   -0.0571   -0.0000   -0.0000    0.0544
   34 O2     4s        -0.0011    0.0000    0.0009   -0.0059   -0.0000   -0.0056   -0.0112   -0.0000   -0.0000    0.0120
   35 O2     2px       -0.0026    0.0000    0.0039   -0.1977   -0.0000    0.2910    0.6521    0.0000    0.0000   -0.2699
   36 O2     3px       -0.0030    0.0000    0.0022   -0.0133   -0.0000   -0.0293   -0.0641   -0.0000   -0.0000   -0.0152
   37 O2     4px        0.0021   -0.0000   -0.0008    0.0024    0.0000    0.0000   -0.0084   -0.0000   -0.0000   -0.0021
   38 O2     2py        0.0000   -0.0048    0.0000    0.0000   -0.0292   -0.0000   -0.0000    0.6241   -0.0000   -0.0000
   39 O2     3py        0.0000   -0.0027    0.0000   -0.0000    0.0304    0.0000    0.0000   -0.0747    0.0000    0.0000
   40 O2     4py       -0.0000    0.0011   -0.0000   -0.0000   -0.0051    0.0000    0.0000   -0.0049    0.0000   -0.0000
   41 O2     2pz        0.0000    0.0000   -0.0000    0.0000   -0.0000   -0.0000   -0.0000    0.0000    0.7463   -0.0000
   42 O2     3pz        0.0000   -0.0000    0.0000   -0.0000    0.0000    0.0000    0.0000   -0.0000   -0.0479    0.0000
   43 O2     4pz        0.0000   -0.0000    0.0000    0.0000   -0.0000    0.0000    0.0000   -0.0000   -0.0123    0.0000
   44 O2     3d2-      -0.0000   -0.0014    0.0000    0.0000   -0.0209   -0.0000   -0.0000    0.0503   -0.0000   -0.0000
   45 O2     4d2-       0.0000   -0.0006    0.0000    0.0000   -0.0019    0.0000   -0.0000    0.0047   -0.0000   -0.0000
   46 O2     3d1-       0.0000    0.0000   -0.0000    0.0000   -0.0000   -0.0000   -0.0000   -0.0000    0.0000    0.0000
   47 O2     4d1-      -0.0000    0.0000   -0.0000   -0.0000    0.0000   -0.0000   -0.0000    0.0000    0.0000    0.0000
   48 O2     3d0        0.0011   -0.0000   -0.0009   -0.0053   -0.0000   -0.0104   -0.0254   -0.0000   -0.0000    0.0143
   49 O2     4d0        0.0007   -0.0000   -0.0005    0.0008    0.0000   -0.0011   -0.0016   -0.0000    0.0000    0.0016
   50 O2     3d1+       0.0000    0.0000   -0.0000    0.0000   -0.0000   -0.0000   -0.0000    0.0000    0.0312   -0.0000
   51 O2     4d1+       0.0000    0.0000    0.0000   -0.0000   -0.0000   -0.0000   -0.0000    0.0000    0.0038    0.0000
   52 O2     3d2+       0.0001   -0.0000   -0.0005   -0.0113   -0.0000    0.0057    0.0166    0.0000    0.0000    0.0382
   53 O2     4d2+      -0.0000   -0.0000   -0.0002   -0.0009    0.0000    0.0007    0.0025    0.0000    0.0000    0.0069
   54 O2     4f3-      -0.0000   -0.0001    0.0000    0.0000   -0.0020    0.0000   -0.0000    0.0001   -0.0000   -0.0000
   55 O2     4f2-       0.0000    0.0000   -0.0000    0.0000    0.0000   -0.0000   -0.0000    0.0000    0.0000    0.0000
   56 O2     4f1-      -0.0000    0.0001   -0.0000   -0.0000    0.0031    0.0000    0.0000   -0.0077    0.0000    0.0000
   57 O2     4f0       -0.0000   -0.0000    0.0000    0.0000   -0.0000    0.0000    0.0000   -0.0000   -0.0081    0.0000
   58 O2     4f1+       0.0002   -0.0000   -0.0001   -0.0020   -0.0000   -0.0017   -0.0065   -0.0000   -0.0000    0.0004
   59 O2     4f2+       0.0000   -0.0000    0.0000    0.0000   -0.0000    0.0000    0.0000   -0.0000   -0.0026   -0.0000
   60 O2     4f3+       0.0002   -0.0000   -0.0002   -0.0055   -0.0000   -0.0002   -0.0061   -0.0000    0.0000    0.0071
   61 O3     1s         0.0036    0.7065    0.7064   -0.0058    0.0006    0.0098   -0.0187    0.0239   -0.0000    0.0002
   62 O3     2s         0.0045   -0.0043   -0.0046    0.4744    0.7115    0.5385   -0.1063    0.1019   -0.0000   -0.0416
   63 O3     3s         0.0026   -0.0033   -0.0034    0.0037    0.0083    0.0174   -0.0355    0.0548   -0.0000    0.0082
   64 O3     4s         0.0004   -0.0006   -0.0005    0.0016    0.0009    0.0018   -0.0060    0.0113   -0.0000    0.0028
   65 O3     2px       -0.0014    0.0012    0.0012   -0.0079    0.0632    0.0820   -0.0860    0.3121    0.0000    0.6440
   66 O3     3px       -0.0009    0.0014    0.0013    0.0111   -0.0051   -0.0202    0.0082   -0.0358    0.0000   -0.0029
   67 O3     4px        0.0002   -0.0008   -0.0008    0.0013   -0.0009    0.0009    0.0010   -0.0018   -0.0000   -0.0075
   68 O3     2py        0.0025   -0.0016   -0.0017   -0.0637   -0.0773   -0.0469    0.3698   -0.3036    0.0000    0.2359
   69 O3     3py        0.0014   -0.0019   -0.0019    0.0022    0.0032    0.0100   -0.0453    0.0378   -0.0000    0.0060
   70 O3     4py       -0.0007    0.0011    0.0011    0.0018   -0.0017   -0.0022   -0.0026    0.0034   -0.0000   -0.0024
   71 O3     2pz        0.0000    0.0000   -0.0000   -0.0000    0.0000   -0.0000    0.0000    0.0000    0.3299   -0.0000
   72 O3     3pz        0.0000   -0.0000   -0.0000   -0.0000   -0.0000    0.0000    0.0000   -0.0000   -0.0276    0.0000
   73 O3     4pz       -0.0000    0.0000    0.0000   -0.0000   -0.0000   -0.0000   -0.0000   -0.0000   -0.0048    0.0000
   74 O3     3d2-      -0.0006    0.0009    0.0009   -0.0089   -0.0015    0.0109   -0.0202    0.0308   -0.0000    0.0123
   75 O3     4d2-      -0.0003    0.0005    0.0006   -0.0011   -0.0006    0.0008   -0.0018    0.0026   -0.0000    0.0013
   76 O3     3d1-       0.0000   -0.0000   -0.0000   -0.0000   -0.0000    0.0000    0.0000    0.0000    0.0220   -0.0000
   77 O3     4d1-       0.0000   -0.0000   -0.0000   -0.0000   -0.0000    0.0000    0.0000    0.0000    0.0025   -0.0000
   78 O3     3d0       -0.0004    0.0006    0.0005   -0.0042   -0.0013    0.0036   -0.0143    0.0167   -0.0000    0.0022
   79 O3     4d0       -0.0002    0.0004    0.0003   -0.0000   -0.0007   -0.0001   -0.0004    0.0013   -0.0000   -0.0006
   80 O3     3d1+      -0.0000   -0.0000   -0.0000   -0.0000   -0.0000    0.0000   -0.0000   -0.0000   -0.0155    0.0000
   81 O3     4d1+      -0.0000    0.0000    0.0000   -0.0000   -0.0000   -0.0000   -0.0000   -0.0000   -0.0020    0.0000
   82 O3     3d2+      -0.0005    0.0003    0.0003    0.0023   -0.0010   -0.0034   -0.0221    0.0010   -0.0000   -0.0101
   83 O3     4d2+      -0.0003    0.0002    0.0002    0.0004   -0.0006   -0.0002   -0.0013   -0.0001   -0.0000   -0.0022
   84 O3     4f3-      -0.0001   -0.0001   -0.0001    0.0020    0.0006   -0.0025   -0.0023   -0.0045   -0.0000   -0.0033
   85 O3     4f2-      -0.0000   -0.0000   -0.0000   -0.0000   -0.0000   -0.0000   -0.0000   -0.0000   -0.0055    0.0000
   86 O3     4f1-      -0.0001    0.0001    0.0001   -0.0015   -0.0010    0.0003   -0.0041    0.0037   -0.0000    0.0004
   87 O3     4f0       -0.0000   -0.0000    0.0000   -0.0000   -0.0000   -0.0000   -0.0000   -0.0000   -0.0044    0.0000
   88 O3     4f1+       0.0000   -0.0001   -0.0001    0.0015    0.0008   -0.0010    0.0017   -0.0034    0.0000   -0.0012
   89 O3     4f2+       0.0000    0.0000    0.0000    0.0000    0.0000    0.0000   -0.0000   -0.0000   -0.0020    0.0000
   90 O3     4f3+       0.0001   -0.0002   -0.0002    0.0023    0.0015   -0.0012    0.0071   -0.0058    0.0000   -0.0010
 
 
      Orbital               11        12        13        14        15        16        17        18        19        20
      Energy            0.0000    0.0000    0.0000    0.0000    0.0000    0.1923    0.1951    0.2385    0.3450    0.3528
      Occ. No.          1.6271    1.7621    0.9278    0.0533    0.0489    0.0000    0.0000    0.0000    0.0000    0.0000
 
    1 O1     1s         0.0000    0.0000    0.0000   -0.0338   -0.0394   -0.1811   -0.1519    0.0000    0.0563   -0.0056
    2 O1     2s        -0.0468    0.0000    0.0000   -0.3772   -0.4117   -1.3228   -1.0427    0.0000    0.3944    0.0412
    3 O1     3s         0.0044    0.0000    0.0000   -0.0563   -0.0789   -0.8213   -0.6637    0.0000    0.2233    0.0582
    4 O1     4s         0.0015    0.0000    0.0000   -0.0060   -0.0119   -0.1887   -0.1416    0.0000    0.0360    0.0206
    5 O1     2px       -0.5088    0.0000   -0.0000    0.3194    0.4726    0.4077    0.2306   -0.0000   -0.2363   -0.2126
    6 O1     3px       -0.0125    0.0000    0.0000   -0.0019   -0.0733    0.4379    0.4423   -0.0000    0.0645   -0.8120
    7 O1     4px        0.0042   -0.0000    0.0000   -0.0080   -0.0007    0.0349    0.0985   -0.0000    0.1224   -0.3140
    8 O1     2py        0.5504   -0.0000    0.0000    0.6125    0.4686    0.4024    0.5390   -0.0000   -0.4024   -0.2634
    9 O1     3py        0.0037   -0.0000   -0.0000   -0.0788   -0.0029    0.7220    0.5536   -0.0000   -0.9412   -0.3298
   10 O1     4py       -0.0053    0.0000    0.0000   -0.0049   -0.0116    0.1426    0.0250   -0.0000   -0.2925   -0.0770
   11 O1     2pz       -0.0000   -0.7163    0.6500   -0.0000    0.0000    0.0000    0.0000   -0.0822    0.0000    0.0000
   12 O1     3pz       -0.0000   -0.0039    0.0090   -0.0000   -0.0000    0.0000    0.0000    0.3460    0.0000    0.0000
   13 O1     4pz        0.0000    0.0086   -0.0049    0.0000    0.0000    0.0000    0.0000    0.1957    0.0000    0.0000
   14 O1     3d2-      -0.0011   -0.0000    0.0000   -0.0250   -0.0168   -0.0975   -0.0816    0.0000    0.0779    0.0284
   15 O1     4d2-       0.0006   -0.0000    0.0000   -0.0090   -0.0077   -0.0574   -0.0513    0.0000    0.0529    0.0318
   16 O1     3d1-       0.0000    0.0140    0.0028    0.0000   -0.0000    0.0000   -0.0000    0.0171    0.0000   -0.0000
   17 O1     4d1-       0.0000    0.0026    0.0004    0.0000    0.0000    0.0000   -0.0000    0.0079   -0.0000   -0.0000
   18 O1     3d0        0.0019    0.0000   -0.0000    0.0100    0.0144    0.0690    0.0542   -0.0000   -0.0214   -0.0274
   19 O1     4d0       -0.0002   -0.0000    0.0000    0.0020    0.0066    0.0440    0.0315   -0.0000   -0.0143   -0.0240
   20 O1     3d1+       0.0000    0.0107    0.0033    0.0000   -0.0000    0.0000   -0.0000    0.0051   -0.0000    0.0000
   21 O1     4d1+       0.0000    0.0016    0.0004    0.0000   -0.0000    0.0000   -0.0000   -0.0003   -0.0000   -0.0000
   22 O1     3d2+       0.0169   -0.0000   -0.0000    0.0074    0.0184    0.0290    0.0581   -0.0000   -0.0172   -0.0068
   23 O1     4d2+       0.0031   -0.0000   -0.0000    0.0036    0.0062    0.0197    0.0333   -0.0000   -0.0166   -0.0051
   24 O1     4f3-      -0.0035    0.0000   -0.0000    0.0013   -0.0014    0.0026   -0.0001   -0.0000    0.0028   -0.0072
   25 O1     4f2-      -0.0000   -0.0034   -0.0007   -0.0000    0.0000    0.0000    0.0000    0.0031    0.0000    0.0000
   26 O1     4f1-      -0.0013   -0.0000   -0.0000   -0.0024   -0.0043   -0.0078   -0.0039    0.0000    0.0048    0.0073
   27 O1     4f0        0.0000    0.0022    0.0015    0.0000    0.0000   -0.0000   -0.0000   -0.0012    0.0000   -0.0000
   28 O1     4f1+      -0.0001   -0.0000    0.0000   -0.0022   -0.0017   -0.0037   -0.0037    0.0000    0.0032    0.0073
   29 O1     4f2+       0.0000    0.0009   -0.0002    0.0000    0.0000    0.0000   -0.0000    0.0003   -0.0000   -0.0000
   30 O1     4f3+      -0.0028   -0.0000    0.0000   -0.0036   -0.0053   -0.0085   -0.0064    0.0000    0.0142    0.0098
   31 O2     1s        -0.0000    0.0000   -0.0000    0.0851   -0.0000    0.0000    0.3037   -0.0000   -0.2060   -0.0000
   32 O2     2s        -0.0000    0.0000   -0.0000    0.8453   -0.0000    0.0000    2.1307   -0.0000   -1.3635   -0.0000
   33 O2     3s        -0.0000    0.0000   -0.0000    0.0954   -0.0000    0.0000    1.3334   -0.0000   -0.8389   -0.0000
   34 O2     4s        -0.0000    0.0000   -0.0000    0.0302   -0.0000    0.0000    0.2883   -0.0000   -0.1742   -0.0000
   35 O2     2px        0.0000   -0.0000   -0.0000    0.7483   -0.0000    0.0000    0.7134   -0.0000   -0.4468   -0.0000
   36 O2     3px        0.0000   -0.0000    0.0000   -0.1439    0.0000    0.0000    1.0443   -0.0000   -0.4017    0.0000
   37 O2     4px        0.0000   -0.0000    0.0000    0.0265   -0.0000    0.0000    0.1699   -0.0000    0.0326    0.0000
   38 O2     2py       -0.0452   -0.0000   -0.0000    0.0000    0.9989    1.0210   -0.0000   -0.0000    0.0000   -0.0145
   39 O2     3py       -0.0166    0.0000   -0.0000   -0.0000   -0.1289    1.1909   -0.0000   -0.0000    0.0000    0.4458
   40 O2     4py       -0.0035   -0.0000   -0.0000   -0.0000    0.0065    0.1307   -0.0000   -0.0000   -0.0000    0.2491
   41 O2     2pz       -0.0000    0.0000   -0.7235   -0.0000   -0.0000   -0.0000   -0.0000   -0.0679    0.0000   -0.0000
   42 O2     3pz        0.0000    0.0000   -0.0277    0.0000   -0.0000    0.0000   -0.0000    0.3294    0.0000   -0.0000
   43 O2     4pz        0.0000   -0.0000    0.0031   -0.0000    0.0000    0.0000   -0.0000    0.1910    0.0000   -0.0000
   44 O2     3d2-      -0.0327   -0.0000    0.0000    0.0000    0.0351    0.1841   -0.0000   -0.0000   -0.0000    0.0268
[...]

>>> COPY /lustre/isaac/scratch/gjones39/ANO-RCC-VTZP/ozone_107.50/3189720/GMJ_IVECW_H_P_2_.csv /lustre/isaac/scratch/gjones39/ANO-RCC-VTZP/ozone_107.50/GMJ_IVECW_H_P_2_.csv

>>> COPY /lustre/isaac/scratch/gjones39/ANO-RCC-VTZP/ozone_107.50/3189720/GMJ_IVECX_H_P_2_.csv /lustre/isaac/scratch/gjones39/ANO-RCC-VTZP/ozone_107.50/GMJ_IVECX_H_P_2_.csv

>>> COPY /lustre/isaac/scratch/gjones39/ANO-RCC-VTZP/ozone_107.50/3189720/GMJ_IVECC2_H_P_2_.csv /lustre/isaac/scratch/gjones39/ANO-RCC-VTZP/ozone_107.50/GMJ_IVECC2_H_P_2_.csv

>>> COPY /lustre/isaac/scratch/gjones39/ANO-RCC-VTZP/ozone_107.50/3189720/GMJ_e2_H_P_2_.csv /lustre/isaac/scratch/gjones39/ANO-RCC-VTZP/ozone_107.50/GMJ_e2_H_P_2_.csv

>>> END FOREACH

>>> EXPORT j = M

>>> IF (-FILE GMJ_e2_${i}_${j}_${k}_.csv)

>>> COPY /lustre/isaac/scratch/gjones39/ANO-RCC-VTZP/ozone_107.50/3189720/GMJ_RHS_H_M_2_.csv /lustre/isaac/scratch/gjones39/ANO-RCC-VTZP/ozone_107.50/GMJ_RHS_H_M_2_.csv

>>> COPY /lustre/isaac/scratch/gjones39/ANO-RCC-VTZP/ozone_107.50/3189720/GMJ_IVECW_H_M_2_.csv /lustre/isaac/scratch/gjones39/ANO-RCC-VTZP/ozone_107.50/GMJ_IVECW_H_M_2_.csv

>>> COPY /lustre/isaac/scratch/gjones39/ANO-RCC-VTZP/ozone_107.50/3189720/GMJ_IVECX_H_M_2_.csv /lustre/isaac/scratch/gjones39/ANO-RCC-VTZP/ozone_107.50/GMJ_IVECX_H_M_2_.csv

>>> COPY /lustre/isaac/scratch/gjones39/ANO-RCC-VTZP/ozone_107.50/3189720/GMJ_IVECC2_H_M_2_.csv /lustre/isaac/scratch/gjones39/ANO-RCC-VTZP/ozone_107.50/GMJ_IVECC2_H_M_2_.csv

>>> COPY /lustre/isaac/scratch/gjones39/ANO-RCC-VTZP/ozone_107.50/3189720/GMJ_e2_H_M_2_.csv /lustre/isaac/scratch/gjones39/ANO-RCC-VTZP/ozone_107.50/GMJ_e2_H_M_2_.csv

>>> END FOREACH

>>> END FOREACH

>>> END FOREACH

>>> EXPORT k = 3

>>> EXPORT i = B

>>> EXPORT j = P

>>> IF (-FILE GMJ_e2_${i}_${j}_${k}_.csv)

>>> COPY /lustre/isaac/scratch/gjones39/ANO-RCC-VTZP/ozone_107.50/3189720/GMJ_RHS_B_P_3_.csv /lustre/isaac/scratch/gjones39/ANO-RCC-VTZP/ozone_107.50/GMJ_RHS_B_P_3_.csv

>>> COPY /lustre/isaac/scratch/gjones39/ANO-RCC-VTZP/ozone_107.50/3189720/GMJ_IVECW_B_P_3_.csv /lustre/isaac/scratch/gjones39/ANO-RCC-VTZP/ozone_107.50/GMJ_IVECW_B_P_3_.csv

>>> COPY /lustre/isaac/scratch/gjones39/ANO-RCC-VTZP/ozone_107.50/3189720/GMJ_IVECX_B_P_3_.csv /lustre/isaac/scratch/gjones39/ANO-RCC-VTZP/ozone_107.50/GMJ_IVECX_B_P_3_.csv

>>> COPY /lustre/isaac/scratch/gjones39/ANO-RCC-VTZP/ozone_107.50/3189720/GMJ_IVECC2_B_P_3_.csv /lustre/isaac/scratch/gjones39/ANO-RCC-VTZP/ozone_107.50/GMJ_IVECC2_B_P_3_.csv

>>> COPY /lustre/isaac/scratch/gjones39/ANO-RCC-VTZP/ozone_107.50/3189720/GMJ_e2_B_P_3_.csv /lustre/isaac/scratch/gjones39/ANO-RCC-VTZP/ozone_107.50/GMJ_e2_B_P_3_.csv

>>> END FOREACH

>>> EXPORT j = M

>>> IF (-FILE GMJ_e2_${i}_${j}_${k}_.csv)

>>> COPY /lustre/isaac/scratch/gjones39/ANO-RCC-VTZP/ozone_107.50/3189720/GMJ_RHS_B_M_3_.csv /lustre/isaac/scratch/gjones39/ANO-RCC-VTZP/ozone_107.50/GMJ_RHS_B_M_3_.csv

>>> COPY /lustre/isaac/scratch/gjones39/ANO-RCC-VTZP/ozone_107.50/3189720/GMJ_IVECW_B_M_3_.csv /lustre/isaac/scratch/gjones39/ANO-RCC-VTZP/ozone_107.50/GMJ_IVECW_B_M_3_.csv

>>> COPY /lustre/isaac/scratch/gjones39/ANO-RCC-VTZP/ozone_107.50/3189720/GMJ_IVECX_B_M_3_.csv /lustre/isaac/scratch/gjones39/ANO-RCC-VTZP/ozone_107.50/GMJ_IVECX_B_M_3_.csv

>>> COPY /lustre/isaac/scratch/gjones39/ANO-RCC-VTZP/ozone_107.50/3189720/GMJ_IVECC2_B_M_3_.csv /lustre/isaac/scratch/gjones39/ANO-RCC-VTZP/ozone_107.50/GMJ_IVECC2_B_M_3_.csv

>>> COPY /lustre/isaac/scratch/gjones39/ANO-RCC-VTZP/ozone_107.50/3189720/GMJ_e2_B_M_3_.csv /lustre/isaac/scratch/gjones39/ANO-RCC-VTZP/ozone_107.50/GMJ_e2_B_M_3_.csv

>>> END FOREACH

>>> END FOREACH

>>> EXPORT i = E

>>> EXPORT j = P

>>> IF (-FILE GMJ_e2_${i}_${j}_${k}_.csv)

>>> COPY /lustre/isaac/scratch/gjones39/ANO-RCC-VTZP/ozone_107.50/3189720/GMJ_RHS_E_P_3_.csv /lustre/isaac/scratch/gjones39/ANO-RCC-VTZP/ozone_107.50/GMJ_RHS_E_P_3_.csv

>>> COPY /lustre/isaac/scratch/gjones39/ANO-RCC-VTZP/ozone_107.50/3189720/GMJ_IVECW_E_P_3_.csv /lustre/isaac/scratch/gjones39/ANO-RCC-VTZP/ozone_107.50/GMJ_IVECW_E_P_3_.csv

>>> COPY /lustre/isaac/scratch/gjones39/ANO-RCC-VTZP/ozone_107.50/3189720/GMJ_IVECX_E_P_3_.csv /lustre/isaac/scratch/gjones39/ANO-RCC-VTZP/ozone_107.50/GMJ_IVECX_E_P_3_.csv

>>> COPY /lustre/isaac/scratch/gjones39/ANO-RCC-VTZP/ozone_107.50/3189720/GMJ_IVECC2_E_P_3_.csv /lustre/isaac/scratch/gjones39/ANO-RCC-VTZP/ozone_107.50/GMJ_IVECC2_E_P_3_.csv

>>> COPY /lustre/isaac/scratch/gjones39/ANO-RCC-VTZP/ozone_107.50/3189720/GMJ_e2_E_P_3_.csv /lustre/isaac/scratch/gjones39/ANO-RCC-VTZP/ozone_107.50/GMJ_e2_E_P_3_.csv

>>> END FOREACH

>>> EXPORT j = M

>>> IF (-FILE GMJ_e2_${i}_${j}_${k}_.csv)

>>> COPY /lustre/isaac/scratch/gjones39/ANO-RCC-VTZP/ozone_107.50/3189720/GMJ_RHS_E_M_3_.csv /lustre/isaac/scratch/gjones39/ANO-RCC-VTZP/ozone_107.50/GMJ_RHS_E_M_3_.csv

>>> COPY /lustre/isaac/scratch/gjones39/ANO-RCC-VTZP/ozone_107.50/3189720/GMJ_IVECW_E_M_3_.csv /lustre/isaac/scratch/gjones39/ANO-RCC-VTZP/ozone_107.50/GMJ_IVECW_E_M_3_.csv

>>> COPY /lustre/isaac/scratch/gjones39/ANO-RCC-VTZP/ozone_107.50/3189720/GMJ_IVECX_E_M_3_.csv /lustre/isaac/scratch/gjones39/ANO-RCC-VTZP/ozone_107.50/GMJ_IVECX_E_M_3_.csv

>>> COPY /lustre/isaac/scratch/gjones39/ANO-RCC-VTZP/ozone_107.50/3189720/GMJ_IVECC2_E_M_3_.csv /lustre/isaac/scratch/gjones39/ANO-RCC-VTZP/ozone_107.50/GMJ_IVECC2_E_M_3_.csv

>>> COPY /lustre/isaac/scratch/gjones39/ANO-RCC-VTZP/ozone_107.50/3189720/GMJ_e2_E_M_3_.csv /lustre/isaac/scratch/gjones39/ANO-RCC-VTZP/ozone_107.50/GMJ_e2_E_M_3_.csv

>>> END FOREACH

>>> END FOREACH

>>> EXPORT i = F

>>> EXPORT j = P

>>> IF (-FILE GMJ_e2_${i}_${j}_${k}_.csv)

>>> COPY /lustre/isaac/scratch/gjones39/ANO-RCC-VTZP/ozone_107.50/3189720/GMJ_RHS_F_P_3_.csv /lustre/isaac/scratch/gjones39/ANO-RCC-VTZP/ozone_107.50/GMJ_RHS_F_P_3_.csv

>>> COPY /lustre/isaac/scratch/gjones39/ANO-RCC-VTZP/ozone_107.50/3189720/GMJ_IVECW_F_P_3_.csv /lustre/isaac/scratch/gjones39/ANO-RCC-VTZP/ozone_107.50/GMJ_IVECW_F_P_3_.csv

>>> COPY /lustre/isaac/scratch/gjones39/ANO-RCC-VTZP/ozone_107.50/3189720/GMJ_IVECX_F_P_3_.csv /lustre/isaac/scratch/gjones39/ANO-RCC-VTZP/ozone_107.50/GMJ_IVECX_F_P_3_.csv

>>> COPY /lustre/isaac/scratch/gjones39/ANO-RCC-VTZP/ozone_107.50/3189720/GMJ_IVECC2_F_P_3_.csv /lustre/isaac/scratch/gjones39/ANO-RCC-VTZP/ozone_107.50/GMJ_IVECC2_F_P_3_.csv

>>> COPY /lustre/isaac/scratch/gjones39/ANO-RCC-VTZP/ozone_107.50/3189720/GMJ_e2_F_P_3_.csv /lustre/isaac/scratch/gjones39/ANO-RCC-VTZP/ozone_107.50/GMJ_e2_F_P_3_.csv

>>> END FOREACH

>>> EXPORT j = M

>>> IF (-FILE GMJ_e2_${i}_${j}_${k}_.csv)

>>> COPY /lustre/isaac/scratch/gjones39/ANO-RCC-VTZP/ozone_107.50/3189720/GMJ_RHS_F_M_3_.csv /lustre/isaac/scratch/gjones39/ANO-RCC-VTZP/ozone_107.50/GMJ_RHS_F_M_3_.csv

>>> COPY /lustre/isaac/scratch/gjones39/ANO-RCC-VTZP/ozone_107.50/3189720/GMJ_IVECW_F_M_3_.csv /lustre/isaac/scratch/gjones39/ANO-RCC-VTZP/ozone_107.50/GMJ_IVECW_F_M_3_.csv

>>> COPY /lustre/isaac/scratch/gjones39/ANO-RCC-VTZP/ozone_107.50/3189720/GMJ_IVECX_F_M_3_.csv /lustre/isaac/scratch/gjones39/ANO-RCC-VTZP/ozone_107.50/GMJ_IVECX_F_M_3_.csv

>>> COPY /lustre/isaac/scratch/gjones39/ANO-RCC-VTZP/ozone_107.50/3189720/GMJ_IVECC2_F_M_3_.csv /lustre/isaac/scratch/gjones39/ANO-RCC-VTZP/ozone_107.50/GMJ_IVECC2_F_M_3_.csv

>>> COPY /lustre/isaac/scratch/gjones39/ANO-RCC-VTZP/ozone_107.50/3189720/GMJ_e2_F_M_3_.csv /lustre/isaac/scratch/gjones39/ANO-RCC-VTZP/ozone_107.50/GMJ_e2_F_M_3_.csv

>>> END FOREACH

>>> END FOREACH

>>> EXPORT i = G

>>> EXPORT j = P

>>> IF (-FILE GMJ_e2_${i}_${j}_${k}_.csv)

>>> COPY /lustre/isaac/scratch/gjones39/ANO-RCC-VTZP/ozone_107.50/3189720/GMJ_RHS_G_P_3_.csv /lustre/isaac/scratch/gjones39/ANO-RCC-VTZP/ozone_107.50/GMJ_RHS_G_P_3_.csv

>>> COPY /lustre/isaac/scratch/gjones39/ANO-RCC-VTZP/ozone_107.50/3189720/GMJ_IVECW_G_P_3_.csv /lustre/isaac/scratch/gjones39/ANO-RCC-VTZP/ozone_107.50/GMJ_IVECW_G_P_3_.csv

>>> COPY /lustre/isaac/scratch/gjones39/ANO-RCC-VTZP/ozone_107.50/3189720/GMJ_IVECX_G_P_3_.csv /lustre/isaac/scratch/gjones39/ANO-RCC-VTZP/ozone_107.50/GMJ_IVECX_G_P_3_.csv

>>> COPY /lustre/isaac/scratch/gjones39/ANO-RCC-VTZP/ozone_107.50/3189720/GMJ_IVECC2_G_P_3_.csv /lustre/isaac/scratch/gjones39/ANO-RCC-VTZP/ozone_107.50/GMJ_IVECC2_G_P_3_.csv

>>> COPY /lustre/isaac/scratch/gjones39/ANO-RCC-VTZP/ozone_107.50/3189720/GMJ_e2_G_P_3_.csv /lustre/isaac/scratch/gjones39/ANO-RCC-VTZP/ozone_107.50/GMJ_e2_G_P_3_.csv

>>> END FOREACH

>>> EXPORT j = M

>>> IF (-FILE GMJ_e2_${i}_${j}_${k}_.csv)

>>> COPY /lustre/isaac/scratch/gjones39/ANO-RCC-VTZP/ozone_107.50/3189720/GMJ_RHS_G_M_3_.csv /lustre/isaac/scratch/gjones39/ANO-RCC-VTZP/ozone_107.50/GMJ_RHS_G_M_3_.csv

>>> COPY /lustre/isaac/scratch/gjones39/ANO-RCC-VTZP/ozone_107.50/3189720/GMJ_IVECW_G_M_3_.csv /lustre/isaac/scratch/gjones39/ANO-RCC-VTZP/ozone_107.50/GMJ_IVECW_G_M_3_.csv

>>> COPY /lustre/isaac/scratch/gjones39/ANO-RCC-VTZP/ozone_107.50/3189720/GMJ_IVECX_G_M_3_.csv /lustre/isaac/scratch/gjones39/ANO-RCC-VTZP/ozone_107.50/GMJ_IVECX_G_M_3_.csv

>>> COPY /lustre/isaac/scratch/gjones39/ANO-RCC-VTZP/ozone_107.50/3189720/GMJ_IVECC2_G_M_3_.csv /lustre/isaac/scratch/gjones39/ANO-RCC-VTZP/ozone_107.50/GMJ_IVECC2_G_M_3_.csv

>>> COPY /lustre/isaac/scratch/gjones39/ANO-RCC-VTZP/ozone_107.50/3189720/GMJ_e2_G_M_3_.csv /lustre/isaac/scratch/gjones39/ANO-RCC-VTZP/ozone_107.50/GMJ_e2_G_M_3_.csv

>>> END FOREACH

>>> END FOREACH

>>> EXPORT i = H

>>> EXPORT j = P

>>> IF (-FILE GMJ_e2_${i}_${j}_${k}_.csv)

>>> COPY /lustre/isaac/scratch/gjones39/ANO-RCC-VTZP/ozone_107.50/3189720/GMJ_RHS_H_P_3_.csv /lustre/isaac/scratch/gjones39/ANO-RCC-VTZP/ozone_107.50/GMJ_RHS_H_P_3_.csv

>>> COPY /lustre/isaac/scratch/gjones39/ANO-RCC-VTZP/ozone_107.50/3189720/GMJ_IVECW_H_P_3_.csv /lustre/isaac/scratch/gjones39/ANO-RCC-VTZP/ozone_107.50/GMJ_IVECW_H_P_3_.csv

>>> COPY /lustre/isaac/scratch/gjones39/ANO-RCC-VTZP/ozone_107.50/3189720/GMJ_IVECX_H_P_3_.csv /lustre/isaac/scratch/gjones39/ANO-RCC-VTZP/ozone_107.50/GMJ_IVECX_H_P_3_.csv

>>> COPY /lustre/isaac/scratch/gjones39/ANO-RCC-VTZP/ozone_107.50/3189720/GMJ_IVECC2_H_P_3_.csv /lustre/isaac/scratch/gjones39/ANO-RCC-VTZP/ozone_107.50/GMJ_IVECC2_H_P_3_.csv

>>> COPY /lustre/isaac/scratch/gjones39/ANO-RCC-VTZP/ozone_107.50/3189720/GMJ_e2_H_P_3_.csv /lustre/isaac/scratch/gjones39/ANO-RCC-VTZP/ozone_107.50/GMJ_e2_H_P_3_.csv

>>> END FOREACH

>>> EXPORT j = M

>>> IF (-FILE GMJ_e2_${i}_${j}_${k}_.csv)

>>> COPY /lustre/isaac/scratch/gjones39/ANO-RCC-VTZP/ozone_107.50/3189720/GMJ_RHS_H_M_3_.csv /lustre/isaac/scratch/gjones39/ANO-RCC-VTZP/ozone_107.50/GMJ_RHS_H_M_3_.csv

>>> COPY /lustre/isaac/scratch/gjones39/ANO-RCC-VTZP/ozone_107.50/3189720/GMJ_IVECW_H_M_3_.csv /lustre/isaac/scratch/gjones39/ANO-RCC-VTZP/ozone_107.50/GMJ_IVECW_H_M_3_.csv

>>> COPY /lustre/isaac/scratch/gjones39/ANO-RCC-VTZP/ozone_107.50/3189720/GMJ_IVECX_H_M_3_.csv /lustre/isaac/scratch/gjones39/ANO-RCC-VTZP/ozone_107.50/GMJ_IVECX_H_M_3_.csv

>>> COPY /lustre/isaac/scratch/gjones39/ANO-RCC-VTZP/ozone_107.50/3189720/GMJ_IVECC2_H_M_3_.csv /lustre/isaac/scratch/gjones39/ANO-RCC-VTZP/ozone_107.50/GMJ_IVECC2_H_M_3_.csv

>>> COPY /lustre/isaac/scratch/gjones39/ANO-RCC-VTZP/ozone_107.50/3189720/GMJ_e2_H_M_3_.csv /lustre/isaac/scratch/gjones39/ANO-RCC-VTZP/ozone_107.50/GMJ_e2_H_M_3_.csv

>>> END FOREACH

>>> END FOREACH

>>> END FOREACH

>>> EXPORT j = 1

>>> EXPORT i = A

>>> IF (-FILE GMJ_e2_${i}_${j}_.csv)

>>> COPY /lustre/isaac/scratch/gjones39/ANO-RCC-VTZP/ozone_107.50/3189720/GMJ_RHS_A_1_.csv /lustre/isaac/scratch/gjones39/ANO-RCC-VTZP/ozone_107.50/GMJ_RHS_A_1_.csv

>>> COPY /lustre/isaac/scratch/gjones39/ANO-RCC-VTZP/ozone_107.50/3189720/GMJ_IVECW_A_1_.csv /lustre/isaac/scratch/gjones39/ANO-RCC-VTZP/ozone_107.50/GMJ_IVECW_A_1_.csv

>>> COPY /lustre/isaac/scratch/gjones39/ANO-RCC-VTZP/ozone_107.50/3189720/GMJ_IVECX_A_1_.csv /lustre/isaac/scratch/gjones39/ANO-RCC-VTZP/ozone_107.50/GMJ_IVECX_A_1_.csv

>>> COPY /lustre/isaac/scratch/gjones39/ANO-RCC-VTZP/ozone_107.50/3189720/GMJ_IVECC2_A_1_.csv /lustre/isaac/scratch/gjones39/ANO-RCC-VTZP/ozone_107.50/GMJ_IVECC2_A_1_.csv

>>> COPY /lustre/isaac/scratch/gjones39/ANO-RCC-VTZP/ozone_107.50/3189720/GMJ_e2_A_1_.csv /lustre/isaac/scratch/gjones39/ANO-RCC-VTZP/ozone_107.50/GMJ_e2_A_1_.csv

>>> END FOREACH

>>> EXPORT i = C

>>> IF (-FILE GMJ_e2_${i}_${j}_.csv)

>>> COPY /lustre/isaac/scratch/gjones39/ANO-RCC-VTZP/ozone_107.50/3189720/GMJ_RHS_C_1_.csv /lustre/isaac/scratch/gjones39/ANO-RCC-VTZP/ozone_107.50/GMJ_RHS_C_1_.csv

>>> COPY /lustre/isaac/scratch/gjones39/ANO-RCC-VTZP/ozone_107.50/3189720/GMJ_IVECW_C_1_.csv /lustre/isaac/scratch/gjones39/ANO-RCC-VTZP/ozone_107.50/GMJ_IVECW_C_1_.csv

>>> COPY /lustre/isaac/scratch/gjones39/ANO-RCC-VTZP/ozone_107.50/3189720/GMJ_IVECX_C_1_.csv /lustre/isaac/scratch/gjones39/ANO-RCC-VTZP/ozone_107.50/GMJ_IVECX_C_1_.csv

>>> COPY /lustre/isaac/scratch/gjones39/ANO-RCC-VTZP/ozone_107.50/3189720/GMJ_IVECC2_C_1_.csv /lustre/isaac/scratch/gjones39/ANO-RCC-VTZP/ozone_107.50/GMJ_IVECC2_C_1_.csv

>>> COPY /lustre/isaac/scratch/gjones39/ANO-RCC-VTZP/ozone_107.50/3189720/GMJ_e2_C_1_.csv /lustre/isaac/scratch/gjones39/ANO-RCC-VTZP/ozone_107.50/GMJ_e2_C_1_.csv

>>> END FOREACH

>>> EXPORT i = D

>>> IF (-FILE GMJ_e2_${i}_${j}_.csv)

>>> COPY /lustre/isaac/scratch/gjones39/ANO-RCC-VTZP/ozone_107.50/3189720/GMJ_RHS_D_1_.csv /lustre/isaac/scratch/gjones39/ANO-RCC-VTZP/ozone_107.50/GMJ_RHS_D_1_.csv

>>> COPY /lustre/isaac/scratch/gjones39/ANO-RCC-VTZP/ozone_107.50/3189720/GMJ_IVECW_D_1_.csv /lustre/isaac/scratch/gjones39/ANO-RCC-VTZP/ozone_107.50/GMJ_IVECW_D_1_.csv

>>> COPY /lustre/isaac/scratch/gjones39/ANO-RCC-VTZP/ozone_107.50/3189720/GMJ_IVECX_D_1_.csv /lustre/isaac/scratch/gjones39/ANO-RCC-VTZP/ozone_107.50/GMJ_IVECX_D_1_.csv

>>> COPY /lustre/isaac/scratch/gjones39/ANO-RCC-VTZP/ozone_107.50/3189720/GMJ_IVECC2_D_1_.csv /lustre/isaac/scratch/gjones39/ANO-RCC-VTZP/ozone_107.50/GMJ_IVECC2_D_1_.csv

>>> COPY /lustre/isaac/scratch/gjones39/ANO-RCC-VTZP/ozone_107.50/3189720/GMJ_e2_D_1_.csv /lustre/isaac/scratch/gjones39/ANO-RCC-VTZP/ozone_107.50/GMJ_e2_D_1_.csv

>>> END FOREACH

>>> END FOREACH

>>> EXPORT j = 2

>>> EXPORT i = A

>>> IF (-FILE GMJ_e2_${i}_${j}_.csv)

>>> COPY /lustre/isaac/scratch/gjones39/ANO-RCC-VTZP/ozone_107.50/3189720/GMJ_RHS_A_2_.csv /lustre/isaac/scratch/gjones39/ANO-RCC-VTZP/ozone_107.50/GMJ_RHS_A_2_.csv

>>> COPY /lustre/isaac/scratch/gjones39/ANO-RCC-VTZP/ozone_107.50/3189720/GMJ_IVECW_A_2_.csv /lustre/isaac/scratch/gjones39/ANO-RCC-VTZP/ozone_107.50/GMJ_IVECW_A_2_.csv

>>> COPY /lustre/isaac/scratch/gjones39/ANO-RCC-VTZP/ozone_107.50/3189720/GMJ_IVECX_A_2_.csv /lustre/isaac/scratch/gjones39/ANO-RCC-VTZP/ozone_107.50/GMJ_IVECX_A_2_.csv

>>> COPY /lustre/isaac/scratch/gjones39/ANO-RCC-VTZP/ozone_107.50/3189720/GMJ_IVECC2_A_2_.csv /lustre/isaac/scratch/gjones39/ANO-RCC-VTZP/ozone_107.50/GMJ_IVECC2_A_2_.csv

>>> COPY /lustre/isaac/scratch/gjones39/ANO-RCC-VTZP/ozone_107.50/3189720/GMJ_e2_A_2_.csv /lustre/isaac/scratch/gjones39/ANO-RCC-VTZP/ozone_107.50/GMJ_e2_A_2_.csv

>>> END FOREACH

>>> EXPORT i = C

>>> IF (-FILE GMJ_e2_${i}_${j}_.csv)

>>> COPY /lustre/isaac/scratch/gjones39/ANO-RCC-VTZP/ozone_107.50/3189720/GMJ_RHS_C_2_.csv /lustre/isaac/scratch/gjones39/ANO-RCC-VTZP/ozone_107.50/GMJ_RHS_C_2_.csv

>>> COPY /lustre/isaac/scratch/gjones39/ANO-RCC-VTZP/ozone_107.50/3189720/GMJ_IVECW_C_2_.csv /lustre/isaac/scratch/gjones39/ANO-RCC-VTZP/ozone_107.50/GMJ_IVECW_C_2_.csv

>>> COPY /lustre/isaac/scratch/gjones39/ANO-RCC-VTZP/ozone_107.50/3189720/GMJ_IVECX_C_2_.csv /lustre/isaac/scratch/gjones39/ANO-RCC-VTZP/ozone_107.50/GMJ_IVECX_C_2_.csv

>>> COPY /lustre/isaac/scratch/gjones39/ANO-RCC-VTZP/ozone_107.50/3189720/GMJ_IVECC2_C_2_.csv /lustre/isaac/scratch/gjones39/ANO-RCC-VTZP/ozone_107.50/GMJ_IVECC2_C_2_.csv

>>> COPY /lustre/isaac/scratch/gjones39/ANO-RCC-VTZP/ozone_107.50/3189720/GMJ_e2_C_2_.csv /lustre/isaac/scratch/gjones39/ANO-RCC-VTZP/ozone_107.50/GMJ_e2_C_2_.csv

>>> END FOREACH

>>> EXPORT i = D

>>> IF (-FILE GMJ_e2_${i}_${j}_.csv)

>>> COPY /lustre/isaac/scratch/gjones39/ANO-RCC-VTZP/ozone_107.50/3189720/GMJ_RHS_D_2_.csv /lustre/isaac/scratch/gjones39/ANO-RCC-VTZP/ozone_107.50/GMJ_RHS_D_2_.csv

>>> COPY /lustre/isaac/scratch/gjones39/ANO-RCC-VTZP/ozone_107.50/3189720/GMJ_IVECW_D_2_.csv /lustre/isaac/scratch/gjones39/ANO-RCC-VTZP/ozone_107.50/GMJ_IVECW_D_2_.csv

>>> COPY /lustre/isaac/scratch/gjones39/ANO-RCC-VTZP/ozone_107.50/3189720/GMJ_IVECX_D_2_.csv /lustre/isaac/scratch/gjones39/ANO-RCC-VTZP/ozone_107.50/GMJ_IVECX_D_2_.csv

>>> COPY /lustre/isaac/scratch/gjones39/ANO-RCC-VTZP/ozone_107.50/3189720/GMJ_IVECC2_D_2_.csv /lustre/isaac/scratch/gjones39/ANO-RCC-VTZP/ozone_107.50/GMJ_IVECC2_D_2_.csv

>>> COPY /lustre/isaac/scratch/gjones39/ANO-RCC-VTZP/ozone_107.50/3189720/GMJ_e2_D_2_.csv /lustre/isaac/scratch/gjones39/ANO-RCC-VTZP/ozone_107.50/GMJ_e2_D_2_.csv

>>> END FOREACH

>>> END FOREACH

>>> EXPORT j = 3

>>> EXPORT i = A

>>> IF (-FILE GMJ_e2_${i}_${j}_.csv)

>>> COPY /lustre/isaac/scratch/gjones39/ANO-RCC-VTZP/ozone_107.50/3189720/GMJ_RHS_A_3_.csv /lustre/isaac/scratch/gjones39/ANO-RCC-VTZP/ozone_107.50/GMJ_RHS_A_3_.csv

>>> COPY /lustre/isaac/scratch/gjones39/ANO-RCC-VTZP/ozone_107.50/3189720/GMJ_IVECW_A_3_.csv /lustre/isaac/scratch/gjones39/ANO-RCC-VTZP/ozone_107.50/GMJ_IVECW_A_3_.csv

>>> COPY /lustre/isaac/scratch/gjones39/ANO-RCC-VTZP/ozone_107.50/3189720/GMJ_IVECX_A_3_.csv /lustre/isaac/scratch/gjones39/ANO-RCC-VTZP/ozone_107.50/GMJ_IVECX_A_3_.csv

>>> COPY /lustre/isaac/scratch/gjones39/ANO-RCC-VTZP/ozone_107.50/3189720/GMJ_IVECC2_A_3_.csv /lustre/isaac/scratch/gjones39/ANO-RCC-VTZP/ozone_107.50/GMJ_IVECC2_A_3_.csv

>>> COPY /lustre/isaac/scratch/gjones39/ANO-RCC-VTZP/ozone_107.50/3189720/GMJ_e2_A_3_.csv /lustre/isaac/scratch/gjones39/ANO-RCC-VTZP/ozone_107.50/GMJ_e2_A_3_.csv

>>> END FOREACH

>>> EXPORT i = C

>>> IF (-FILE GMJ_e2_${i}_${j}_.csv)

>>> COPY /lustre/isaac/scratch/gjones39/ANO-RCC-VTZP/ozone_107.50/3189720/GMJ_RHS_C_3_.csv /lustre/isaac/scratch/gjones39/ANO-RCC-VTZP/ozone_107.50/GMJ_RHS_C_3_.csv

>>> COPY /lustre/isaac/scratch/gjones39/ANO-RCC-VTZP/ozone_107.50/3189720/GMJ_IVECW_C_3_.csv /lustre/isaac/scratch/gjones39/ANO-RCC-VTZP/ozone_107.50/GMJ_IVECW_C_3_.csv

>>> COPY /lustre/isaac/scratch/gjones39/ANO-RCC-VTZP/ozone_107.50/3189720/GMJ_IVECX_C_3_.csv /lustre/isaac/scratch/gjones39/ANO-RCC-VTZP/ozone_107.50/GMJ_IVECX_C_3_.csv

>>> COPY /lustre/isaac/scratch/gjones39/ANO-RCC-VTZP/ozone_107.50/3189720/GMJ_IVECC2_C_3_.csv /lustre/isaac/scratch/gjones39/ANO-RCC-VTZP/ozone_107.50/GMJ_IVECC2_C_3_.csv

>>> COPY /lustre/isaac/scratch/gjones39/ANO-RCC-VTZP/ozone_107.50/3189720/GMJ_e2_C_3_.csv /lustre/isaac/scratch/gjones39/ANO-RCC-VTZP/ozone_107.50/GMJ_e2_C_3_.csv

>>> END FOREACH

>>> EXPORT i = D

>>> IF (-FILE GMJ_e2_${i}_${j}_.csv)

>>> COPY /lustre/isaac/scratch/gjones39/ANO-RCC-VTZP/ozone_107.50/3189720/GMJ_RHS_D_3_.csv /lustre/isaac/scratch/gjones39/ANO-RCC-VTZP/ozone_107.50/GMJ_RHS_D_3_.csv

>>> COPY /lustre/isaac/scratch/gjones39/ANO-RCC-VTZP/ozone_107.50/3189720/GMJ_IVECW_D_3_.csv /lustre/isaac/scratch/gjones39/ANO-RCC-VTZP/ozone_107.50/GMJ_IVECW_D_3_.csv

>>> COPY /lustre/isaac/scratch/gjones39/ANO-RCC-VTZP/ozone_107.50/3189720/GMJ_IVECX_D_3_.csv /lustre/isaac/scratch/gjones39/ANO-RCC-VTZP/ozone_107.50/GMJ_IVECX_D_3_.csv

>>> COPY /lustre/isaac/scratch/gjones39/ANO-RCC-VTZP/ozone_107.50/3189720/GMJ_IVECC2_D_3_.csv /lustre/isaac/scratch/gjones39/ANO-RCC-VTZP/ozone_107.50/GMJ_IVECC2_D_3_.csv

>>> COPY /lustre/isaac/scratch/gjones39/ANO-RCC-VTZP/ozone_107.50/3189720/GMJ_e2_D_3_.csv /lustre/isaac/scratch/gjones39/ANO-RCC-VTZP/ozone_107.50/GMJ_e2_D_3_.csv

>>> END FOREACH

>>> END FOREACH

    Timing: Wall=99.92 User=42.26 System=20.25
*******************************************************************************************
*** WorkDir at /lustre/isaac/scratch/gjones39/ANO-RCC-VTZP/ozone_107.50/3189720 cleaned ***
*******************************************************************************************
