   This run of MOLCAS is using the pymolcas driver

                             OPE
                             OPE          NMOL  CASOP  ENMOLC A   SO
                 OPE        NMOLC        AS  OP EN  MO LC     AS  OP
                OPENM       OL CA        SO  PE NM  OL CA     SOP EN
                OP EN      MO   LC       AS  OP ENMOL  CASO   PENMOL
                OP  EN     MO   LC       AS  OP EN     MO     LC ASO
               OP   E  NMOL  C  AS       OP  EN MO     LC     AS  OP
               OP  E   NMO   LC AS        OPEN  MO     LCASOP EN   M
               O  PEN   MO  LCA  SO
            OPE   NMO   L   CAS    OP
        OPENMOL  CASOP     ENMOL   CASOPE
     OPENMOLCA   SOPENMOLCASOPEN   MOLCASOPE
    OPENMOLCAS   OP           EN   MOL    CAS
    OPENMOLCAS       OP  ENM        O     LCA
    OPENMOLCAS    OPEN  MOLCASO     P  E  NMO
    OPENMOLCAS     OP               E  N  MOL
    OPENMOLCA   SO           PENM   O  L  CAS    OPEN    MO    LCAS
    OPENMOLCA   SOP           ENM   O  L  CAS   OP  EN  MOLC  AS   O
    OPENMOLCA   SOPE           NM      O  LCA   S      OP  EN MO
    OPENMOLC                AS         O  PEN   M      OL  CA  SOPE
    OPENMO        LCASOPE  NMOL        C  ASO   P      ENMOLC     AS
    OPE     NMO      LCA  SO     P     E   NM   OL  CA SO  PE N   MO
          OPENMOLCA            SOPE   NMO        LCAS  O    P  ENMO
     OPENMOLCASOPENMOLCASOPENMOLCASOPENMOLCA
        OPENMOLCASOPENMOLCASOPENMOLCASOPE
            OPENMOLCASOPENMOLCASOPENM
               OPENMOLCASOPENMOLCA        version: 24.02
                   OPENMOLCASO
                       OPE                tag: 126-g611b04c8f

 OpenMolcas is free software; you can redistribute it and/or modify it
 under the terms of the GNU Lesser General Public License version 2.1.
 OpenMolcas is distributed in the hope that it will be useful, but it
 is provided "as is" and without any express or implied warranties.
 For more details see the full text of the license in the file
 LICENSE or in <http://www.gnu.org/licenses/>.

                 Copyright (C) The OpenMolcas Authors
           For the author list and the recommended citation,
                   consult the file CONTRIBUTORS.md

           *************************************************
           * pymolcas version py2.28                       *
           *   build c4a6d18ded8cb6cad61d2372a9abd97c      *
           *   (after the EMIL interpreter by V. Veryazov) *
           *************************************************

configuration info
------------------
Host name: debian (Linux)
C Compiler ID: GNU
C flags: -std=gnu99
Fortran Compiler ID: Intel
Fortran flags: -fpp -i8 -heap-arrays
Definitions: _MOLCAS_;_I8_;_LINUX_
Parallel: OFF (GA=OFF)


   -----------------------------------------------------------------
  |
  |              Project: 2.40
  |       Submitted from: /home/grierjones/DDCASPT2/delta_ML/FN/2.40
  |         Scratch area: /tmp/2.40
  |      Save outputs to: /home/grierjones/DDCASPT2/delta_ML/FN/2.40
  |               Molcas: /usr/local
  |
  | Scratch area is empty
  |
  |       MOLCAS_DRIVER = /usr/local/pymolcas
  | MOLCAS_KEEP_WORKDIR = NO
  |  MOLCAS_NEW_WORKDIR = YES
  |       MOLCAS_NPROCS = 1
  |       MOLCAS_SOURCE = /usr/local
  |    MOLCAS_STRUCTURE = 0
  |
   -----------------------------------------------------------------

++ ---------   Input file   ---------

&GATEWAY
coord=2.40.xyz
Basis = ANO-RCC-MB
Group = nosymm
End of Input

&SEWARD
End of Input

&SCF
UHF

&MBPT2
Frozen
0

&RASSCF
Title= RASSCF
FileOrb
/home/grierjones/DDCASPT2/delta_ML/FN/2.30/2.30.RasOrb

NACTEL
2 0 0
Inactive
7
RAS2
2
Symmetry
1
Spin
1
orblisting
all
ITERation
200 100
CIMX
200
SDAV
500

&CASPT2
Imaginary Shift
0.0
Frozen
0

-- ----------------------------------

--- Start Module: gateway at Thu Apr 25 13:56:29 2024 ---
 
()()()()()()()()()()()()()()()()()()()()()()()()()()()()()()()()()()()()()()()()()()()()()()()()()()

                                              &GATEWAY

                                   only a single process is used
                       available to each process: 2.0 GB of memory, 1 thread?
                                            pid: 109633
()()()()()()()()()()()()()()()()()()()()()()()()()()()()()()()()()()()()()()()()()()()()()()()()()()
 
 
++    Symmetry information:
      ---------------------
 
                    Character Table for C1 
 
                             E  
                    a        1  x, y, xy, Rz, z, xz, Ry, yz, Rx, I
--
 
 
++    Basis set information:
      ----------------------
 
 
      Basis set label: F.ANO-RCC...2S1P.
 
      Electronic valence basis set:
      ------------------
      Associated Effective Charge   9.000000 au
      Associated Actual Charge      9.000000 au
      Nuclear Model: Point charge
 
      Shell  nPrim  nBasis  Cartesian Spherical Contaminant
         s      14       2        X                  
         p       9       1        X                  
 
 
      Basis set label: N.ANO-RCC...2S1P.
 
      Electronic valence basis set:
      ------------------
      Associated Effective Charge   7.000000 au
      Associated Actual Charge      7.000000 au
      Nuclear Model: Point charge
 
      Shell  nPrim  nBasis  Cartesian Spherical Contaminant
         s      14       2        X                  
         p       9       1        X                  
--
 
 
++    Molecular structure info:
      -------------------------
 
                    ************************************************ 
                    **** Cartesian Coordinates / Bohr, Angstrom **** 
                    ************************************************ 
 
     Center  Label                x              y              z                     x              y              z
        1      F1               0.000000       0.000000       0.000000              0.000000       0.000000       0.000000
        2      N2               0.000000       0.000000       4.535343              0.000000       0.000000       2.400000
--
 
 
            Nuclear Potential Energy             13.89090179 au
 
--- Stop Module: gateway at Thu Apr 25 13:56:30 2024 /rc=_RC_ALL_IS_WELL_ ---
*** files: xmldump
    saved to directory /home/grierjones/DDCASPT2/delta_ML/FN/2.40

--- Start Module: seward at Thu Apr 25 13:56:30 2024 ---
 
()()()()()()()()()()()()()()()()()()()()()()()()()()()()()()()()()()()()()()()()()()()()()()()()()()

                                              &SEWARD

                                   only a single process is used
                       available to each process: 2.0 GB of memory, 1 thread?
                                            pid: 109638
()()()()()()()()()()()()()()()()()()()()()()()()()()()()()()()()()()()()()()()()()()()()()()()()()()
 
               SEWARD will generate:
                  Multipole Moment integrals up to order  2
                  Kinetic Energy integrals
                  Nuclear Attraction integrals (point charge)
                  One-Electron Hamiltonian integrals
                  Velocity integrals
                  Relativistic Douglas-Kroll-Hess integrals:
                    - Parametrization         : EXP
                    - DKH order of Hamiltonian: 2
                    - DKH order of Properties : 0
                         - multipole moment operators
                         - electric potential operators
                         - contact operators
                  Orbital angular momentum around ( 0.0000  0.0000  1.9244 )
                  Velocity quadrupole around ( 0.0000  0.0000  1.9244 )
                  Atomic mean-field integrals
                  Two-Electron Repulsion integrals
 
                   Integrals are discarded if absolute value <: 1.00E-14
                   Integral cutoff threshold is set to       <: 1.00E-16
 
            Nuclear Potential Energy             13.89090179 au
 
 
      Basis set specifications :
      Symmetry species         a  
      Basis functions           10
 
 
      Input file to MOLDEN was generated!
 
--- Stop Module: seward at Thu Apr 25 13:56:30 2024 /rc=_RC_ALL_IS_WELL_ ---
*** files: 2.40.GssOrb 2.40.guessorb.h5 2.40.guessorb.molden xmldump
    saved to directory /home/grierjones/DDCASPT2/delta_ML/FN/2.40

*** symbolic link created: INPORB -> 2.40.GssOrb
--- Start Module: scf at Thu Apr 25 13:56:30 2024 ---
 
()()()()()()()()()()()()()()()()()()()()()()()()()()()()()()()()()()()()()()()()()()()()()()()()()()

                                                &SCF

                                   only a single process is used
                       available to each process: 2.0 GB of memory, 1 thread?
                                            pid: 109641
()()()()()()()()()()()()()()()()()()()()()()()()()()()()()()()()()()()()()()()()()()()()()()()()()()
 
++    Input section:
      --------------
 
      Header of the integral files:
      
       Integrals generated by Gateway/Seward, Thu Apr 25 13:56:30 2024
 
 
      Cartesian coordinates in Angstrom:
      -----------------------------------------------------
      No.  Label        X            Y            Z        
      -----------------------------------------------------
       1   F1         0.00000000   0.00000000   0.00000000
       2   N2         0.00000000   0.00000000   2.40000000
      -----------------------------------------------------
      Nuclear repulsion energy =   13.89090179
--
 
++    Orbital specifications:
      -----------------------
 
      Symmetry species               1
                                     a
      Frozen orbitals                0
      Occupied orbitals alpha        8
      Occupied orbitals beta         8
      Secondary orbitals alpha       2
      Secondary orbitals beta        2
      Deleted orbitals               0
      Total number of orbitals      10
      Number of basis functions     10
--
 
      Molecular charge                           0.000
 
++    Optimization specifications:
      ----------------------------
 
      SCF Algorithm: Conventional USCF
      D(i)-D(i-1) density differences are used
      Number of density matrices in core                 5
      Maximum number of NDDO SCF iterations            400
      Maximum number of HF SCF iterations              400
      Threshold for SCF energy change             1.00E-09
      Threshold for density matrix                1.00E-04
      Threshold for Fock matrix                   1.50E-04
      Threshold for linear dependence             1.00E-09
      Threshold at which DIIS is turned on        1.50E-01
      Maximum depth in the DIIS procedure                5
      Maximum depth in the BFGS Hessian update          30
      Threshold at which QNR/C2DIIS is turned on  7.50E-02
      Threshold for Norm(delta) (QNR/C2DIIS)      1.00E-03
      All orbitals punched on: UHFORB
--
 
      Input vectors read from INPORB
      Orbital file label: *Guess orbitals
 
 
++ Convergence information
                               UHF SCF        iterations: Energy and convergence statistics
 
Iter     Tot. SCF        One-elec.       Two-elec.     Energy      Max Dij or  Max Fij      DNorm      TNorm      AccCon     Time
         Energy          Energy          Energy        Change      Delta Norm                                                in Sec.
   1  -153.534834630  -243.025005905    75.599269489   0.00E+00    8.31E-01*   9.73E-02*    5.80E+00   2.97E+01   None         0.
   2  -153.360325269  -239.997230618    72.746003563   1.75E-01*   3.53E-01*   5.72E-02*    1.78E+00   2.91E+01   EDIIS        0.
   3  -153.593225233  -241.662500974    74.178373955  -2.33E-01*   1.54E-01*   4.23E-02*    6.67E-01   2.94E+01   EDIIS        0.
   4  -153.598134041  -242.144271623    74.655235797  -4.91E-03*   1.94E-01*   3.19E-02*    3.80E-01   2.95E+01   EDIIS        0.
   5  -153.600475871  -241.638948267    74.147570610  -2.34E-03*   5.60E-02*   1.85E-02*    3.06E-01   2.94E+01   EDIIS        0.
   6  -153.602729927  -241.937019800    74.443388086  -2.25E-03*   1.89E-02*   6.94E-03*    1.29E-01   2.95E+01   c2DIIS       0.
   7  -153.603167484  -241.834543858    74.340474588  -4.38E-04*   1.82E-02*   2.71E-03*    4.65E-02   2.95E+01   QNRc2DIIS    0.
   8  -153.603202413  -241.857438023    74.363333825  -3.49E-05*   1.21E-02*   1.47E-03*    2.39E-02   2.95E+01   QNRc2DIIS    0.
   9  -153.603216021  -241.845233402    74.351115595  -1.36E-05*   2.59E-04    2.38E-05     1.56E-02   2.95E+01   QNRc2DIIS    0.
  10  -153.603216027  -241.845056956    74.350939142  -6.03E-09*   1.73E-05    4.05E-06     3.44E-04   2.95E+01   QNRc2DIIS    0.
 DIIS_X: Reduction of the subspace dimension due to numerical imbalance of the v
 alues in the B-Matrix
 kOptim=                     5 -> kOptim=                     4
 DIIS_X: Reduction of the subspace dimension due to numerical imbalance of the v
 alues in the B-Matrix
 kOptim=                     4 -> kOptim=                     3
  11  -153.603216027  -241.845069559    74.350951746  -5.72E-11    1.25E-06    1.70E-07     2.59E-05   2.95E+01   QNRc2DIIS    0.
 
       Convergence after  11 Macro Iterations
--
 
 *****************************************************************************************************************************
 *                                                                                                                           *
 *                                             SCF/KS-DFT Program, Final results                                             *
 *                                                                                                                           *
 *                                                                                                                           *
 *                                                                                                                           *
 *                                                       Final Results                                                       *
 *                                                                                                                           *
 *****************************************************************************************************************************
 
::    Total SCF energy                               -153.6032160275
      One-electron energy                            -241.8450695594
      Two-electron energy                              74.3509517457
      Nuclear repulsion energy                         13.8909017862
      Kinetic energy (interpolated)                   155.1498802297
      Virial theorem                                    0.9900311608
      Total spin, S(S+1)                               -0.0000000000
      Total spin, S                                    -0.0000000000
      Max non-diagonal density matrix element           0.0000006512
      Max non-diagonal Fock matrix element              0.0000000913
 
 
      All orbitals with orbital energies smaller than  E(LUMO)+0.5 are printed
 
++    Molecular orbitals:
      -------------------
 
      Title: UHF orbitals (alpha)

      Molecular orbitals for symmetry species 1: a  
 
          Orbital            1         2         3         4         5         6         7         8         9        10    
          Energy          -26.1374  -15.8417   -1.4257   -1.0683   -0.5807   -0.5465   -0.5433   -0.4279   -0.0889   -0.0337
          Occ. No.          1.0000    1.0000    1.0000    1.0000    1.0000    1.0000    1.0000    1.0000    0.0000    0.0000
 
        1 F1     1s         1.0000   -0.0000    0.0027   -0.0015   -0.0000   -0.0000   -0.0000    0.0023    0.0036   -0.0000
        2 F1     2s        -0.0029   -0.0002    0.9966   -0.0666   -0.0000   -0.0000   -0.0000    0.0483    0.0664   -0.0000
        3 F1     2px        0.0000    0.0000    0.0000    0.0000    0.2350   -0.4454    0.8640    0.0000   -0.0000    0.0234
        4 F1     2py       -0.0000    0.0000   -0.0000   -0.0000    0.1171    0.8942    0.4304    0.0000   -0.0000   -0.0469
        5 F1     2pz        0.0002   -0.0001    0.0083    0.0401    0.0000    0.0000    0.0000   -0.8004    0.6090   -0.0000
        6 N2     1s        -0.0000    1.0000   -0.0003    0.0063   -0.0000   -0.0000   -0.0000    0.0045   -0.0032    0.0000
        7 N2     2s        -0.0001   -0.0065    0.0383    0.9958   -0.0000   -0.0000   -0.0000    0.0793   -0.0824    0.0000
        8 N2     2px        0.0000    0.0000    0.0000    0.0000    0.8574   -0.0113   -0.2583   -0.0000   -0.0000   -0.4459
        9 N2     2py       -0.0000   -0.0000   -0.0000   -0.0000    0.4270    0.0227   -0.1287    0.0000    0.0000    0.8951
       10 N2     2pz        0.0000   -0.0003   -0.0214    0.0203   -0.0000   -0.0000   -0.0000    0.5357    0.8506   -0.0000
--
 
 
      Input file to MOLDEN was generated!
 
 
++    Static properties:
      ------------------
 
 
      LoProp Charges per center
 

                   F1       N2    
      Nuclear      9.0000   7.0000
      Electronic  -9.3501  -6.6499
 
      Total       -0.3501   0.3501
--
 
 
      All orbitals with orbital energies smaller than  E(LUMO)+0.5 are printed
 
++    Molecular orbitals:
      -------------------
 
      Title: UHF orbitals (beta)

      Molecular orbitals for symmetry species 1: a  
 
          Orbital            1         2         3         4         5         6         7         8         9        10    
          Energy          -26.1374  -15.8417   -1.4257   -1.0683   -0.5807   -0.5465   -0.5433   -0.4279   -0.0889   -0.0337
          Occ. No.          1.0000    1.0000    1.0000    1.0000    1.0000    1.0000    1.0000    1.0000    0.0000    0.0000
 
        1 F1     1s         1.0000   -0.0000    0.0027   -0.0015   -0.0000   -0.0000   -0.0000    0.0023    0.0036   -0.0000
        2 F1     2s        -0.0029   -0.0002    0.9966   -0.0666   -0.0000   -0.0000   -0.0000    0.0483    0.0664   -0.0000
        3 F1     2px        0.0000    0.0000    0.0000    0.0000    0.2350   -0.4454    0.8640    0.0000   -0.0000    0.0234
        4 F1     2py       -0.0000    0.0000   -0.0000   -0.0000    0.1171    0.8942    0.4304    0.0000   -0.0000   -0.0469
        5 F1     2pz        0.0002   -0.0001    0.0083    0.0401    0.0000    0.0000    0.0000   -0.8004    0.6090   -0.0000
        6 N2     1s        -0.0000    1.0000   -0.0003    0.0063   -0.0000   -0.0000   -0.0000    0.0045   -0.0032    0.0000
        7 N2     2s        -0.0001   -0.0065    0.0383    0.9958   -0.0000   -0.0000   -0.0000    0.0793   -0.0824    0.0000
        8 N2     2px        0.0000    0.0000    0.0000    0.0000    0.8574   -0.0113   -0.2583   -0.0000   -0.0000   -0.4459
        9 N2     2py       -0.0000   -0.0000   -0.0000   -0.0000    0.4270    0.0227   -0.1287    0.0000    0.0000    0.8951
       10 N2     2pz        0.0000   -0.0003   -0.0214    0.0203   -0.0000   -0.0000   -0.0000    0.5357    0.8506   -0.0000
--
 
 
++    Molecular charges:
      ------------------
 
      Mulliken charges per centre and basis function type
      ---------------------------------------------------
 
                            F1                      N2    
                     alpha        beta       alpha        beta
      1s           1.0000      1.0000      1.0000      1.0000
      2s           0.9991      0.9991      0.9970      0.9970
      2px          0.9997      0.9997      0.8015      0.8015
      2pz          0.6785      0.6785      0.3255      0.3255
      2py          0.9989      0.9989      0.1998      0.1998
      Total        4.6762      4.6762      3.3238      3.3238
      Total              9.3524                  6.6476
 
      Charge           -0.3524                  0.3524
 
      Total electronic charge=   16.000000
 
      Total            charge=   -0.000000
--
 
 
      Input file to MOLDEN was generated!
 
 
++    Static properties:
      ------------------
 
 
      LoProp Charges per center
 

                   F1       N2    
      Nuclear      9.0000   7.0000
      Electronic  -9.3501  -6.6499
 
      Total       -0.3501   0.3501
--
 
 
++    Natural Bond Order analysis
      ---------------------------
      Based on LoProp computed density
      -------------------------------------------------------------------------------------
      Atom A       Atom B       Bond Order
      -------------------------------------------------------------------------------------
      NBO located      1.000 non-bonded electrons on atom F1        
      NBO located      1.002 non-bonded electrons on atom F1        
      NBO located      0.998 non-bonded electrons on atom F1        
      NBO located      1.000 non-bonded electrons on atom F1        
      The remaining    4.069 electrons are to be considered as diffuse
--
 
 
++    Molecular orbitals:
      -------------------
 
      Title: Natural orbitals

      Molecular orbitals for symmetry species 1: a  
 
          Orbital            1         2         3         4         5         6         7         8         9        10    
          Energy          -26.1374  -15.8417   -1.4257   -1.0683   -0.5807   -0.5465   -0.5433   -0.4279   -0.0889   -0.0337
          Occ. No.          2.0000    2.0000    2.0000    2.0000    2.0000    2.0000    2.0000    2.0000    0.0000    0.0000
 
        1 F1     1s         1.0000   -0.0000    0.0027   -0.0015   -0.0000   -0.0000   -0.0000   -0.0023    0.0036   -0.0000
        2 F1     2s        -0.0029   -0.0002    0.9966   -0.0666   -0.0000   -0.0000   -0.0000   -0.0483    0.0664   -0.0000
        3 F1     2px        0.0000    0.0000    0.0000    0.0000    0.2350   -0.4454    0.8640   -0.0000   -0.0000    0.0234
        4 F1     2py       -0.0000    0.0000   -0.0000   -0.0000    0.1171    0.8942    0.4304   -0.0000   -0.0000   -0.0469
        5 F1     2pz        0.0002   -0.0001    0.0083    0.0401    0.0000    0.0000    0.0000    0.8004    0.6090   -0.0000
        6 N2     1s        -0.0000    1.0000   -0.0003    0.0063   -0.0000   -0.0000   -0.0000   -0.0045   -0.0032    0.0000
        7 N2     2s        -0.0001   -0.0065    0.0383    0.9958   -0.0000   -0.0000   -0.0000   -0.0793   -0.0824    0.0000
        8 N2     2px        0.0000    0.0000    0.0000    0.0000    0.8574   -0.0113   -0.2583    0.0000   -0.0000   -0.4459
        9 N2     2py       -0.0000   -0.0000   -0.0000   -0.0000    0.4270    0.0227   -0.1287   -0.0000    0.0000    0.8951
       10 N2     2pz        0.0000   -0.0003   -0.0214    0.0203   -0.0000   -0.0000   -0.0000   -0.5357    0.8506   -0.0000
--
 
 
++    Molecular properties:
      ---------------------
 
      Charge (e):
                      =   -0.0000
      Dipole Moment (Debye):
      Origin of the operator (Ang)=    0.0000    0.0000    0.0000
                   X=  6.4857E-15               Y=  7.0642E-14               Z=  3.8284E+00           Total=  3.8284E+00
      Quadrupole Moment (Debye*Ang):
      Origin of the operator (Ang)=    0.0000    0.0000    1.0184
                  XX= -1.1107E+01              XY= -1.0149E+00              XZ= -2.4090E-14              YY= -9.5748E+00
                  YZ= -4.0447E-13              ZZ= -8.2012E+00
      In traceless form (Debye*Ang)
                  XX= -2.2188E+00              XY= -1.5223E+00              XZ= -3.6135E-14              YY=  7.9211E-02
                  YZ= -6.0670E-13              ZZ=  2.1396E+00
--
 
 
      Input file to MOLDEN was generated!
 
 ###############################################################################
 ###############################################################################
 ###                                                                         ###
 ###                                                                         ###
 ###    WARNING: RunFile label nBas                                          ###
 ###    was used       87 times                                              ###
 ###                                                                         ###
 ###                                                                         ###
 ###############################################################################
 ###############################################################################
--- Stop Module: scf at Thu Apr 25 13:56:31 2024 /rc=_RC_ALL_IS_WELL_ ---
*** files: 2.40.LprOrb 2.40.LoProp.molden 2.40.scf.molden 2.40.scf.h5 2.40.UhfOrb 2.40.UnaOrb xmldump
    saved to directory /home/grierjones/DDCASPT2/delta_ML/FN/2.40

*** symbolic link created: INPORB -> 2.40.UnaOrb
--- Start Module: mbpt2 at Thu Apr 25 13:56:31 2024 ---
 
()()()()()()()()()()()()()()()()()()()()()()()()()()()()()()()()()()()()()()()()()()()()()()()()()()

                                               &MBPT2

                                   only a single process is used
                       available to each process: 2.0 GB of memory, 1 thread?
                                            pid: 109645
()()()()()()()()()()()()()()()()()()()()()()()()()()()()()()()()()()()()()()()()()()()()()()()()()()
 
 
 ###############################################################################
 ###############################################################################
 ###                                                                         ###
 ###                                                                         ###
 ###    WARNING: MP2 implementation intended for RHF references only         ###
 ###                                                                         ###
 ###                                                                         ###
 ###############################################################################
 ###############################################################################
MBPT2 WARNING: Reference function according to RunFile:UHF-SCF 
I'll assume you know what you're doing and continue
 
 
WARNING!
Default frozen orbitals as non valence orbitals is overwritten by user input.
Default values:   2
 
 
      Cartesian coordinates in Angstrom:
      -----------------------------------------------------
      No.  Label        X            Y            Z        
      -----------------------------------------------------
       1   F1         0.00000000   0.00000000   0.00000000
       2   N2         0.00000000   0.00000000   2.40000000
      -----------------------------------------------------
      Nuclear repulsion energy =   13.89090179
 
      Contents of RUNFILE file:
      -------------------------
 
      Symmetry species                           1
                                                 a
      Number of basis functions                 10
      Frozen occupied orbitals                   0
      Active occupied orbitals                   8
      Active external orbitals                   2
      Deleted external orbitals                  0
 
 
      Energies of the active occupied orbitals
 
      symmetry species 1                   -26.137428    -15.841745     -1.425735     -1.068277     -0.580739
                                            -0.546463     -0.543280     -0.427916
 
 
      Energies of the active external orbitals
 
      symmetry species 1                    -0.088923     -0.033694
 
 
      ********************************************************************************************************
      *                                               Results                                                *
      ********************************************************************************************************
 
 Conventional algorithm used...

       SCF energy                           =     -153.6032160275 a.u.
       Second-order correlation energy      =       -0.1176332397 a.u.

       Total energy                         =     -153.7208492672 a.u.
       Reference weight ( Cref**2 )         =        0.86507
 
::    Total MBPT2 energy                             -153.7208492672
 
 
       Zeroth-order energy (E0)             =      -79.2522642818 a.u.
 
       Shanks-type energy S1(E)             =     -153.7210356738 a.u.
 
 


       Data processing and timing information:

       Section                                              time(sec)
                                                          CPU  Elapsed

      Input data processing                              0.02      0.02
      Transformation of integrals                        0.00      0.00
      MBPT2 calculations (BJAI)                          0.00      0.00
      Total MBPT2 calculations                           0.02      0.02
 
 
--- Stop Module: mbpt2 at Thu Apr 25 13:56:31 2024 /rc=_RC_ALL_IS_WELL_ ---
*** files: xmldump
    saved to directory /home/grierjones/DDCASPT2/delta_ML/FN/2.40

*** symbolic link created: INPORB -> 2.40.UnaOrb
--- Start Module: rasscf at Thu Apr 25 13:56:31 2024 ---
 
()()()()()()()()()()()()()()()()()()()()()()()()()()()()()()()()()()()()()()()()()()()()()()()()()()

                                              &RASSCF

                                   only a single process is used
                       available to each process: 2.0 GB of memory, 1 thread?
                                            pid: 109648
()()()()()()()()()()()()()()()()()()()()()()()()()()()()()()()()()()()()()()()()()()()()()()()()()()
 
 
      Header of the ONEINT file:
      --------------------------
      
      Integrals generated by Gateway/Seward, Thu Apr 25 13:56:30 2024
 
 
      OrdInt status: non-squared
 
 
      Cartesian coordinates in Angstrom:
      -----------------------------------------------------
      No.  Label        X            Y            Z        
      -----------------------------------------------------
       1   F1         0.00000000   0.00000000   0.00000000
       2   N2         0.00000000   0.00000000   2.40000000
      -----------------------------------------------------
      Nuclear repulsion energy =   13.89090179
 
++    Wave function specifications:
      -----------------------------
 
      Number of closed shell electrons          14
      Number of electrons in active shells       2
      Max number of holes in RAS1 space          0
      Max nr of electrons in RAS3 space          0
      Number of inactive orbitals                7
      Number of active orbitals                  2
      Number of secondary orbitals               1
      Spin quantum number                      0.0
      State symmetry                             1
--
 
++    Orbital specifications:
      -----------------------
 
      Symmetry species                           1
                                                 a
      Frozen orbitals                            0
      Inactive orbitals                          7
      Active orbitals                            2
      RAS1 orbitals                              0
      RAS2 orbitals                              2
      RAS3 orbitals                              0
      Secondary orbitals                         1
      Deleted orbitals                           0
      Number of basis functions                 10
--
 
++    CI expansion specifications:
      ----------------------------
 
      Number of CSFs                             3
      Number of determinants                     3
      Number of root(s) required                 1
      Root chosen for geometry opt.              1
      CI root used                               1
         
      highest root included in the CI            1
      max. size of the explicit Hamiltonian      3
--
 
++    Optimization specifications:
      ----------------------------
 
      RASSCF algorithm: Conventional
      Maximum number of macro iterations       200
      Maximum number of SX iterations          100
      Threshold for RASSCF energy            1.000E-08
      Threshold for max MO rotation          1.000E-01
      Threshold for max BLB element          1.000E-04
      Level shift parameter                  5.000E-01
      Make Quasi-Newton update
--
 
      The MO-coefficients are taken from the file:
      /home/grierjones/DDCASPT2/delta_ML/FN/2.30/2.30.RasOrb                                                                                                                                                                                                          
      Title: RASSCF average (pseudo-natural) orbitals                                      
 
      Total molecular charge    0.00
 
      ************************************************************************************************************************
      *                                                                                                                      *
      *                                            Wave function control section                                             *
      *                                                                                                                      *
      ************************************************************************************************************************
 
 
                                         RASSCF iterations: Energy and convergence statistics
                                         ----------------------------------------------------
 
      Iter CI   SX   CI       RASSCF       Energy    max ROT     max BLB   max BLB  Level Ln srch  Step   QN   Walltime
          iter iter root      energy       change     param      element    value   shift minimum  type update hh:mm:ss
 Nr of preliminary CI iterations:   1
        1   1    3    1  -153.63994288    0.00E+00   2.36E-03    4  10 1 -6.41E-03*  0.38   0.00    SX    NO    0:00:00
        2   1    3    1  -153.63998594   -4.31E-05*  1.10E-03    4  10 1 -2.98E-03*  0.38   0.00    SX    NO    0:00:00
        3   1    3    1  -153.63999477   -8.82E-06*  5.11E-04    4  10 1 -1.39E-03*  0.38   0.00    SX    NO    0:00:00
        4   1    3    1  -153.63999666   -1.89E-06*  2.38E-04    4  10 1 -6.46E-04*  0.38   0.00    SX    NO    0:00:00
        5   1    3    1  -153.63999707   -4.12E-07*  2.10E-04    4  10 1 -3.01E-04*  0.38   1.88    LS   YES    0:00:00
        6   1    2    1  -153.63999718   -1.16E-07*  1.26E-05    3  10 1 -4.37E-05   0.38   1.00    QN   YES    0:00:00
        7   1    2    1  -153.63999719   -9.39E-10   8.06E-06    3  10 1 -1.69E-05   0.38   1.65    QN   YES    0:00:00
      Convergence after  7 iterations
        8   1    2    1  -153.63999719   -1.75E-10   8.06E-06    4  10 1  5.41E-07   0.38   1.65    QN   YES    0:00:00
 
      ************************************************************************************************************************
                                                      Wave function printout:
                       occupation of active orbitals, and spin coupling of open shells (u,d: Spin up or down)
      ************************************************************************************************************************
 
      Note: transformation to natural orbitals
      has been made, which may change the order of the CSFs.
 
      printout of CI-coefficients larger than  0.05 for root  1
      energy=    -153.639997
      conf/sym  11     Coeff  Weight
             2  ud   1.00000 1.00000
 
      Natural orbitals and occupation numbers for root  1
      sym 1:   1.000000   1.000000
 
      ************************************************************************************************************************
      *                                                                                                                      *
      *                                                    Final results                                                     *
      *                                                                                                                      *
      ************************************************************************************************************************
 
 
++    Wave function specifications:
      -----------------------------
 
      Number of closed shell electrons          14
      Number of electrons in active shells       2
      Max number of holes in RAS1 space          0
      Max nr of electrons in RAS3 space          0
      Number of inactive orbitals                7
      Number of active orbitals                  2
      Number of secondary orbitals               1
      Spin quantum number                      0.0
      State symmetry                             1
--
 
++    Orbital specifications:
      -----------------------
 
      Symmetry species                           1
                                                 a
      Frozen orbitals                            0
      Inactive orbitals                          7
      Active orbitals                            2
      RAS1 orbitals                              0
      RAS2 orbitals                              2
      RAS3 orbitals                              0
      Secondary orbitals                         1
      Deleted orbitals                           0
      Number of basis functions                 10
--
 
++    CI expansion specifications:
      ----------------------------
 
      Number of CSFs                             3
      Number of determinants                     3
      Number of root(s) required                 1
      CI root used                               1
      highest root included in the CI            1
      Root passed to geometry opt.               1
--
 
++    Final optimization conditions:
      ------------------------------
 
      Average CI energy                            -153.63999719
      RASSCF energy for state  1                   -153.63999719
      Super-CI energy                                -0.00000000
      RASSCF energy change                           -0.00000000
      Max change in MO coefficients               6.856E-06
      Max non-diagonal density matrix element     8.062E-06
      Maximum BLB matrix element                  5.413E-07
      (orbital pair   4,  10 in symmetry   1)
      Norm of electronic gradient            6.903E-07
--
 
 
      Final state energy(ies):
      ------------------------
 
::    RASSCF root number  1 Total energy:   -153.63999719
 
++    Molecular orbitals:
      -------------------
 
      Pseudonatural active orbitals and approximate occupation numbers
 
 
 
 
      Molecular orbitals for symmetry species 1: a  
 
 
      Orbital                 1         2         3         4         5         6         7         8         9        10
      Energy           -26.1376  -15.8415   -1.4258   -1.0682   -0.5468   -0.5468   -0.4278   -0.3053    0.0000   -0.0889
      Occ. No.           2.0000    2.0000    2.0000    2.0000    2.0000    2.0000    2.0000    1.0000    1.0000    0.0000
 
     1 F1     1s         1.0000   -0.0000   -0.0027    0.0015   -0.0000   -0.0000    0.0023    0.0000   -0.0000    0.0036
     2 F1     2s        -0.0029   -0.0002   -0.9966    0.0666   -0.0000   -0.0000    0.0483    0.0000   -0.0000    0.0664
     3 F1     2px        0.0000    0.0000   -0.0000   -0.0000    0.7457    0.6651    0.0000   -0.0212   -0.0441   -0.0000
     4 F1     2py       -0.0000    0.0000    0.0000    0.0000   -0.6651    0.7457    0.0000   -0.0441    0.0212    0.0000
     5 F1     2pz        0.0002   -0.0001   -0.0083   -0.0401    0.0000    0.0000   -0.8002   -0.0000    0.0000    0.6093
     6 N2     1s        -0.0000    1.0000    0.0003   -0.0063    0.0000   -0.0000    0.0045    0.0000   -0.0000   -0.0032
     7 N2     2s        -0.0001   -0.0065   -0.0382   -0.9958   -0.0000    0.0000    0.0793    0.0000    0.0000   -0.0824
     8 N2     2px        0.0000    0.0000   -0.0000    0.0000    0.0163    0.0146   -0.0000    0.4333    0.9014   -0.0000
     9 N2     2py       -0.0000   -0.0000    0.0000    0.0000   -0.0146    0.0163   -0.0000    0.9014   -0.4333    0.0000
    10 N2     2pz        0.0000   -0.0003    0.0214   -0.0203   -0.0000   -0.0000    0.5361    0.0000    0.0000    0.8504
--
 
      Von Neumann Entropy (Root   1) =  1.00000
 

      Mulliken population analysis for root number:  1
      -----------------------------------------------
 
 
++    Molecular charges:
      ------------------
 
      Mulliken charges per centre and basis function type
      ---------------------------------------------------
 
                F1      N2    
      1s       2.0000  2.0000
      2s       1.9981  1.9940
      2px      1.9989  1.0011
      2pz      1.3562  0.6517
      2py      1.9989  1.0011
      Total    9.3522  6.6478
 
      N-E     -0.3522  0.3522
 
      Total electronic charge=   16.000000
 
      Total            charge=   -0.000000
--
 
 

      Expectation values of various properties for root number:  1
      -----------------------------------------------------------
 
 
++    Molecular properties:
      ---------------------
 
      Charge (e):
                      =   -0.0000
      Dipole Moment (Debye):
      Origin of the operator (Ang)=    0.0000    0.0000    0.0000
                   X=  4.3996E-14               Y=  5.1797E-14               Z=  3.8256E+00           Total=  3.8256E+00
      Quadrupole Moment (Debye*Ang):
      Origin of the operator (Ang)=    0.0000    0.0000    1.0184
                  XX= -1.0340E+01              XY= -2.5469E-13              XZ=  6.2076E-14              YY= -1.0340E+01
                  YZ=  1.2042E-13              ZZ= -8.2038E+00
      In traceless form (Debye*Ang)
                  XX= -1.0681E+00              XY= -3.8203E-13              XZ=  9.3115E-14              YY= -1.0681E+00
                  YZ=  1.8063E-13              ZZ=  2.1363E+00
--
 

      LoProp population analysis for root number:  1
      -----------------------------------------------
 
 
++    LoProp analysis:
      ----------------
 
 
 
      Input file to MOLDEN was generated!
 
 
++    Static properties:
      ------------------
 
 
      LoProp Charges per center
 

                   F1       N2    
      Nuclear      9.0000   7.0000
      Electronic  -9.3499  -6.6501
 
      Total       -0.3499   0.3499
--
 
 
      Natural Bond Order analysis for root number:  1
 
++    Natural Bond Order analysis
      ---------------------------
      Based on LoProp computed density
      -------------------------------------------------------------------------------------
      Atom A       Atom B       Bond Order
      -------------------------------------------------------------------------------------
      NBO located      1.000 non-bonded electrons on atom F1        
      NBO located      1.002 non-bonded electrons on atom F1        
      NBO located      0.999 non-bonded electrons on atom F1        
      NBO located      0.999 non-bonded electrons on atom F1        
      The remaining    4.069 electrons are to be considered as diffuse
--
 
--
 
 
      Input file to MOLDEN was generated!
 
      Average orbitals are written to the RASORB file
      Natural orbitals for root   1 are written to the RASORB.1 file
      Spin density orbitals for root   1 are written to the SPDORB.1 file
 
--- Stop Module: rasscf at Thu Apr 25 13:56:31 2024 /rc=_RC_ALL_IS_WELL_ ---
*** files: 2.40.LprOrb 2.40.rasscf.molden 2.40.LoProp.molden 2.40.RasOrb 2.40.RasOrb.1 2.40.rasscf.h5 2.40.SpdOrb.1 xmldump
    saved to directory /home/grierjones/DDCASPT2/delta_ML/FN/2.40

*** symbolic link created: INPORB -> 2.40.RasOrb
--- Start Module: caspt2 at Thu Apr 25 13:56:31 2024 ---
 
()()()()()()()()()()()()()()()()()()()()()()()()()()()()()()()()()()()()()()()()()()()()()()()()()()

                                              &CASPT2

                                   only a single process is used
                       available to each process: 2.0 GB of memory, 1 thread?
                                            pid: 109651
()()()()()()()()()()()()()()()()()()()()()()()()()()()()()()()()()()()()()()()()()()()()()()()()()()
 
 ###############################################################################
 ###############################################################################
 ###                                                                         ###
 ###                                                                         ###
 ###    WARNING: User changed nr of frozen orbitals.                         ###
 ###                                                                         ###
 ###                                                                         ###
 ###############################################################################
 ###############################################################################
 
++    Wave function specifications:
      -----------------------------
 
      Number of closed shell electrons          14
      Number of electrons in active shells       2
      Max number of holes in RAS1 space          0
      Max number of electrons in RAS3 space      0
      Number of inactive orbitals                7
      Number of active orbitals                  2
      Number of secondary orbitals               1
      Spin quantum number                      0.0
      State symmetry                             1
      Number of CSFs                             3
      Number of CASSCF root(s) available         1
      CASPT2 state passed to geometry opt.       1
      A file JOBMIX will be created
      This is a CASSCF or RASSCF reference function
--
 
++    Orbital specifications:
      -----------------------
 
      Symmetry species                           1
                                                 a
      Frozen orbitals                            0
      Inactive orbitals                          7
      Active orbitals                            2
      Secondary orbitals                         1
      Deleted orbitals                           0
      Number of basis functions                 10
--
 
++    CASPT2 specifications:
      ----------------------
 
      Type of calculation                        SS-CASPT2
      Fock operator                              state-specific
      IPEA shift                                 0.25
      Real shift                                 0.00
      Imaginary shift                            0.00
      The input orbitals will be transformed to quasi-canonical
--
 
--------------------------------------------------------------------------------
 Estimated memory requirements:
  POLY3 :                   250070
  RHS:                      250374
  SIGMA :                   250336
  PRPCTL:                        0
 Available workspace:    230392690
 
++ CASPT2 computation for group   1
 
********************************************************************************
 Multi-State initialization phase begins for group   1
--------------------------------------------------------------------------------
********************************************************************************
 Compute H0 matrices for state    1
--------------------------------------------------------------------------------
--------------------------------------------------------------------------------
 H0 matrices have been computed.
 
********************************************************************************
  CASPT2 EQUATION SOLUTION
--------------------------------------------------------------------------------
 
  Total nr of CASPT2 parameters:
   Before reduction:         368
   After  reduction:         213
 
 Variance of |WF0>:       0.0831007617
 
 The contributions to the second order correlation energy in atomic units.
-----------------------------------------------------------------------------------------------------------------------------
  IT.      VJTU        VJTI        ATVX        AIVX        VJAI        BVAT        BJAT        BJAI        TOTAL       RNORM  
-----------------------------------------------------------------------------------------------------------------------------
   1    -0.000000   -0.000005   -0.000000    0.000000   -0.001716   -0.000000   -0.000000   -0.104369   -0.106090    0.000008
-----------------------------------------------------------------------------------------------------------------------------
 
  FINAL CASPT2 RESULT:
 
      Reference energy:        -153.6399971855
      E2 (Non-variational):      -0.1060904237
      E2 (Variational):          -0.1060904237
      Total energy:            -153.7460876092
      Residual norm:              0.0000000246
      Reference weight:           0.86960
 
      Contributions to the CASPT2 correlation energy
      Active & Virtual Only:         -0.0000000000
      One Inactive Excited:          -0.0000000343
      Two Inactive Excited:          -0.1060903894
 
 
++ Denominators, etc.
--------------------------------------------------------------------------------------------------------------
 Report on small energy denominators, large coefficients, and large energy contributions.
CASE  SYMM ACTIVE-MIX  NON-ACTIVE INDICES          DENOMINATOR     RHS VALUE       COEFFICIENT     CONTRIBUTION
VJTU     1  Mu1.0001  In1.007                       0.21633982      0.00000000     -0.00000000     -0.00000000
VJTU     1  Mu1.0002  In1.007                       0.21633982     -0.00000000     -0.00000000      0.00000000
VJAIM    1  Mu1.0001  Se1.010 In1.007 In1.005       0.70552040     -0.01803986      0.02557546     -0.00046138
VJAIM    1  Mu1.0002  Se1.010 In1.007 In1.006       0.70552040     -0.01803986      0.02557546     -0.00046138
BJAIP    1  Se1.010 In1.004 Se1.010 In1.004         1.95853825      0.09495361     -0.04848188     -0.00460353
BJAIP    1  Se1.010 In1.007 Se1.010 In1.007         0.67791969      0.25721430     -0.37941707     -0.09759150
--
 
   (Skipping property calculation,
    use PROP keyword to activate)
--
 
  Total CASPT2 energies:
::    CASPT2 Root  1     Total energy:   -153.74608761
 
  A NEW JOBIPH FILE NAMED 'JOBMIX' IS PREPARED.
********************************************************************************
--- Stop Module: caspt2 at Thu Apr 25 13:56:32 2024 /rc=_RC_ALL_IS_WELL_ ---
*** files: xmldump
    saved to directory /home/grierjones/DDCASPT2/delta_ML/FN/2.40

.##################.
.# Happy landing! #.
.##################.

    Timing: Wall=2.20 User=1.47 System=0.27
************************************
*** WorkDir at /tmp/2.40 removed ***
************************************
