[Molden Format]
[N_Atoms]
                     2
[Atoms] (AU)
O1          1      8           0.00000000      0.00000000      0.00000000
O2          2      8           0.00000000      0.00000000      2.26767135
[Charge] (Mulliken)
 -3.126388037344441E-013
  3.019806626980426E-013
[GTO] (AU)
   1
   s  14
  1.053749500E+05  1.238600013E-04
  1.567924000E+04  5.120100053E-04
  3.534544700E+03  2.152910022E-03
  9.873651600E+02  8.528440089E-03
  3.159787500E+02  3.018049031E-02
  1.116542800E+02  9.099702095E-02
  4.269945100E+01  2.177936423E-01
  1.739559600E+01  3.686245738E-01
  7.438309000E+00  3.366707335E-01
  3.222862000E+00  9.657630101E-02
  1.253877000E+00  2.144520022E-03
  4.951550000E-01  1.194350012E-03
  1.916650000E-01  5.390200056E-04
  6.708300000E-02  2.103400022E-04
   s  14
  1.053749500E+05 -2.815000008E-05
  1.567924000E+04 -1.163000003E-04
  3.534544700E+03 -4.909200013E-04
  9.873651600E+02 -1.946160005E-03
  3.159787500E+02 -7.005300019E-03
  1.116542800E+02 -2.167814006E-02
  4.269945100E+01 -5.641213015E-02
  1.739559600E+01 -1.127053003E-01
  7.438309000E+00 -1.589119704E-01
  3.222862000E+00 -3.355083009E-02
  1.253877000E+00  3.531902810E-01
  4.951550000E-01  5.534199315E-01
  1.916650000E-01  2.301839106E-01
  6.708300000E-02  1.127267003E-02
   p   9
  2.000000000E+02  9.173000030E-04
  4.653336700E+01  7.377140024E-03
  1.462180900E+01  3.483515011E-02
  5.313064000E+00  1.144397004E-01
  2.102525000E+00  2.554966408E-01
  8.502230000E-01  3.722557412E-01
  3.375970000E-01  3.323314911E-01
  1.288920000E-01  1.400847905E-01
  4.511200000E-02  2.395784008E-02
 
   2
   s  14
  1.053749500E+05  1.238600013E-04
  1.567924000E+04  5.120100053E-04
  3.534544700E+03  2.152910022E-03
  9.873651600E+02  8.528440089E-03
  3.159787500E+02  3.018049031E-02
  1.116542800E+02  9.099702095E-02
  4.269945100E+01  2.177936423E-01
  1.739559600E+01  3.686245738E-01
  7.438309000E+00  3.366707335E-01
  3.222862000E+00  9.657630101E-02
  1.253877000E+00  2.144520022E-03
  4.951550000E-01  1.194350012E-03
  1.916650000E-01  5.390200056E-04
  6.708300000E-02  2.103400022E-04
   s  14
  1.053749500E+05 -2.815000008E-05
  1.567924000E+04 -1.163000003E-04
  3.534544700E+03 -4.909200013E-04
  9.873651600E+02 -1.946160005E-03
  3.159787500E+02 -7.005300019E-03
  1.116542800E+02 -2.167814006E-02
  4.269945100E+01 -5.641213015E-02
  1.739559600E+01 -1.127053003E-01
  7.438309000E+00 -1.589119704E-01
  3.222862000E+00 -3.355083009E-02
  1.253877000E+00  3.531902810E-01
  4.951550000E-01  5.534199315E-01
  1.916650000E-01  2.301839106E-01
  6.708300000E-02  1.127267003E-02
   p   9
  2.000000000E+02  9.173000030E-04
  4.653336700E+01  7.377140024E-03
  1.462180900E+01  3.483515011E-02
  5.313064000E+00  1.144397004E-01
  2.102525000E+00  2.554966408E-01
  8.502230000E-01  3.722557412E-01
  3.375970000E-01  3.323314911E-01
  1.288920000E-01  1.400847905E-01
  4.511200000E-02  2.395784008E-02
 
[MO]
Sym=     1a  
Ene=   -20.8790
Spin= Alpha
Occup=    1.00000
   1         0.70700001
   2        -0.00049551
   3        -0.00000000
   4        -0.00000000
   5         0.00117108
   6         0.70700001
   7        -0.00049551
   8        -0.00000000
   9        -0.00000000
  10        -0.00117108
Sym=     1a  
Ene=   -20.8790
Spin= Beta
Occup=    1.00000
   1         0.70700001
   2        -0.00049551
   3        -0.00000000
   4        -0.00000000
   5         0.00117108
   6         0.70700001
   7        -0.00049551
   8        -0.00000000
   9        -0.00000000
  10        -0.00117108
Sym=     2a  
Ene=   -20.8780
Spin= Alpha
Occup=    1.00000
   1        -0.70728178
   2        -0.00088793
   3        -0.00000000
   4         0.00000000
   5        -0.00173179
   6         0.70728178
   7         0.00088793
   8        -0.00000000
   9        -0.00000000
  10        -0.00173179
Sym=     2a  
Ene=   -20.8780
Spin= Beta
Occup=    1.00000
   1        -0.70728178
   2        -0.00088793
   3        -0.00000000
   4         0.00000000
   5        -0.00173179
   6         0.70728178
   7         0.00088793
   8        -0.00000000
   9        -0.00000000
  10        -0.00173179
Sym=     3a  
Ene=    -1.7402
Spin= Alpha
Occup=    1.00000
   1        -0.02623888
   2         0.53253930
   3         0.00000000
   4        -0.00000000
   5         0.19699232
   6        -0.02623888
   7         0.53253930
   8         0.00000000
   9         0.00000000
  10        -0.19699232
Sym=     3a  
Ene=    -1.7402
Spin= Beta
Occup=    1.00000
   1        -0.02623888
   2         0.53253930
   3         0.00000000
   4        -0.00000000
   5         0.19699232
   6        -0.02623888
   7         0.53253930
   8         0.00000000
   9         0.00000000
  10        -0.19699232
Sym=     4a  
Ene=    -1.1539
Spin= Alpha
Occup=    1.00000
   1        -0.01194327
   2        -0.75043172
   3         0.00000000
   4        -0.00000000
   5         0.16060863
   6         0.01194327
   7         0.75043172
   8        -0.00000000
   9         0.00000000
  10         0.16060863
Sym=     4a  
Ene=    -1.1539
Spin= Beta
Occup=    1.00000
   1        -0.01194327
   2        -0.75043172
   3         0.00000000
   4        -0.00000000
   5         0.16060863
   6         0.01194327
   7         0.75043172
   8        -0.00000000
   9         0.00000000
  10         0.16060863
Sym=     5a  
Ene=    -0.8257
Spin= Alpha
Occup=    1.00000
   1         0.00000000
   2         0.00000000
   3         0.32949512
   4         0.54280631
   5         0.00000000
   6        -0.00000000
   7        -0.00000000
   8         0.32949512
   9         0.54280631
  10         0.00000000
Sym=     5a  
Ene=    -0.8257
Spin= Beta
Occup=    1.00000
   1         0.00000000
   2         0.00000000
   3         0.32949512
   4         0.54280631
   5         0.00000000
   6        -0.00000000
   7        -0.00000000
   8         0.32949512
   9         0.54280631
  10         0.00000000
Sym=     6a  
Ene=    -0.7615
Spin= Alpha
Occup=    1.00000
   1         0.02740999
   2         0.36864620
   3         0.00000000
   4        -0.00000000
   5        -0.63722145
   6         0.02740999
   7         0.36864620
   8         0.00000000
   9        -0.00000000
  10         0.63722145
Sym=     6a  
Ene=    -0.7615
Spin= Beta
Occup=    1.00000
   1         0.02740999
   2         0.36864620
   3         0.00000000
   4        -0.00000000
   5        -0.63722145
   6         0.02740999
   7         0.36864620
   8         0.00000000
   9        -0.00000000
  10         0.63722145
Sym=     7a  
Ene=    -0.7125
Spin= Alpha
Occup=    1.00000
   1        -0.00000000
   2        -0.00000000
   3         0.54280631
   4        -0.32949512
   5         0.00000000
   6        -0.00000000
   7        -0.00000000
   8         0.54280631
   9        -0.32949512
  10        -0.00000000
Sym=     7a  
Ene=    -0.7125
Spin= Beta
Occup=    1.00000
   1        -0.00000000
   2        -0.00000000
   3         0.54280631
   4        -0.32949512
   5         0.00000000
   6        -0.00000000
   7        -0.00000000
   8         0.54280631
   9        -0.32949512
  10        -0.00000000
Sym=     8a  
Ene=    -0.5414
Spin= Alpha
Occup=    1.00000
   1        -0.00000000
   2        -0.00000000
   3        -0.42090249
   4        -0.69338971
   5         0.00000000
   6        -0.00000000
   7        -0.00000000
   8         0.42090249
   9         0.69338971
  10        -0.00000000
Sym=     8a  
Ene=    -0.5414
Spin= Beta
Occup=    1.00000
   1        -0.00000000
   2        -0.00000000
   3        -0.42090249
   4        -0.69338971
   5         0.00000000
   6        -0.00000000
   7        -0.00000000
   8         0.42090249
   9         0.69338971
  10        -0.00000000
Sym=     9a  
Ene=    -0.0274
Spin= Alpha
Occup=    0.00000
   1         0.00000000
   2         0.00000000
   3        -0.69338971
   4         0.42090249
   5         0.00000000
   6        -0.00000000
   7        -0.00000000
   8         0.69338971
   9        -0.42090249
  10         0.00000000
Sym=     9a  
Ene=    -0.0274
Spin= Beta
Occup=    0.00000
   1         0.00000000
   2         0.00000000
   3        -0.69338971
   4         0.42090249
   5         0.00000000
   6        -0.00000000
   7        -0.00000000
   8         0.69338971
   9        -0.42090249
  10         0.00000000
Sym=    10a  
Ene=     0.4477
Spin= Alpha
Occup=    0.00000
   1         0.07167315
   2         0.67464948
   3         0.00000000
   4        -0.00000000
   5         0.94804163
   6        -0.07167315
   7        -0.67464948
   8        -0.00000000
   9         0.00000000
  10         0.94804163
Sym=    10a  
Ene=     0.4477
Spin= Beta
Occup=    0.00000
   1         0.07167315
   2         0.67464948
   3         0.00000000
   4        -0.00000000
   5         0.94804163
   6        -0.07167315
   7        -0.67464948
   8        -0.00000000
   9         0.00000000
  10         0.94804163
