[Molden Format]
[N_Atoms]
                     2
[Atoms] (AU)
O1          1      8           0.00000000      0.00000000      0.00000000
O2          2      8           0.00000000      0.00000000      2.26767135
[Charge] (Mulliken)
  0.999999999999974     
   1.00000000000002     
[GTO] (AU)
   1
   s  14
  1.053749500E+05  1.238600013E-04
  1.567924000E+04  5.120100053E-04
  3.534544700E+03  2.152910022E-03
  9.873651600E+02  8.528440089E-03
  3.159787500E+02  3.018049031E-02
  1.116542800E+02  9.099702095E-02
  4.269945100E+01  2.177936423E-01
  1.739559600E+01  3.686245738E-01
  7.438309000E+00  3.366707335E-01
  3.222862000E+00  9.657630101E-02
  1.253877000E+00  2.144520022E-03
  4.951550000E-01  1.194350012E-03
  1.916650000E-01  5.390200056E-04
  6.708300000E-02  2.103400022E-04
   s  14
  1.053749500E+05 -2.815000008E-05
  1.567924000E+04 -1.163000003E-04
  3.534544700E+03 -4.909200013E-04
  9.873651600E+02 -1.946160005E-03
  3.159787500E+02 -7.005300019E-03
  1.116542800E+02 -2.167814006E-02
  4.269945100E+01 -5.641213015E-02
  1.739559600E+01 -1.127053003E-01
  7.438309000E+00 -1.589119704E-01
  3.222862000E+00 -3.355083009E-02
  1.253877000E+00  3.531902810E-01
  4.951550000E-01  5.534199315E-01
  1.916650000E-01  2.301839106E-01
  6.708300000E-02  1.127267003E-02
   p   9
  2.000000000E+02  9.173000030E-04
  4.653336700E+01  7.377140024E-03
  1.462180900E+01  3.483515011E-02
  5.313064000E+00  1.144397004E-01
  2.102525000E+00  2.554966408E-01
  8.502230000E-01  3.722557412E-01
  3.375970000E-01  3.323314911E-01
  1.288920000E-01  1.400847905E-01
  4.511200000E-02  2.395784008E-02
 
   2
   s  14
  1.053749500E+05  1.238600013E-04
  1.567924000E+04  5.120100053E-04
  3.534544700E+03  2.152910022E-03
  9.873651600E+02  8.528440089E-03
  3.159787500E+02  3.018049031E-02
  1.116542800E+02  9.099702095E-02
  4.269945100E+01  2.177936423E-01
  1.739559600E+01  3.686245738E-01
  7.438309000E+00  3.366707335E-01
  3.222862000E+00  9.657630101E-02
  1.253877000E+00  2.144520022E-03
  4.951550000E-01  1.194350012E-03
  1.916650000E-01  5.390200056E-04
  6.708300000E-02  2.103400022E-04
   s  14
  1.053749500E+05 -2.815000008E-05
  1.567924000E+04 -1.163000003E-04
  3.534544700E+03 -4.909200013E-04
  9.873651600E+02 -1.946160005E-03
  3.159787500E+02 -7.005300019E-03
  1.116542800E+02 -2.167814006E-02
  4.269945100E+01 -5.641213015E-02
  1.739559600E+01 -1.127053003E-01
  7.438309000E+00 -1.589119704E-01
  3.222862000E+00 -3.355083009E-02
  1.253877000E+00  3.531902810E-01
  4.951550000E-01  5.534199315E-01
  1.916650000E-01  2.301839106E-01
  6.708300000E-02  1.127267003E-02
   p   9
  2.000000000E+02  9.173000030E-04
  4.653336700E+01  7.377140024E-03
  1.462180900E+01  3.483515011E-02
  5.313064000E+00  1.144397004E-01
  2.102525000E+00  2.554966408E-01
  8.502230000E-01  3.722557412E-01
  3.375970000E-01  3.323314911E-01
  1.288920000E-01  1.400847905E-01
  4.511200000E-02  2.395784008E-02
 
[MO]
Sym=     1a  
Ene=   -22.4260
Spin= Alpha
Occup=    2.00000
   1         0.70702323
   2        -0.00171311
   3        -0.00000000
   4        -0.00000000
   5         0.00132292
   6         0.70702323
   7        -0.00171311
   8        -0.00000000
   9         0.00000000
  10        -0.00132292
Sym=     2a  
Ene=   -22.4220
Spin= Alpha
Occup=    2.00000
   1        -0.70689214
   2         0.01130360
   3        -0.00000000
   4         0.00000000
   5        -0.00218671
   6         0.70689214
   7        -0.01130360
   8         0.00000000
   9         0.00000000
  10        -0.00218671
Sym=     3a  
Ene=    -2.9001
Spin= Alpha
Occup=    2.00000
   1         0.02657291
   2        -0.51041139
   3        -0.00000000
   4         0.00000000
   5        -0.23338366
   6         0.02657291
   7        -0.51041139
   8         0.00000000
   9        -0.00000000
  10         0.23338366
Sym=     4a  
Ene=    -1.8491
Spin= Alpha
Occup=    2.00000
   1         0.02647327
   2         0.39871751
   3         0.00000000
   4        -0.00000000
   5        -0.62481105
   6         0.02647327
   7         0.39871751
   8         0.00000000
   9        -0.00000000
  10         0.62481105
Sym=     5a  
Ene=    -1.7820
Spin= Alpha
Occup=    2.00000
   1         0.00000000
   2        -0.00000000
   3         0.33885670
   4         0.53701198
   5         0.00000000
   6        -0.00000000
   7         0.00000000
   8         0.33885670
   9         0.53701198
  10         0.00000000
Sym=     6a  
Ene=    -1.7812
Spin= Alpha
Occup=    2.00000
   1        -0.00000000
   2        -0.00000000
   3         0.53701198
   4        -0.33885670
   5         0.00000000
   6        -0.00000000
   7        -0.00000000
   8         0.53701198
   9        -0.33885670
  10        -0.00000000
Sym=     7a  
Ene=    -2.2362
Spin= Alpha
Occup=    1.98734
   1        -0.02797768
   2        -0.80214444
   3         0.00000000
   4         0.00000000
   5         0.08387473
   6         0.02797768
   7         0.80214444
   8        -0.00000000
   9        -0.00000000
  10         0.08387473
Sym=     8a  
Ene=     0.0000
Spin= Alpha
Occup=    0.01266
   1        -0.00000000
   2        -0.00000000
   3        -0.43286112
   4        -0.68598793
   5         0.00000000
   6         0.00000000
   7         0.00000000
   8         0.43286112
   9         0.68598793
  10         0.00000000
Sym=     9a  
Ene=    -1.1633
Spin= Alpha
Occup=    0.00000
   1         0.00000000
   2         0.00000000
   3        -0.68598793
   4         0.43286112
   5         0.00000000
   6        -0.00000000
   7        -0.00000000
   8         0.68598793
   9        -0.43286112
  10         0.00000000
Sym=    10a  
Ene=    -0.7690
Spin= Alpha
Occup=    0.00000
   1         0.07104896
   2         0.61215766
   3         0.00000000
   4        -0.00000000
   5         0.95788377
   6        -0.07104896
   7        -0.61215766
   8        -0.00000000
   9         0.00000000
  10         0.95788377
