[Molden Format]
[N_Atoms]
                     2
[Atoms] (AU)
O1          1      8           0.00000000      0.00000000      0.00000000
O2          2      8           0.00000000      0.00000000      2.26767135
[Charge] (Mulliken)
  0.000000000000000E+000
  0.000000000000000E+000
[GTO] (AU)
   1
   s  14
  1.053749500E+05  1.238600013E-04
  1.567924000E+04  5.120100053E-04
  3.534544700E+03  2.152910022E-03
  9.873651600E+02  8.528440089E-03
  3.159787500E+02  3.018049031E-02
  1.116542800E+02  9.099702095E-02
  4.269945100E+01  2.177936423E-01
  1.739559600E+01  3.686245738E-01
  7.438309000E+00  3.366707335E-01
  3.222862000E+00  9.657630101E-02
  1.253877000E+00  2.144520022E-03
  4.951550000E-01  1.194350012E-03
  1.916650000E-01  5.390200056E-04
  6.708300000E-02  2.103400022E-04
   s  14
  1.053749500E+05 -2.815000008E-05
  1.567924000E+04 -1.163000003E-04
  3.534544700E+03 -4.909200013E-04
  9.873651600E+02 -1.946160005E-03
  3.159787500E+02 -7.005300019E-03
  1.116542800E+02 -2.167814006E-02
  4.269945100E+01 -5.641213015E-02
  1.739559600E+01 -1.127053003E-01
  7.438309000E+00 -1.589119704E-01
  3.222862000E+00 -3.355083009E-02
  1.253877000E+00  3.531902810E-01
  4.951550000E-01  5.534199315E-01
  1.916650000E-01  2.301839106E-01
  6.708300000E-02  1.127267003E-02
   p   9
  2.000000000E+02  9.173000030E-04
  4.653336700E+01  7.377140024E-03
  1.462180900E+01  3.483515011E-02
  5.313064000E+00  1.144397004E-01
  2.102525000E+00  2.554966408E-01
  8.502230000E-01  3.722557412E-01
  3.375970000E-01  3.323314911E-01
  1.288920000E-01  1.400847905E-01
  4.511200000E-02  2.395784008E-02
 
   2
   s  14
  1.053749500E+05  1.238600013E-04
  1.567924000E+04  5.120100053E-04
  3.534544700E+03  2.152910022E-03
  9.873651600E+02  8.528440089E-03
  3.159787500E+02  3.018049031E-02
  1.116542800E+02  9.099702095E-02
  4.269945100E+01  2.177936423E-01
  1.739559600E+01  3.686245738E-01
  7.438309000E+00  3.366707335E-01
  3.222862000E+00  9.657630101E-02
  1.253877000E+00  2.144520022E-03
  4.951550000E-01  1.194350012E-03
  1.916650000E-01  5.390200056E-04
  6.708300000E-02  2.103400022E-04
   s  14
  1.053749500E+05 -2.815000008E-05
  1.567924000E+04 -1.163000003E-04
  3.534544700E+03 -4.909200013E-04
  9.873651600E+02 -1.946160005E-03
  3.159787500E+02 -7.005300019E-03
  1.116542800E+02 -2.167814006E-02
  4.269945100E+01 -5.641213015E-02
  1.739559600E+01 -1.127053003E-01
  7.438309000E+00 -1.589119704E-01
  3.222862000E+00 -3.355083009E-02
  1.253877000E+00  3.531902810E-01
  4.951550000E-01  5.534199315E-01
  1.916650000E-01  2.301839106E-01
  6.708300000E-02  1.127267003E-02
   p   9
  2.000000000E+02  9.173000030E-04
  4.653336700E+01  7.377140024E-03
  1.462180900E+01  3.483515011E-02
  5.313064000E+00  1.144397004E-01
  2.102525000E+00  2.554966408E-01
  8.502230000E-01  3.722557412E-01
  3.375970000E-01  3.323314911E-01
  1.288920000E-01  1.400847905E-01
  4.511200000E-02  2.395784008E-02
 
[MO]
Sym=     1a  
Ene=   -20.6900
Spin= Alpha
Occup=    2.00000
   1         0.70693894
   2         0.00131809
   3        -0.00000000
   4        -0.00000000
   5         0.00130753
   6         0.70693894
   7         0.00131809
   8         0.00000000
   9        -0.00000000
  10        -0.00130753
Sym=     2a  
Ene=   -20.6840
Spin= Alpha
Occup=    2.00000
   1        -0.70705322
   2         0.00120497
   3         0.00000000
   4         0.00000000
   5         0.00125789
   6         0.70705322
   7        -0.00120497
   8        -0.00000000
   9         0.00000000
  10         0.00125789
Sym=     3a  
Ene=    -1.7549
Spin= Alpha
Occup=    2.00000
   1        -0.02588413
   2         0.56231451
   3        -0.00000000
   4        -0.00000000
   5         0.14136479
   6        -0.02588413
   7         0.56231451
   8         0.00000000
   9        -0.00000000
  10        -0.14136479
Sym=     4a  
Ene=    -1.0621
Spin= Alpha
Occup=    2.00000
   1        -0.00247919
   2        -0.65914283
   3         0.00000000
   4         0.00000000
   5         0.27914617
   6         0.00247919
   7         0.65914283
   8         0.00000000
   9         0.00000000
  10         0.27914617
Sym=     5a  
Ene=    -0.7889
Spin= Alpha
Occup=    2.00000
   1        -0.00000000
   2         0.00000000
   3         0.63394301
   4         0.03635912
   5        -0.00000000
   6         0.00000000
   7         0.00000000
   8         0.63394301
   9         0.03635912
  10         0.00000000
Sym=     6a  
Ene=    -0.7889
Spin= Alpha
Occup=    2.00000
   1        -0.00000000
   2        -0.00000000
   3        -0.03635912
   4         0.63394301
   5        -0.00000000
   6         0.00000000
   7         0.00000000
   8        -0.03635912
   9         0.63394301
  10        -0.00000000
Sym=     7a  
Ene=    -0.6661
Spin= Alpha
Occup=    2.00000
   1         0.02926007
   2         0.32140166
   3        -0.00000000
   4        -0.00000000
   5        -0.65182268
   6         0.02926007
   7         0.32140166
   8         0.00000000
   9         0.00000000
  10         0.65182268
Sym=     8a  
Ene=    -0.4835
Spin= Alpha
Occup=    1.00000
   1         0.00000000
   2         0.00000000
   3        -0.42090249
   4        -0.69338971
   5         0.00000000
   6        -0.00000000
   7        -0.00000000
   8         0.42090249
   9         0.69338971
  10         0.00000000
Sym=     9a  
Ene=    -0.4835
Spin= Alpha
Occup=    1.00000
   1         0.00000000
   2         0.00000000
   3        -0.69338971
   4         0.42090249
   5         0.00000000
   6        -0.00000000
   7        -0.00000000
   8         0.69338971
   9        -0.42090249
  10         0.00000000
Sym=    10a  
Ene=    -0.2779
Spin= Alpha
Occup=    0.00000
   1         0.07481174
   2         0.76408754
   3         0.00000000
   4         0.00000000
   5         0.92013960
   6        -0.07481174
   7        -0.76408754
   8        -0.00000000
   9        -0.00000000
  10         0.92013960
