[Molden Format]
[N_Atoms]
                     2
[Atoms] (AU)
B1          1      5           0.00000000      0.00000000      0.00000000
BE2         2      4           0.00000000      0.00000000      2.45664396
[Charge] (Mulliken)
 -0.330070095016886     
  0.330070095016828     
[GTO] (AU)
   1
   s  14
  3.336021700E+04  1.039699991E-04
  4.972095200E+03  5.254399956E-04
  1.125641700E+03  2.509059979E-03
  3.164913600E+02  1.031887991E-02
  1.020072600E+02  3.636632969E-02
  3.629587300E+01  1.064607991E-01
  1.397141000E+01  2.403999880E-01
  5.741156000E+00  3.748581168E-01
  2.494268000E+00  3.100066974E-01
  1.114202000E+00  7.922455933E-02
  4.215490000E-01 -4.947589958E-03
  1.696330000E-01 -7.737119935E-03
  6.853500000E-02 -1.501079987E-03
  2.398700000E-02 -1.333299989E-04
   s  14
  3.336021700E+04 -2.030000008E-05
  4.972095200E+03 -1.025700004E-04
  1.125641700E+03 -4.911300020E-04
  3.164913600E+02 -2.026570008E-03
  1.020072600E+02 -7.261010030E-03
  3.629587300E+01 -2.197722009E-02
  1.397141000E+01 -5.408428022E-02
  5.741156000E+00 -1.022402604E-01
  2.494268000E+00 -1.423595206E-01
  1.114202000E+00 -4.658690019E-02
  4.215490000E-01  3.799402916E-01
  1.696330000E-01  5.890463624E-01
  6.853500000E-02  1.749075107E-01
  2.398700000E-02 -1.142030005E-03
   p   9
  5.500000000E+01  1.229800005E-03
  1.336610100E+01  8.827380035E-03
  4.135394000E+00  3.843340015E-02
  1.481256000E+00  1.150031805E-01
  6.021360000E-01  2.733674011E-01
  2.556360000E-01  4.061972116E-01
  1.111510000E-01  3.014967912E-01
  4.764800000E-02  7.684809030E-02
  1.667700000E-02 -8.170000032E-06
 
   2
   s  14
  2.262859900E+04  8.443999941E-05
  3.372318100E+03  4.601499968E-04
  7.603504000E+02  2.285389984E-03
  2.117404800E+02  9.648129932E-03
  6.722346800E+01  3.494469975E-02
  2.337217700E+01  1.061099893E-01
  8.721373000E+00  2.458240383E-01
  3.468091000E+00  3.862428773E-01
  1.452144000E+00  3.105526078E-01
  6.086150000E-01  6.415933955E-02
  2.576860000E-01 -2.265049984E-03
  1.041760000E-01 -5.217499963E-04
  4.242700000E-02 -8.757499938E-04
  1.484900000E-02  1.242199991E-04
   s  14
  2.262859900E+04 -1.586999994E-05
  3.372318100E+03 -8.656999968E-05
  7.603504000E+02 -4.302199984E-04
  2.117404800E+02 -1.825079993E-03
  6.722346800E+01 -6.682749976E-03
  2.337217700E+01 -2.095119992E-02
  8.721373000E+00 -5.200308981E-02
  3.468091000E+00 -9.849176964E-02
  1.452144000E+00 -1.355800695E-01
  6.086150000E-01 -6.429875976E-02
  2.576860000E-01  3.125414989E-01
  1.041760000E-01  6.270468577E-01
  4.242700000E-02  2.110231492E-01
  1.484900000E-02 -4.104669985E-03
   p   9
  3.371018400E+01  1.069960000E-03
  8.057649500E+00  6.828550001E-03
  2.836471400E+00  2.119065000E-02
  1.099965700E+00  5.843696001E-02
  4.433964000E-01  2.020920800E-01
  1.822264000E-01  4.582953101E-01
  7.572410000E-02  3.691239601E-01
  3.168540000E-02  6.611471001E-02
  1.108990000E-02  1.405160000E-03
 
[MO]
Sym=     1a  
Ene=    -7.6796
Spin= Alpha
Occup=    1.00000
   1         1.00079975
   2         0.02374940
   3        -0.00000000
   4        -0.00000000
   5         0.00407889
   6        -0.00103138
   7        -0.00574841
   8         0.00000000
   9        -0.00000000
  10         0.00287724
Sym=     1a  
Ene=    -7.6502
Spin= Beta
Occup=    1.00000
   1         1.00034357
   2         0.01668832
   3        -0.00000000
   4        -0.00000000
   5         0.00336876
   6        -0.00018478
   7        -0.00303196
   8         0.00000000
   9         0.00000000
  10         0.00108767
Sym=     2a  
Ene=    -4.7391
Spin= Alpha
Occup=    1.00000
   1        -0.00437598
   2         0.00427767
   3        -0.00000000
   4         0.00000000
   5         0.00619957
   6         0.99811602
   7         0.00039385
   8        -0.00000000
   9         0.00000000
  10        -0.00238689
Sym=     2a  
Ene=    -4.7448
Spin= Beta
Occup=    1.00000
   1        -0.00364390
   2         0.00624535
   3        -0.00000000
   4         0.00000000
   5         0.00589517
   6         0.99793512
   7        -0.00043394
   8        -0.00000000
   9         0.00000000
  10         0.00039087
Sym=     3a  
Ene=    -0.6870
Spin= Alpha
Occup=    1.00000
   1        -0.05667032
   2         0.78807178
   3         0.00000000
   4         0.00000000
   5         0.19595679
   6        -0.14897199
   7         0.13392614
   8        -0.00000000
   9        -0.00000000
  10        -0.17462758
Sym=     3a  
Ene=    -0.5667
Spin= Beta
Occup=    1.00000
   1        -0.05645281
   2         0.68178119
   3        -0.00000000
   4        -0.00000000
   5         0.37353406
   6        -0.17265391
   7         0.19601114
   8         0.00000000
   9         0.00000000
  10        -0.16591285
Sym=     4a  
Ene=    -0.4081
Spin= Alpha
Occup=    1.00000
   1        -0.02679691
   2        -0.37706620
   3         0.00000000
   4         0.00000000
   5         0.94469182
   6        -0.15392270
   7         0.07577093
   8         0.00000000
   9         0.00000000
  10        -0.15296999
Sym=     4a  
Ene=    -0.2988
Spin= Beta
Occup=    1.00000
   1         0.03808202
   2        -0.17244572
   3         0.00000000
   4         0.00000000
   5        -0.08863961
   6         0.03986915
   7         0.75064022
   8         0.00000000
   9         0.00000000
  10         0.69043763
Sym=     5a  
Ene=    -0.3748
Spin= Alpha
Occup=    1.00000
   1         0.00000000
   2         0.00000000
   3         0.22795591
   4         0.77604766
   5        -0.00000000
   6         0.00000000
   7        -0.00000000
   8         0.08400764
   9         0.28599361
  10         0.00000000
Sym=     5a  
Ene=    -0.0148
Spin= Beta
Occup=    0.00000
   1        -0.00000000
   2         0.00000000
   3         0.47397641
   4        -0.13922563
   5        -0.00000000
   6         0.00000000
   7        -0.00000000
   8         0.61904953
   9        -0.18183934
  10        -0.00000000
Sym=     6a  
Ene=    -0.0314
Spin= Alpha
Occup=    0.00000
   1         0.00000000
   2         0.00000000
   3         0.63065850
   4        -0.18524936
   5        -0.00000000
   6         0.00000000
   7        -0.00000000
   8         0.46130250
   9        -0.13550280
  10         0.00000000
Sym=     6a  
Ene=     0.0160
Spin= Beta
Occup=    0.00000
   1        -0.00000000
   2        -0.00000000
   3         0.12701759
   4         0.43241567
   5         0.00000000
   6        -0.00000000
   7        -0.00000000
   8         0.19285010
   9         0.65653431
  10        -0.00000000
Sym=     7a  
Ene=     0.1124
Spin= Alpha
Occup=    0.00000
   1        -0.01065302
   2        -0.29932898
   3         0.00000000
   4         0.00000000
   5        -0.34889641
   6         0.11208370
   7         0.99365649
   8        -0.00000000
   9        -0.00000000
  10         0.52638151
Sym=     7a  
Ene=     0.1609
Spin= Beta
Occup=    0.00000
   1         0.02444601
   2         0.51288260
   3         0.00000000
   4         0.00000000
   5        -0.91378864
   6         0.12768892
   7         0.09311632
   8        -0.00000000
   9         0.00000000
  10         0.24558861
Sym=     8a  
Ene=     0.2409
Spin= Alpha
Occup=    0.00000
   1        -0.00000000
   2        -0.00000000
   3        -0.24281856
   4        -0.82664572
   5        -0.00000000
   6         0.00000000
   7         0.00000000
   8         0.32228476
   9         1.09717856
  10         0.00000000
Sym=     8a  
Ene=     0.2966
Spin= Beta
Occup=    0.00000
   1         0.00000000
   2         0.00000000
   3        -1.03001917
   4         0.30255739
   5        -0.00000000
   6        -0.00000000
   7        -0.00000000
   8         0.94993200
   9        -0.27903262
  10         0.00000000
Sym=     9a  
Ene=     0.2904
Spin= Alpha
Occup=    0.00000
   1        -0.00000000
   2        -0.00000000
   3        -0.94226481
   4         0.27678046
   5        -0.00000000
   6         0.00000000
   7         0.00000000
   8         1.03575727
   9        -0.30424290
  10         0.00000000
Sym=     9a  
Ene=     0.3281
Spin= Beta
Occup=    0.00000
   1         0.00000000
   2         0.00000000
   3        -0.30788192
   4        -1.04814590
   5        -0.00000000
   6        -0.00000000
   7        -0.00000000
   8         0.27153929
   9         0.92442189
  10         0.00000000
Sym=    10a  
Ene=     0.6586
Spin= Alpha
Occup=    0.00000
   1         0.49409328
   2         2.62411451
   3        -0.00000000
   4        -0.00000000
   5         1.13102227
   6        -0.57244118
   7        -2.23758077
   8         0.00000000
   9        -0.00000000
  10         1.89468459
Sym=    10a  
Ene=     0.6577
Spin= Beta
Occup=    0.00000
   1         0.49381701
   2         2.64224601
   3         0.00000000
   4         0.00000000
   5         1.16163523
   6        -0.58206121
   7        -2.32535383
   8        -0.00000000
   9        -0.00000000
  10         1.83201242
