[Molden Format]
[N_Atoms]
                     2
[Atoms] (AU)
C1          1      6           0.00000000      0.00000000      0.00000000
N2          2      7           0.00000000      0.00000000      2.83458919
[Charge] (Mulliken)
  4.584270619810482E-002
 -4.584270619814212E-002
[GTO] (AU)
   1
   s  14
  5.055750100E+04  1.128874000E-04
  7.524785600E+03  5.295373000E-04
  1.694327600E+03  2.450038300E-03
  4.728227900E+02  1.005398470E-02
  1.517107500E+02  3.545398060E-02
  5.391874600E+01  1.044071086E-01
  2.065931100E+01  2.412894918E-01
  8.383976000E+00  3.834225483E-01
  3.577015000E+00  3.078514393E-01
  1.547118000E+00  6.872442990E-02
  6.130130000E-01  2.224445000E-04
  2.460680000E-01  1.976748900E-03
  9.908700000E-02  2.057859400E-03
  3.468000000E-02  4.182020000E-04
   s  14
  5.055750100E+04 -2.507420000E-05
  7.524785600E+03 -1.175945000E-04
  1.694327600E+03 -5.456275000E-04
  4.728227900E+02 -2.245077100E-03
  1.517107500E+02 -8.043471800E-03
  5.391874600E+01 -2.442588710E-02
  2.065931100E+01 -6.136791180E-02
  8.383976000E+00 -1.177767835E-01
  3.577015000E+00 -1.550487783E-01
  1.547118000E+00 -1.933316860E-02
  6.130130000E-01  3.996930678E-01
  2.460680000E-01  5.589420949E-01
  9.908700000E-02  1.711195023E-01
  3.468000000E-02  7.456244600E-03
   p   9
  8.333315500E+01  1.344656000E-03
  1.955761100E+01  1.023555500E-02
  6.080365000E+00  4.520067100E-02
  2.179317000E+00  1.410756198E-01
  8.651500000E-01  3.047388085E-01
  3.619440000E-01  3.995281011E-01
  1.547400000E-01  2.719163432E-01
  6.542900000E-02  5.857669330E-02
  2.290000000E-02 -1.263813000E-04
 
   2
   s  14
  7.476171500E+04  1.182599996E-04
  1.112365400E+04  5.172899983E-04
  2.512685700E+03  2.266659992E-03
  7.037772900E+02  9.145289970E-03
  2.254787900E+02  3.239342989E-02
  7.961581000E+01  9.770792967E-02
  3.023728300E+01  2.317036792E-01
  1.226362200E+01  3.768898887E-01
  5.265086000E+00  3.177420689E-01
  2.333471000E+00  8.211308973E-02
  9.018560000E-01  3.312089989E-03
  3.583360000E-01  3.720819988E-03
  1.410930000E-01  3.165419989E-03
  4.938300000E-02  4.595799985E-04
   s  14
  7.476171500E+04 -2.707000010E-05
  1.112365400E+04 -1.183700004E-04
  2.512685700E+03 -5.203800020E-04
  7.037772900E+02 -2.102930008E-03
  2.254787900E+02 -7.568200028E-03
  7.961581000E+01 -2.346767009E-02
  3.023728300E+01 -6.042901023E-02
  1.226362200E+01 -1.170549104E-01
  5.265086000E+00 -1.555321506E-01
  2.333471000E+00 -2.468935009E-02
  9.018560000E-01  3.625054514E-01
  3.583360000E-01  5.550845021E-01
  1.410930000E-01  2.148376908E-01
  4.938300000E-02  8.983850034E-03
   p   9
  1.266665700E+02  1.233630000E-03
  2.983738900E+01  9.493409996E-03
  9.394038000E+00  4.293961998E-02
  3.405104000E+00  1.362925399E-01
  1.350000000E+00  2.921362499E-01
  5.576960000E-01  3.887887598E-01
  2.324490000E-01  2.946801399E-01
  9.426400000E-02  8.012875997E-02
  3.299200000E-02  5.405199998E-04
 
[MO]
Sym=     1a  
Ene=   -15.6130
Spin= Alpha
Occup=    1.00000
   1        -0.00013475
   2        -0.00098183
   3        -0.00000000
   4         0.00000000
   5        -0.00042728
   6         1.00002307
   7        -0.00716084
   8        -0.00000000
   9         0.00000000
  10        -0.00183459
Sym=     1a  
Ene=   -15.6700
Spin= Beta
Occup=    1.00000
   1        -0.00032534
   2        -0.00196019
   3        -0.00000000
   4         0.00000000
   5        -0.00145609
   6         1.00012990
   7        -0.00275686
   8        -0.00000000
   9         0.00000000
  10        -0.00257653
Sym=     2a  
Ene=   -11.3630
Spin= Alpha
Occup=    1.00000
   1         1.00004624
   2         0.00146573
   3         0.00000000
   4         0.00000000
   5         0.00069513
   6        -0.00034327
   7        -0.00122208
   8        -0.00000000
   9        -0.00000000
  10         0.00025001
Sym=     2a  
Ene=   -11.2850
Spin= Beta
Occup=    1.00000
   1         0.99998856
   2        -0.00410322
   3         0.00000000
   4         0.00000000
   5         0.00069523
   6        -0.00015132
   7        -0.00034256
   8        -0.00000000
   9        -0.00000000
  10        -0.00022897
Sym=     3a  
Ene=    -1.0693
Spin= Alpha
Occup=    1.00000
   1        -0.02286369
   2         0.63123164
   3         0.00000000
   4         0.00000000
   5         0.11433210
   6        -0.01990317
   7         0.49759126
   8        -0.00000000
   9        -0.00000000
  10        -0.16217100
Sym=     3a  
Ene=    -1.1668
Spin= Beta
Occup=    1.00000
   1        -0.02888468
   2         0.16029113
   3         0.00000000
   4         0.00000000
   5         0.11713869
   6        -0.00760140
   7         0.87195750
   8        -0.00000000
   9        -0.00000000
  10        -0.12430730
Sym=     4a  
Ene=    -0.7622
Spin= Alpha
Occup=    1.00000
   1        -0.01231040
   2        -0.69063742
   3         0.00000000
   4         0.00000000
   5         0.38196517
   6         0.00389100
   7         0.65645111
   8        -0.00000000
   9         0.00000000
  10         0.09164290
Sym=     4a  
Ene=    -0.5870
Spin= Beta
Occup=    1.00000
   1         0.01588477
   2        -0.54608847
   3        -0.00000000
   4        -0.00000000
   5        -0.22153772
   6         0.03026041
   7         0.50677931
   8        -0.00000000
   9        -0.00000000
  10         0.60117408
Sym=     5a  
Ene=    -0.4996
Spin= Alpha
Occup=    1.00000
   1         0.02124291
   2         0.12988615
   3        -0.00000000
   4         0.00000000
   5        -0.59936693
   6         0.03290043
   7         0.49121640
   8        -0.00000000
   9         0.00000000
  10         0.64680438
Sym=     5a  
Ene=    -0.5603
Spin= Beta
Occup=    1.00000
   1         0.00000000
   2        -0.00000000
   3         0.07672709
   4         0.10228161
   5        -0.00000000
   6         0.00000000
   7         0.00000000
   8         0.57956685
   9         0.77259582
  10         0.00000000
Sym=     6a  
Ene=    -0.4876
Spin= Alpha
Occup=    1.00000
   1        -0.00000000
   2        -0.00000000
   3         0.42152956
   4         0.84470957
   5         0.00000000
   6        -0.00000000
   7        -0.00000000
   8         0.08415124
   9         0.16863197
  10        -0.00000000
Sym=     6a  
Ene=    -0.5603
Spin= Beta
Occup=    1.00000
   1        -0.00000000
   2        -0.00000000
   3         0.10228161
   4        -0.07672709
   5        -0.00000000
   6         0.00000000
   7         0.00000000
   8         0.77259582
   9        -0.57956685
  10        -0.00000000
Sym=     7a  
Ene=    -0.4876
Spin= Alpha
Occup=    1.00000
   1         0.00000000
   2         0.00000000
   3         0.84470957
   4        -0.42152956
   5        -0.00000000
   6         0.00000000
   7         0.00000000
   8         0.16863197
   9        -0.08415124
  10         0.00000000
Sym=     7a  
Ene=     0.0469
Spin= Beta
Occup=    0.00000
   1         0.03163009
   2         0.83440163
   3         0.00000000
   4        -0.00000000
   5        -0.46287330
   6         0.00195778
   7        -0.06484943
   8         0.00000000
   9         0.00000000
  10         0.50169070
Sym=     8a  
Ene=     0.2154
Spin= Alpha
Occup=    0.00000
   1        -0.00000000
   2        -0.00000000
   3        -0.29956286
   4        -0.25160459
   5        -0.00000000
   6         0.00000000
   7         0.00000000
   8         0.76908168
   9         0.64595619
  10        -0.00000000
Sym=     8a  
Ene=     0.2439
Spin= Beta
Occup=    0.00000
   1        -0.00000000
   2        -0.00000000
   3        -0.11201463
   4        -1.00765488
   5        -0.00000000
   6         0.00000000
   7         0.00000000
   8         0.03688585
   9         0.33181563
  10        -0.00000000
Sym=     9a  
Ene=     0.2154
Spin= Alpha
Occup=    0.00000
   1        -0.00000000
   2        -0.00000000
   3        -0.25160459
   4         0.29956286
   5         0.00000000
   6         0.00000000
   7         0.00000000
   8         0.64595619
   9        -0.76908168
  10        -0.00000000
Sym=     9a  
Ene=     0.2439
Spin= Beta
Occup=    0.00000
   1        -0.00000000
   2        -0.00000000
   3        -1.00765488
   4         0.11201463
   5        -0.00000000
   6         0.00000000
   7         0.00000000
   8         0.33181563
   9        -0.03688585
  10        -0.00000000
Sym=    10a  
Ene=     0.4837
Spin= Alpha
Occup=    0.00000
   1         0.06868870
   2         0.68622867
   3        -0.00000000
   4        -0.00000000
   5         0.93483102
   6        -0.07274633
   7        -0.71148779
   8         0.00000000
   9        -0.00000000
  10         0.93557311
Sym=    10a  
Ene=     0.5543
Spin= Beta
Occup=    0.00000
   1         0.06222422
   2         0.58571675
   3        -0.00000000
   4        -0.00000000
   5         1.05596634
   6        -0.07479879
   7        -0.63619023
   8         0.00000000
   9        -0.00000000
  10         0.83653535
