   This run of MOLCAS is using the pymolcas driver

                             OPE
                             OPE          NMOL  CASOP  ENMOLC A   SO
                 OPE        NMOLC        AS  OP EN  MO LC     AS  OP
                OPENM       OL CA        SO  PE NM  OL CA     SOP EN
                OP EN      MO   LC       AS  OP ENMOL  CASO   PENMOL
                OP  EN     MO   LC       AS  OP EN     MO     LC ASO
               OP   E  NMOL  C  AS       OP  EN MO     LC     AS  OP
               OP  E   NMO   LC AS        OPEN  MO     LCASOP EN   M
               O  PEN   MO  LCA  SO
            OPE   NMO   L   CAS    OP
        OPENMOL  CASOP     ENMOL   CASOPE
     OPENMOLCA   SOPENMOLCASOPEN   MOLCASOPE
    OPENMOLCAS   OP           EN   MOL    CAS
    OPENMOLCAS       OP  ENM        O     LCA
    OPENMOLCAS    OPEN  MOLCASO     P  E  NMO
    OPENMOLCAS     OP               E  N  MOL
    OPENMOLCA   SO           PENM   O  L  CAS    OPEN    MO    LCAS
    OPENMOLCA   SOP           ENM   O  L  CAS   OP  EN  MOLC  AS   O
    OPENMOLCA   SOPE           NM      O  LCA   S      OP  EN MO
    OPENMOLC                AS         O  PEN   M      OL  CA  SOPE
    OPENMO        LCASOPE  NMOL        C  ASO   P      ENMOLC     AS
    OPE     NMO      LCA  SO     P     E   NM   OL  CA SO  PE N   MO
          OPENMOLCA            SOPE   NMO        LCAS  O    P  ENMO
     OPENMOLCASOPENMOLCASOPENMOLCASOPENMOLCA
        OPENMOLCASOPENMOLCASOPENMOLCASOPE
            OPENMOLCASOPENMOLCASOPENM
               OPENMOLCASOPENMOLCA        version: ea724fe96-dirty
                   OPENMOLCASO
                       OPE                tag:

 OpenMolcas is free software; you can redistribute it and/or modify it
 under the terms of the GNU Lesser General Public License version 2.1.
 OpenMolcas is distributed in the hope that it will be useful, but it
 is provided "as is" and without any express or implied warranties.
 For more details see the full text of the license in the file
 LICENSE or in <http://www.gnu.org/licenses/>.

                 Copyright (C) The OpenMolcas Authors
           For the author list and the recommended citation,
                   consult the file CONTRIBUTORS.md

           *************************************************
           * pymolcas version py2.28                       *
           *   build c4a6d18ded8cb6cad61d2372a9abd97c      *
           *   (after the EMIL interpreter by V. Veryazov) *
           *************************************************

configuration info
------------------
C Compiler ID: Intel
C flags: -std=gnu99
Fortran Compiler ID: Intel
Fortran flags: -fpp -i8 -r8 -heap-arrays
Definitions: _MOLCAS_;_I8_;_LINUX_
Parallel: OFF (GA=OFF)


   -------------------------------------------------------------------------------
  |
  |              Project: 4.84
  |       Submitted from: /home/grierjones/DDCASPT2/iron_oxo_DDCASPT2/cluster/4.84
  |         Scratch area: /tmp/4.84
  |      Save outputs to: /home/grierjones/DDCASPT2/iron_oxo_DDCASPT2/cluster/4.84
  |               Molcas: /home/grierjones/Test/build
  |
  | Scratch area is empty
  |
  |       MOLCAS_DRIVER = /usr/local/pymolcas
  | MOLCAS_KEEP_WORKDIR = NO
  |  MOLCAS_NEW_WORKDIR = YES
  |       MOLCAS_NPROCS = 1
  |        MOLCAS_PRINT = NORMAL
  |       MOLCAS_SOURCE = /home/grierjones/Test/build
  |    MOLCAS_STRUCTURE = 0
  |
   -------------------------------------------------------------------------------

++ ---------   Input file   ---------

&GATEWAY
coord=4.84.xyz
Basis = ANO-RCC-VDZP
Group = nosymm
Expert
End of Input

&SEWARD
End of Input

&SCF
UHF
charge
2
spin
5

>>> COPY $WorkDir/4.84.scf.h5 $CurrDir/

&RASSCF
Title= RASSCF
FileOrb
/home/grierjones/DDCASPT2/iron_oxo_DDCASPT2/cluster/4.82/4.82.RasOrb
NACTEL
10 0 0
RAS2
14
Symmetry
1
Spin
5
charge
2
orblisting
all
ITERation
300 200

>>> COPY $WorkDir/4.84.rasscf.h5 $CurrDir/

>>> COPY $WorkDir/GMJ_Fock_MO.csv $CurrDir/4.84.GMJ_Fock_MO.csv

>>> COPY $WorkDir/GMJ_PT2_Fock_MO.csv $CurrDir/4.84.GMJ_PT2_Fock_MO.csv

&MOTRA
Frozen=0
LUMORB

>>> COPY $WorkDir/GMJ_one_int_indx.csv $CurrDir/4.84.GMJ_one_int_indx.csv

>>> COPY $WorkDir/GMJ_one_int.csv $CurrDir/4.84.GMJ_one_int.csv

>>> COPY $WorkDir/GMJ_two_int_indx.csv $CurrDir/4.84.GMJ_two_int_indx.csv

>>> COPY $WorkDir/GMJ_two_int.csv $CurrDir/4.84.GMJ_two_int.csv

&CASPT2
Frozen
0
MAXITER
50

>>> FOREACH i IN (B,E,F,G,H)

  >>> FOREACH j IN (P,M)

    >>> IF (-FILE GMJ_e2_${i}_${j}.csv)

      >>> COPY $WorkDir/GMJ_RHS_${i}_${j}.csv $CurrDir/GMJ_RHS_${i}_${j}.csv

      >>> COPY $WorkDir/GMJ_IVECW_${i}_${j}.csv $CurrDir/GMJ_IVECW_${i}_${j}.csv

      >>> COPY $WorkDir/GMJ_IVECX_${i}_${j}.csv $CurrDir/GMJ_IVECX_${i}_${j}.csv

      >>> COPY $WorkDir/GMJ_IVECC2_${i}_${j}.csv $CurrDir/GMJ_IVECC2_${i}_${j}.csv

      >>> COPY $WorkDir/GMJ_e2_${i}_${j}.csv $CurrDir/GMJ_e2_${i}_${j}.csv

    >>> END IF

  >>> END FOREACH

>>> END FOREACH

>>> FOREACH i IN (A,C,D)

  >>> IF (-FILE GMJ_e2_$i.csv)

    >>> COPY $WorkDir/GMJ_RHS_$i.csv $CurrDir/GMJ_RHS_$i.csv

    >>> COPY $WorkDir/GMJ_IVECW_$i.csv $CurrDir/GMJ_IVECW_$i.csv

    >>> COPY $WorkDir/GMJ_IVECX_$i.csv $CurrDir/GMJ_IVECX_$i.csv

    >>> COPY $WorkDir/GMJ_IVECC2_$i.csv $CurrDir/GMJ_IVECC2_$i.csv

    >>> COPY $WorkDir/GMJ_e2_$i.csv $CurrDir/GMJ_e2_$i.csv

  >>> END IF

>>> END FOREACH

-- ----------------------------------

--- Start Module: gateway at Wed Dec 18 04:28:17 2024 ---
 
()()()()()()()()()()()()()()()()()()()()()()()()()()()()()()()()()()()()()()()()()()()()()()()()()()

                                              &GATEWAY

                                   only a single process is used
                       available to each process: 2.0 GB of memory, 1 thread?
()()()()()()()()()()()()()()()()()()()()()()()()()()()()()()()()()()()()()()()()()()()()()()()()()()
 
 ###############################################################################
 ###############################################################################
 ###                                                                         ###
 ###                                                                         ###
 ###                                                                         ###
 ###    WARNING: EXPERT option is ON!                                        ###
 ###                                                                         ###
 ###                                                                         ###
 ###############################################################################
 ###############################################################################
 
++    Symmetry information:
      ---------------------
 
                    Character Table for C1 
 
                             E  
                    a        1  x, y, xy, Rz, z, xz, Ry, yz, Rx, I
--
 
 
++    Basis set information:
      ----------------------
 
 
      Basis set label: O.ANO-RCC...3S2P1D.
 
      Electronic valence basis set:
      ------------------
      Associated Effective Charge   8.000000 au
      Associated Actual Charge      8.000000 au
      Nuclear Model: Point charge
 
      Shell  nPrim  nBasis  Cartesian Spherical Contaminant
         s      14       3        X                  
         p       9       2        X                  
         d       4       1                 X         
 
 
      Basis set label: FE.ANO-RCC...5S4P2D1F.
 
      Electronic valence basis set:
      ------------------
      Associated Effective Charge  26.000000 au
      Associated Actual Charge     26.000000 au
      Nuclear Model: Point charge
 
      Shell  nPrim  nBasis  Cartesian Spherical Contaminant
         s      21       5        X                  
         p      15       4        X                  
         d      10       2                 X         
         f       6       1                 X         
--
 
 
++    Molecular structure info:
      -------------------------
 
                    ************************************************ 
                    **** Cartesian Coordinates / Bohr, Angstrom **** 
                    ************************************************ 
 
     Center  Label                x              y              z                     x              y              z
        1      O1               0.000000       0.000000       6.083387              0.000000       0.000000       3.219190
        2      FE2              0.000000       0.000000      -3.059826              0.000000       0.000000      -1.619190
--
 
 
            Nuclear Potential Energy             22.74911434 au
 
 ###############################################################################
 ###############################################################################
 ###                                                                         ###
 ###                                                                         ###
 ###    There were warnings during the execution                             ###
 ###    Please, check the output with care!                                  ###
 ###                                                                         ###
 ###                                                                         ###
 ###############################################################################
 ###############################################################################
--- Stop Module: gateway at Wed Dec 18 04:28:17 2024 /rc=_RC_ALL_IS_WELL_ ---
*** files: xmldump
    saved to directory /home/grierjones/DDCASPT2/iron_oxo_DDCASPT2/cluster/4.84

--- Start Module: seward at Wed Dec 18 04:28:17 2024 ---
 
()()()()()()()()()()()()()()()()()()()()()()()()()()()()()()()()()()()()()()()()()()()()()()()()()()

                                              &SEWARD

                                   only a single process is used
                       available to each process: 2.0 GB of memory, 1 thread?
()()()()()()()()()()()()()()()()()()()()()()()()()()()()()()()()()()()()()()()()()()()()()()()()()()
 
 ###############################################################################
 ###############################################################################
 ###                                                                         ###
 ###                                                                         ###
 ###                                                                         ###
 ###    WARNING: EXPERT option is ON!                                        ###
 ###                                                                         ###
 ###                                                                         ###
 ###############################################################################
 ###############################################################################
               SEWARD will generate:
                  Multipole Moment integrals up to order  2
                  Kinetic Energy integrals
                  Nuclear Attraction integrals (point charge)
                  One-Electron Hamiltonian integrals
                  Velocity integrals
                  Relativistic Douglas-Kroll-Hess integrals:
                    - Parametrization         : EXP
                    - DKH order of Hamiltonian: 2
                    - DKH order of Properties : 0
                         - multipole moment operators
                         - electric potential operators
                         - contact operators
                  Atomic mean-field integrals
                  Two-Electron Repulsion integrals
 
                   Integrals are discarded if absolute value <: 0.10E-13
                   Integral cutoff threshold is set to       <: 0.10E-15
 
            Nuclear Potential Energy             22.74911434 au
 
 
      Basis set specifications :
      Symmetry species         a  
      Basis functions           48
 
 
  Input file to MOLDEN was generated!
 
 ###############################################################################
 ###############################################################################
 ###                                                                         ###
 ###                                                                         ###
 ###    There were warnings during the execution                             ###
 ###    Please, check the output with care!                                  ###
 ###                                                                         ###
 ###                                                                         ###
 ###############################################################################
 ###############################################################################
--- Stop Module: seward at Wed Dec 18 04:28:18 2024 /rc=_RC_ALL_IS_WELL_ ---
*** files: 4.84.GssOrb 4.84.guessorb.h5 4.84.guessorb.molden xmldump
    saved to directory /home/grierjones/DDCASPT2/iron_oxo_DDCASPT2/cluster/4.84

*** symbolic link created: INPORB -> 4.84.GssOrb
--- Start Module: scf at Wed Dec 18 04:28:18 2024 ---
 
()()()()()()()()()()()()()()()()()()()()()()()()()()()()()()()()()()()()()()()()()()()()()()()()()()

                                                &SCF

                                   only a single process is used
                       available to each process: 2.0 GB of memory, 1 thread?
()()()()()()()()()()()()()()()()()()()()()()()()()()()()()()()()()()()()()()()()()()()()()()()()()()
 
 *** Possible bug in opening file
 *** isFreeUnit resets the unit number
++    Input section:
      --------------
 
      Header of the integral files:
      
       Integrals generated by seward 4.2.0  , Wed Dec 18 04:28:17 2024
 
 
      Cartesian coordinates in Angstrom:
      -----------------------------------------------------
      No.  Label        X            Y            Z        
      -----------------------------------------------------
       1   O1         0.00000000   0.00000000   3.21919000
       2   FE2        0.00000000   0.00000000  -1.61919000
      -----------------------------------------------------
      Nuclear repulsion energy =   22.74911434
--
 
++    Orbital specifications:
      -----------------------
 
      Symmetry species               1
                                     a
      Frozen orbitals                0
      Start temperature = 0.500
      End temperature   = 0.010
      Temperature Factor= 0.460
      Deleted orbitals               0
      Total number of orbitals      48
      Number of basis functions     48
--
 
      Molecular charge                           2.000
 
++    Optimization specifications:
      ----------------------------
 
      SCF Algorithm: Conventional USCF
      D(i)-D(i-1) density differences are used
      Number of density matrices in core                5
      Maximum number of NDDO SCF iterations           400
      Maximum number of HF SCF iterations             400
      Threshold for SCF energy change            0.10E-08
      Threshold for density matrix               0.10E-03
      Threshold for Fock matrix                  0.15E-03
      Threshold for linear dependence            0.10E-08
      Threshold at which DIIS is turned on       0.15E+00
      Threshold at which QNR/C2DIIS is turned on 0.75E-01
      Threshold for Norm(delta) (QNR/C2DIIS)     0.20E-04
      DIIS extrapolation of the SCF procedure
      All orbitals punched on: UHFORB
--
 
      Input vectors read from INPORB
      Orbital file label: *Guess orbitals
 
 
++ Convergence information
                               UHF SCF        iterations: Energy and convergence statistics
 
Iter     Tot. SCF        One-elec.       Two-elec.     Energy      Max Dij or  Max Fij      DNorm      TNorm      AccCon     Time
         Energy          Energy          Energy        Change      Delta Norm                                                in Sec.
 
 The total and one-electron energies are shifted by a value of      1000. a.u.
 
   1  -343.293292489  -878.957128159   512.914721335   0.00E+00    0.16E+00*   0.36E+00*    0.75E+01   0.18E+03   None         0.
   2  -343.473412608  -874.803933052   508.581406109  -0.18E+00*   0.11E+00*   0.14E+00*    0.10E+01   0.18E+03   EDIIS        0.
   3  -341.605756833  -922.913984747   558.559113578   0.19E+01*   0.60E-01*   0.19E+00*    0.18E+01   0.19E+03   EDIIS        0.
   4  -342.935283625  -863.283353741   497.598955780  -0.13E+01*   0.68E-01*   0.77E-01*    0.15E+01   0.17E+03   EDIIS        0.
   5  -344.061826448  -896.741028528   529.930087745  -0.11E+01*   0.27E-01*   0.39E-01*    0.85E+00   0.18E+03   EDIIS        0.
   6  -344.196742789  -869.012243240   502.066386116  -0.13E+00*   0.30E+00*   0.21E+00*    0.18E+01   0.18E+03   EDIIS        0.
   7  -343.216403948  -910.787301145   544.821782861   0.98E+00*   0.69E-01*   0.40E-01*    0.20E+01   0.18E+03   EDIIS        0.
   8  -344.875441421  -887.416935679   519.792379922  -0.17E+01*   0.24E+00*   0.15E+00*    0.22E+01   0.18E+03   EDIIS        0.
   9  -345.216924396  -875.407079995   507.441041263  -0.34E+00*   0.23E+00*   0.36E+00*    0.16E+01   0.18E+03   EDIIS        0.
  10  -345.290855860  -880.478482054   512.438511859  -0.74E-01*   0.64E-01*   0.92E-01*    0.69E+00   0.18E+03   EDIIS        0.
  11  -345.299359156  -878.586440374   510.537966883  -0.85E-02*   0.33E-01*   0.33E-01*    0.21E+00   0.18E+03   EDIIS        0.
 
       Fermi aufbau procedure completed!
      nOcc(alpha)=   18
      nOcc(beta) =   14
 
  12  -345.300709781  -879.408504680   511.358680563  -0.14E-02*   0.98E-02*   0.84E-02*    0.84E-01   0.18E+03   EDIIS        0.
  13  -345.300984208  -879.091024839   511.040926295  -0.27E-03*   0.82E-02*   0.48E-02*    0.36E-01   0.18E+03   EDIIS        0.
  14  -345.301054932  -879.218904348   511.168735080  -0.71E-04*   0.42E-02*   0.24E-02*    0.18E-01   0.18E+03   EDIIS        0.
  15  -345.301076279  -879.169257040   511.119066426  -0.21E-04*   0.26E-02*   0.15E-02*    0.10E-01   0.18E+03   EDIIS        0.
  16  -345.301083353  -879.188612487   511.138414799  -0.71E-05*   0.65E-03*   0.19E-02*    0.58E-02   0.18E+03   c2DIIS       0.
  17  -345.301086880  -879.172314812   511.122113596  -0.35E-05*   0.80E-03*   0.34E-03*    0.26E-02   0.18E+03   QNRc2DIIS    0.
  18  -345.301087113  -879.187226385   511.137024936  -0.23E-06*   0.27E-03*   0.13E-03     0.11E-02   0.18E+03   QNRc2DIIS    0.
  19  -345.301087161  -879.183496718   511.133295221  -0.48E-07*   0.39E-03*   0.46E-04     0.36E-03   0.18E+03   QNRc2DIIS    0.
  20  -345.301087174  -879.183033426   511.132831916  -0.13E-07*   0.13E-04    0.25E-05     0.52E-03   0.18E+03   QNRc2DIIS    0.
  21  -345.301087174  -879.183031290   511.132829781  -0.23E-10    0.25E-05    0.77E-06     0.18E-04   0.18E+03   QNRc2DIIS    0.
 
       Convergence after 21 Macro Iterations
--
 
 *****************************************************************************************************************************
 *                                                                                                                           *
 *                                             SCF/KS-DFT Program, Final results                                             *
 *                                                                                                                           *
 *                                                                                                                           *
 *                                                                                                                           *
 *                                                       Final Results                                                       *
 *                                                                                                                           *
 *****************************************************************************************************************************
 
::    Total SCF energy                              -1345.3010871738
      One-electron energy                           -1879.1830312903
      Two-electron energy                             511.1328297809
      Nuclear repulsion energy                         22.7491143357
      Kinetic energy (interpolated)                  1399.7946603002
      Virial theorem                                    0.9610703093
      Total spin, S(S+1)                                8.0101244321
      Total spin, S                                     2.3740432203
      Max non-diagonal density matrix element           0.0000011505
      Max non-diagonal Fock matrix element              0.0000002779
 
 
      All orbitals with orbital energies smaller than  E(LUMO)+0.5 are printed
 
++    Molecular orbitals:
      -------------------
 
      Title: UHF orbitals (alpha)

      Molecular orbitals for symmetry species 1: a  
 
          Orbital            1         2         3         4         5         6         7         8         9        10    
          Energy         -264.6162  -33.4938  -28.5576  -28.5576  -28.5576  -20.8555   -5.4419   -3.9819   -3.9819   -3.9818
          Occ. No.          1.0000    1.0000    1.0000    1.0000    1.0000    1.0000    1.0000    1.0000    1.0000    1.0000
 
        1 O1     1s        -0.0000   -0.0000   -0.0000   -0.0000    0.0000    1.0000   -0.0000   -0.0000   -0.0000   -0.0000
        2 O1     2s        -0.0000   -0.0000   -0.0000   -0.0000    0.0000   -0.0022   -0.0003   -0.0000   -0.0000   -0.0002
        3 O1     3s        -0.0000   -0.0000   -0.0001   -0.0000    0.0000    0.0004   -0.0005    0.0000   -0.0000   -0.0002
        4 O1     2px       -0.0000    0.0000    0.0000   -0.0000   -0.0000   -0.0000   -0.0000   -0.0000   -0.0000   -0.0000
        5 O1     3px        0.0000   -0.0000   -0.0000   -0.0000   -0.0000   -0.0000    0.0000   -0.0001   -0.0000    0.0000
        6 O1     2py       -0.0000    0.0000   -0.0000    0.0000   -0.0000   -0.0000   -0.0000    0.0000   -0.0000    0.0000
        7 O1     3py       -0.0000    0.0000   -0.0000    0.0000   -0.0000    0.0000   -0.0000    0.0000   -0.0001    0.0000
        8 O1     2pz        0.0000    0.0000    0.0000    0.0000   -0.0000   -0.0001    0.0002    0.0000    0.0000    0.0001
        9 O1     3pz        0.0000    0.0000    0.0001    0.0000   -0.0000    0.0000    0.0005   -0.0000    0.0000    0.0001
       10 O1     3d2-      -0.0000   -0.0000    0.0000   -0.0000    0.0000   -0.0000   -0.0000   -0.0000   -0.0000   -0.0000
       11 O1     3d1-       0.0000   -0.0000    0.0000   -0.0000    0.0000    0.0000    0.0000   -0.0000    0.0000    0.0000
       12 O1     3d0        0.0000   -0.0000   -0.0000   -0.0000    0.0000    0.0009   -0.0000    0.0000   -0.0000   -0.0000
       13 O1     3d1+       0.0000   -0.0000    0.0000    0.0000    0.0000    0.0000   -0.0000    0.0000    0.0000   -0.0000
       14 O1     3d2+      -0.0000   -0.0000   -0.0000   -0.0000    0.0000    0.0000    0.0000    0.0000   -0.0000   -0.0000
       15 FE2    1s         1.0000   -0.0000   -0.0000   -0.0000    0.0000   -0.0000    0.0000    0.0000   -0.0000    0.0000
       16 FE2    2s         0.0000    1.0000   -0.0000    0.0000    0.0000   -0.0000   -0.0035   -0.0000   -0.0000   -0.0000
       17 FE2    3s        -0.0000    0.0035    0.0000    0.0000   -0.0000   -0.0000    0.9999    0.0000   -0.0000   -0.0000
       18 FE2    4s         0.0000   -0.0003    0.0000    0.0000   -0.0000   -0.0000   -0.0076   -0.0000   -0.0000    0.0000
       19 FE2    5s        -0.0000    0.0004    0.0000    0.0000   -0.0000   -0.0001    0.0083    0.0000    0.0000    0.0000
       20 FE2    2px        0.0000   -0.0000    0.0000    0.9783    0.2071    0.0000   -0.0000   -0.0034   -0.0009    0.0000
       21 FE2    3px       -0.0000    0.0000    0.0000    0.0034    0.0007    0.0000   -0.0000    0.9655    0.2592   -0.0000
       22 FE2    4px        0.0000    0.0000   -0.0000   -0.0006   -0.0001   -0.0000    0.0000   -0.0185   -0.0050    0.0000
       23 FE2    5px       -0.0000    0.0000    0.0000    0.0015    0.0003    0.0000   -0.0000    0.0176    0.0047   -0.0000
       24 FE2    2py       -0.0000    0.0000    0.0000   -0.2071    0.9783    0.0000    0.0000    0.0009   -0.0034    0.0000
       25 FE2    3py        0.0000   -0.0000    0.0000   -0.0007    0.0034    0.0000    0.0000   -0.2592    0.9655   -0.0000
       26 FE2    4py        0.0000   -0.0000   -0.0000    0.0001   -0.0006   -0.0000    0.0000    0.0050   -0.0185    0.0000
       27 FE2    5py        0.0000   -0.0000    0.0000   -0.0003    0.0015    0.0000    0.0000   -0.0047    0.0176   -0.0000
       28 FE2    2pz        0.0000    0.0000    1.0000    0.0000   -0.0000    0.0000   -0.0000    0.0000   -0.0000   -0.0035
       29 FE2    3pz       -0.0000    0.0000    0.0035    0.0000   -0.0000   -0.0000    0.0000   -0.0000    0.0000    0.9996
       30 FE2    4pz        0.0000    0.0000   -0.0006   -0.0000    0.0000   -0.0000    0.0001    0.0000   -0.0000   -0.0192
       31 FE2    5pz        0.0000    0.0000    0.0015    0.0000   -0.0000   -0.0000    0.0001   -0.0000    0.0000    0.0182
       32 FE2    3d2-      -0.0000   -0.0000   -0.0000    0.0000    0.0000   -0.0000   -0.0000   -0.0000   -0.0000    0.0000
       33 FE2    4d2-       0.0000    0.0000    0.0000   -0.0000   -0.0000   -0.0000    0.0000    0.0000    0.0000   -0.0000
       34 FE2    3d1-      -0.0000    0.0000    0.0000   -0.0000    0.0000   -0.0000    0.0000   -0.0000    0.0000   -0.0000
       35 FE2    4d1-       0.0000   -0.0000    0.0000   -0.0000    0.0000    0.0000    0.0000    0.0000   -0.0000    0.0000
       36 FE2    3d0        0.0000    0.0000    0.0000    0.0000   -0.0000   -0.0000   -0.0000    0.0000    0.0000    0.0000
       37 FE2    4d0        0.0000    0.0000    0.0000    0.0000   -0.0000   -0.0000    0.0001    0.0000   -0.0000   -0.0000
       38 FE2    3d1+       0.0000   -0.0000   -0.0000    0.0000    0.0000   -0.0000   -0.0000    0.0000    0.0000   -0.0000
       39 FE2    4d1+       0.0000    0.0000    0.0000    0.0000    0.0000    0.0000   -0.0000   -0.0000   -0.0000    0.0000
       40 FE2    3d2+       0.0000   -0.0000    0.0000   -0.0000   -0.0000   -0.0000    0.0000    0.0000   -0.0000    0.0000
       41 FE2    4d2+       0.0000   -0.0000   -0.0000    0.0000    0.0000    0.0000   -0.0000    0.0000   -0.0000   -0.0000
       42 FE2    4f3-      -0.0000    0.0000    0.0000   -0.0000    0.0000   -0.0000   -0.0000   -0.0000    0.0000    0.0000
       43 FE2    4f2-       0.0000   -0.0000   -0.0000   -0.0000    0.0000    0.0000   -0.0000   -0.0000   -0.0000   -0.0000
       44 FE2    4f1-      -0.0000    0.0000   -0.0000   -0.0000    0.0000   -0.0000   -0.0000    0.0000   -0.0000    0.0000
       45 FE2    4f0        0.0000    0.0000    0.0000    0.0000    0.0000   -0.0000    0.0000   -0.0000   -0.0000   -0.0000
       46 FE2    4f1+      -0.0000    0.0000    0.0000    0.0000    0.0000    0.0000   -0.0000   -0.0000   -0.0000    0.0000
       47 FE2    4f2+      -0.0000    0.0000    0.0000   -0.0000   -0.0000   -0.0000   -0.0000    0.0000   -0.0000    0.0000
       48 FE2    4f3+      -0.0000    0.0000   -0.0000    0.0000    0.0000   -0.0000   -0.0000   -0.0000   -0.0000   -0.0000
 
          Orbital           11        12        13        14        15        16        17        18        19        20    
          Energy           -1.6626   -1.6626   -1.6626   -1.6625   -1.6625   -1.2996   -0.9499   -0.7393   -0.4817   -0.4817
          Occ. No.          1.0000    1.0000    1.0000    1.0000    1.0000    1.0000    1.0000    1.0000    0.0000    0.0000
 
        1 O1     1s         0.0001   -0.0000    0.0000    0.0000    0.0000    0.0021    0.0007    0.0002   -0.0000   -0.0000
        2 O1     2s         0.0008   -0.0000    0.0000    0.0000    0.0000    0.9991    0.0046    0.0200   -0.0000   -0.0000
        3 O1     3s         0.0008   -0.0000    0.0000    0.0000    0.0000    0.0223    0.0065   -0.0118   -0.0000   -0.0000
        4 O1     2px       -0.0000   -0.0000   -0.0000    0.0002    0.0002   -0.0000    0.0000    0.0000   -0.0012   -0.0002
        5 O1     3px       -0.0000   -0.0000    0.0000    0.0004    0.0004   -0.0000    0.0000    0.0000   -0.0038   -0.0006
        6 O1     2py        0.0000   -0.0000    0.0000    0.0002   -0.0002    0.0000   -0.0000    0.0000    0.0002   -0.0012
        7 O1     3py        0.0000   -0.0000    0.0000    0.0004   -0.0004    0.0000   -0.0000    0.0000    0.0006   -0.0038
        8 O1     2pz       -0.0008    0.0000   -0.0000   -0.0000   -0.0000   -0.0184   -0.0112    0.9970    0.0000    0.0000
        9 O1     3pz       -0.0009    0.0000   -0.0000   -0.0000   -0.0000   -0.0069   -0.0058    0.0510    0.0000    0.0000
       10 O1     3d2-       0.0000    0.0000   -0.0000    0.0000    0.0000    0.0000    0.0000   -0.0000   -0.0000   -0.0000
       11 O1     3d1-       0.0000    0.0000   -0.0000   -0.0001    0.0001    0.0000    0.0000    0.0000    0.0000   -0.0000
       12 O1     3d0        0.0001   -0.0000    0.0000    0.0000    0.0000    0.0297    0.0002   -0.0058   -0.0000   -0.0000
       13 O1     3d1+       0.0000    0.0000    0.0000   -0.0001   -0.0001    0.0000   -0.0000   -0.0000   -0.0000   -0.0000
       14 O1     3d2+       0.0000    0.0000    0.0000    0.0000    0.0000    0.0000   -0.0000   -0.0000   -0.0000    0.0000
       15 FE2    1s        -0.0000    0.0000   -0.0000   -0.0000   -0.0000   -0.0000   -0.0000    0.0000   -0.0000    0.0000
       16 FE2    2s        -0.0000    0.0000   -0.0000    0.0000    0.0000   -0.0000    0.0004    0.0002   -0.0000    0.0000
       17 FE2    3s         0.0000   -0.0000    0.0000   -0.0000    0.0000   -0.0001    0.0101    0.0012    0.0000    0.0000
       18 FE2    4s        -0.0002    0.0000   -0.0000   -0.0000   -0.0000    0.0005    0.9278    0.0155    0.0000   -0.0000
       19 FE2    5s        -0.0003    0.0000   -0.0000   -0.0000   -0.0000   -0.0007   -0.3720   -0.0091   -0.0000    0.0000
       20 FE2    2px        0.0000    0.0000    0.0000   -0.0000   -0.0000   -0.0000   -0.0000    0.0000    0.0005    0.0001
       21 FE2    3px       -0.0000    0.0000   -0.0000   -0.0000   -0.0000    0.0000    0.0000   -0.0000    0.0183    0.0031
       22 FE2    4px        0.0000    0.0000    0.0000   -0.0001   -0.0001    0.0000    0.0000   -0.0000    0.9853    0.1672
       23 FE2    5px        0.0000    0.0000   -0.0000   -0.0000   -0.0000   -0.0000    0.0000    0.0000    0.0320    0.0054
       24 FE2    2py        0.0000   -0.0000    0.0000   -0.0000    0.0000   -0.0000   -0.0000   -0.0000   -0.0001    0.0005
       25 FE2    3py       -0.0000    0.0000   -0.0000   -0.0000    0.0000   -0.0000    0.0000    0.0000   -0.0031    0.0183
       26 FE2    4py       -0.0000    0.0000   -0.0000   -0.0001    0.0001   -0.0000    0.0000    0.0000   -0.1672    0.9853
       27 FE2    5py       -0.0000    0.0000    0.0000   -0.0000    0.0000   -0.0000   -0.0000   -0.0000   -0.0054    0.0320
       28 FE2    2pz       -0.0000    0.0000   -0.0000   -0.0000    0.0000   -0.0000   -0.0000    0.0000    0.0000    0.0000
       29 FE2    3pz       -0.0001    0.0000   -0.0000   -0.0000   -0.0000   -0.0001   -0.0001    0.0003    0.0000    0.0000
       30 FE2    4pz       -0.0004    0.0000   -0.0000   -0.0000   -0.0000    0.0003   -0.0064   -0.0222    0.0000    0.0000
       31 FE2    5pz       -0.0001    0.0000   -0.0000   -0.0000   -0.0000   -0.0001   -0.0004   -0.0011    0.0000    0.0000
       32 FE2    3d2-       0.0000    0.6197   -0.7729    0.0000   -0.0000   -0.0000   -0.0000    0.0000    0.0000   -0.0000
       33 FE2    4d2-      -0.0000   -0.0853    0.1064   -0.0000    0.0000   -0.0000   -0.0000    0.0000    0.0000    0.0000
       34 FE2    3d1-      -0.0000   -0.0000    0.0000    0.7089   -0.6920   -0.0000    0.0000   -0.0000   -0.0000    0.0000
       35 FE2    4d1-       0.0000    0.0000   -0.0000   -0.0976    0.0953   -0.0000    0.0000    0.0000    0.0001   -0.0006
       36 FE2    3d0        0.9906   -0.0000    0.0000    0.0000    0.0000   -0.0002   -0.0001    0.0005    0.0000    0.0000
       37 FE2    4d0       -0.1365    0.0000   -0.0000   -0.0000   -0.0000    0.0002   -0.0009   -0.0032   -0.0000   -0.0000
       38 FE2    3d1+      -0.0000   -0.0000    0.0000    0.6920    0.7089   -0.0000   -0.0000   -0.0000    0.0000    0.0000
       39 FE2    4d1+       0.0000    0.0000   -0.0000   -0.0953   -0.0976    0.0000    0.0000    0.0000   -0.0006   -0.0001
       40 FE2    3d2+       0.0000    0.7729    0.6197    0.0000    0.0000    0.0000    0.0000   -0.0000    0.0000    0.0000
       41 FE2    4d2+      -0.0000   -0.1064   -0.0853   -0.0000   -0.0000   -0.0000    0.0000   -0.0000    0.0000   -0.0000
       42 FE2    4f3-      -0.0000    0.0000   -0.0000    0.0000   -0.0000    0.0000    0.0000    0.0000    0.0000   -0.0000
       43 FE2    4f2-       0.0000    0.0000   -0.0000    0.0000   -0.0000    0.0000   -0.0000   -0.0000    0.0000    0.0000
       44 FE2    4f1-      -0.0000   -0.0000    0.0000    0.0000   -0.0000   -0.0000    0.0000   -0.0000    0.0000   -0.0000
       45 FE2    4f0        0.0000   -0.0000    0.0000    0.0000    0.0000    0.0000   -0.0000   -0.0001   -0.0000    0.0000
       46 FE2    4f1+      -0.0000   -0.0000   -0.0000    0.0000    0.0000   -0.0000    0.0000    0.0000   -0.0000   -0.0000
       47 FE2    4f2+       0.0000    0.0000    0.0000    0.0000    0.0000   -0.0000   -0.0000    0.0000    0.0000    0.0000
       48 FE2    4f3+      -0.0000    0.0000   -0.0000    0.0000   -0.0000    0.0000   -0.0000   -0.0000    0.0000    0.0000
 
          Orbital           21        22        23        24    
          Energy           -0.4809   -0.2472   -0.1297   -0.1297
          Occ. No.          0.0000    0.0000    0.0000    0.0000
 
        1 O1     1s        -0.0017   -0.0048    0.0000    0.0000
        2 O1     2s        -0.0250   -0.0600    0.0000   -0.0000
        3 O1     3s        -0.0094   -0.0140    0.0000    0.0000
        4 O1     2px        0.0000    0.0000    0.9447    0.0288
        5 O1     3px        0.0000    0.0000    0.3253    0.0099
        6 O1     2py        0.0000    0.0000   -0.0288    0.9447
        7 O1     3py        0.0000    0.0000   -0.0099    0.3253
        8 O1     2pz        0.0613    0.0646   -0.0000   -0.0000
        9 O1     3pz        0.0158    0.0154   -0.0000   -0.0000
       10 O1     3d2-       0.0000    0.0000   -0.0000    0.0000
       11 O1     3d1-      -0.0000   -0.0000    0.0002   -0.0057
       12 O1     3d0       -0.0003   -0.0001    0.0000    0.0000
       13 O1     3d1+      -0.0000   -0.0000   -0.0057   -0.0002
       14 O1     3d2+      -0.0000   -0.0000    0.0000    0.0000
       15 FE2    1s         0.0000    0.0000    0.0000   -0.0000
       16 FE2    2s         0.0000   -0.0002   -0.0000   -0.0000
       17 FE2    3s         0.0002   -0.0046    0.0000   -0.0000
       18 FE2    4s         0.0067    0.3740   -0.0000   -0.0000
       19 FE2    5s        -0.0011    0.9349   -0.0000   -0.0000
       20 FE2    2px       -0.0000    0.0000   -0.0000   -0.0000
       21 FE2    3px       -0.0000   -0.0000   -0.0006   -0.0000
       22 FE2    4px       -0.0000   -0.0000   -0.0157   -0.0005
       23 FE2    5px       -0.0000    0.0000    0.0023    0.0001
       24 FE2    2py       -0.0000   -0.0000    0.0000   -0.0000
       25 FE2    3py       -0.0000   -0.0000    0.0000   -0.0006
       26 FE2    4py       -0.0000   -0.0000    0.0005   -0.0157
       27 FE2    5py       -0.0000    0.0000   -0.0001    0.0023
       28 FE2    2pz        0.0005    0.0000   -0.0000    0.0000
       29 FE2    3pz        0.0188    0.0003   -0.0000   -0.0000
       30 FE2    4pz        1.0022    0.0075   -0.0000   -0.0000
       31 FE2    5pz        0.0325   -0.0007    0.0000    0.0000
       32 FE2    3d2-       0.0000   -0.0000   -0.0000    0.0000
       33 FE2    4d2-       0.0000   -0.0000   -0.0000    0.0000
       34 FE2    3d1-      -0.0000   -0.0000   -0.0001    0.0018
       35 FE2    4d1-       0.0000    0.0000   -0.0005    0.0168
       36 FE2    3d0        0.0002   -0.0002    0.0000    0.0000
       37 FE2    4d0       -0.0012   -0.0026    0.0000    0.0000
       38 FE2    3d1+       0.0000    0.0000    0.0018    0.0001
       39 FE2    4d1+       0.0000    0.0000    0.0168    0.0005
       40 FE2    3d2+       0.0000   -0.0000   -0.0000   -0.0000
       41 FE2    4d2+       0.0000   -0.0000   -0.0000   -0.0000
       42 FE2    4f3-       0.0000    0.0000   -0.0000    0.0000
       43 FE2    4f2-      -0.0000   -0.0000    0.0000    0.0000
       44 FE2    4f1-       0.0000    0.0000   -0.0000    0.0002
       45 FE2    4f0       -0.0000   -0.0000   -0.0000    0.0000
       46 FE2    4f1+      -0.0000    0.0000    0.0002    0.0000
       47 FE2    4f2+       0.0000    0.0000    0.0000   -0.0000
       48 FE2    4f3+      -0.0000    0.0000   -0.0000   -0.0000
--
 
 
  Input file to MOLDEN was generated!
 
 
++    Static properties:
      ------------------
 
 
      LoProp Charges per center
 

                   O1       FE2   
      Nuclear      8.0000  26.0000
      Electronic  -7.9994 -24.0006
 
      Total        0.0006   1.9994
--
 
 
      All orbitals with orbital energies smaller than  E(LUMO)+0.5 are printed
 
++    Molecular orbitals:
      -------------------
 
      Title: UHF orbitals (beta)

      Molecular orbitals for symmetry species 1: a  
 
          Orbital            1         2         3         4         5         6         7         8         9        10    
          Energy         -264.6083  -33.3171  -28.3851  -28.3851  -28.3851  -20.9407   -4.9678   -3.4194   -3.4194   -3.4193
          Occ. No.          1.0000    1.0000    1.0000    1.0000    1.0000    1.0000    1.0000    1.0000    1.0000    1.0000
 
        1 O1     1s        -0.0000    0.0000   -0.0000    0.0000    0.0000    1.0000   -0.0000   -0.0000    0.0000    0.0000
        2 O1     2s        -0.0000    0.0000   -0.0000    0.0000    0.0000    0.0019   -0.0001   -0.0000    0.0000    0.0001
        3 O1     3s        -0.0000    0.0000   -0.0000    0.0000    0.0001   -0.0017   -0.0002    0.0000    0.0000    0.0002
        4 O1     2px       -0.0000    0.0000    0.0000    0.0000    0.0000   -0.0000   -0.0000    0.0000    0.0000   -0.0000
        5 O1     3px        0.0000   -0.0000    0.0000    0.0000   -0.0000   -0.0000    0.0000    0.0001    0.0000    0.0000
        6 O1     2py       -0.0000    0.0000   -0.0000    0.0000   -0.0000   -0.0000   -0.0000   -0.0000    0.0000    0.0000
        7 O1     3py       -0.0000    0.0000   -0.0000    0.0000   -0.0000    0.0000   -0.0000   -0.0000    0.0001   -0.0000
        8 O1     2pz        0.0000   -0.0000    0.0000   -0.0000   -0.0000   -0.0001    0.0001    0.0000   -0.0000   -0.0001
        9 O1     3pz        0.0000   -0.0000    0.0000   -0.0000   -0.0001    0.0001    0.0002   -0.0000   -0.0000   -0.0004
       10 O1     3d2-      -0.0000   -0.0000   -0.0000    0.0000    0.0000    0.0000   -0.0000   -0.0000   -0.0000   -0.0000
       11 O1     3d1-       0.0000   -0.0000    0.0000   -0.0000    0.0000   -0.0000    0.0000    0.0000   -0.0000    0.0000
       12 O1     3d0        0.0000    0.0000   -0.0000    0.0000    0.0000   -0.0004   -0.0000    0.0000    0.0000    0.0000
       13 O1     3d1+       0.0000   -0.0000   -0.0000   -0.0000    0.0000   -0.0000   -0.0000   -0.0000   -0.0000   -0.0000
       14 O1     3d2+      -0.0000   -0.0000   -0.0000    0.0000   -0.0000   -0.0000    0.0000    0.0000   -0.0000   -0.0000
       15 FE2    1s         1.0000   -0.0000    0.0000   -0.0000   -0.0000    0.0000    0.0000    0.0000   -0.0000   -0.0000
       16 FE2    2s         0.0000    1.0000    0.0000   -0.0000   -0.0000    0.0000    0.0011   -0.0000   -0.0000   -0.0000
       17 FE2    3s        -0.0000   -0.0011    0.0000    0.0000    0.0000    0.0000    1.0000    0.0000   -0.0000   -0.0001
       18 FE2    4s         0.0000    0.0002    0.0000   -0.0000   -0.0000    0.0000   -0.0028   -0.0000   -0.0000   -0.0000
       19 FE2    5s        -0.0000   -0.0002    0.0000   -0.0000   -0.0000    0.0001    0.0033   -0.0000   -0.0000   -0.0001
       20 FE2    2px        0.0000   -0.0000    0.9804    0.1968   -0.0000    0.0000   -0.0000    0.0031    0.0009   -0.0000
       21 FE2    3px       -0.0000    0.0000   -0.0032   -0.0006    0.0000    0.0000   -0.0000    0.9629    0.2696   -0.0000
       22 FE2    4px        0.0000    0.0000    0.0004    0.0001   -0.0000   -0.0000    0.0000   -0.0110   -0.0031    0.0000
       23 FE2    5px       -0.0000    0.0000   -0.0011   -0.0002    0.0000    0.0000   -0.0000    0.0053    0.0015   -0.0000
       24 FE2    2py       -0.0000    0.0000   -0.1968    0.9804   -0.0000    0.0000    0.0000   -0.0009    0.0031   -0.0000
       25 FE2    3py        0.0000   -0.0000    0.0006   -0.0032    0.0000    0.0000    0.0000   -0.2696    0.9629   -0.0000
       26 FE2    4py        0.0000   -0.0000   -0.0001    0.0004   -0.0000   -0.0000    0.0000    0.0031   -0.0110    0.0000
       27 FE2    5py        0.0000   -0.0000    0.0002   -0.0011    0.0000    0.0000    0.0000   -0.0015    0.0053   -0.0000
       28 FE2    2pz        0.0000    0.0000   -0.0000    0.0000    1.0000    0.0000   -0.0000    0.0000    0.0000    0.0032
       29 FE2    3pz       -0.0000    0.0000    0.0000   -0.0000   -0.0032    0.0000    0.0001    0.0000    0.0000    0.9999
       30 FE2    4pz        0.0000   -0.0000   -0.0000    0.0000    0.0004    0.0000    0.0000   -0.0000   -0.0000   -0.0115
       31 FE2    5pz       -0.0000   -0.0000    0.0000   -0.0000   -0.0011    0.0000    0.0000    0.0000    0.0000    0.0055
       32 FE2    3d2-      -0.0000   -0.0000   -0.0000    0.0000   -0.0000    0.0000    0.0000   -0.0000   -0.0000    0.0000
       33 FE2    4d2-       0.0000    0.0000   -0.0000   -0.0000    0.0000   -0.0000   -0.0000    0.0000    0.0000   -0.0000
       34 FE2    3d1-      -0.0000    0.0000   -0.0000    0.0000   -0.0000   -0.0000    0.0000   -0.0000    0.0001   -0.0000
       35 FE2    4d1-       0.0000   -0.0000    0.0000   -0.0000    0.0000   -0.0000    0.0000    0.0000   -0.0000    0.0000
       36 FE2    3d0        0.0000   -0.0000    0.0000   -0.0000   -0.0000    0.0000   -0.0000    0.0000    0.0000    0.0001
       37 FE2    4d0        0.0000   -0.0000    0.0000   -0.0000   -0.0000    0.0000    0.0000    0.0000   -0.0000   -0.0000
       38 FE2    3d1+       0.0000   -0.0000    0.0000    0.0000   -0.0000   -0.0000   -0.0000    0.0001    0.0000   -0.0000
       39 FE2    4d1+       0.0000    0.0000   -0.0000   -0.0000    0.0000    0.0000   -0.0000   -0.0000   -0.0000    0.0000
       40 FE2    3d2+       0.0000   -0.0000   -0.0000    0.0000    0.0000   -0.0000   -0.0000   -0.0000    0.0000    0.0000
       41 FE2    4d2+       0.0000   -0.0000    0.0000    0.0000   -0.0000    0.0000   -0.0000    0.0000   -0.0000   -0.0000
       42 FE2    4f3-      -0.0000    0.0000   -0.0000    0.0000    0.0000   -0.0000   -0.0000    0.0000    0.0000    0.0000
       43 FE2    4f2-       0.0000   -0.0000   -0.0000    0.0000   -0.0000    0.0000    0.0000   -0.0000   -0.0000    0.0000
       44 FE2    4f1-      -0.0000    0.0000    0.0000   -0.0000    0.0000   -0.0000   -0.0000    0.0000   -0.0000    0.0000
       45 FE2    4f0        0.0000   -0.0000    0.0000   -0.0000   -0.0000    0.0000   -0.0000   -0.0000   -0.0000   -0.0000
       46 FE2    4f1+      -0.0000    0.0000   -0.0000   -0.0000    0.0000    0.0000   -0.0000   -0.0000   -0.0000    0.0000
       47 FE2    4f2+      -0.0000    0.0000   -0.0000   -0.0000    0.0000   -0.0000   -0.0000    0.0000   -0.0000   -0.0000
       48 FE2    4f3+      -0.0000    0.0000    0.0000    0.0000   -0.0000   -0.0000   -0.0000   -0.0000   -0.0000   -0.0000
 
          Orbital           11        12        13        14        15        16        17        18        19        20    
          Energy           -1.6425   -0.9327   -0.9327   -0.8348   -0.5732   -0.5713   -0.5713   -0.5712   -0.5712   -0.5711
          Occ. No.          1.0000    1.0000    1.0000    1.0000    0.0000    0.0000    0.0000    0.0000    0.0000    0.0000
 
        1 O1     1s        -0.0019    0.0000    0.0000    0.0001    0.0001   -0.0000   -0.0000   -0.0000    0.0000   -0.0002
        2 O1     2s         0.9994   -0.0000   -0.0000    0.0147   -0.0006   -0.0000   -0.0000   -0.0000    0.0000   -0.0032
        3 O1     3s        -0.0285   -0.0000    0.0000   -0.0111    0.0015   -0.0000   -0.0000   -0.0000    0.0000   -0.0012
        4 O1     2px       -0.0000   -0.6752    0.7360    0.0000   -0.0000    0.0000   -0.0000   -0.0008   -0.0013    0.0000
        5 O1     3px       -0.0000    0.0326   -0.0355   -0.0000   -0.0000    0.0000    0.0000   -0.0006   -0.0009    0.0000
        6 O1     2py       -0.0000    0.7360    0.6752    0.0000    0.0000    0.0000    0.0000   -0.0013    0.0008   -0.0000
        7 O1     3py        0.0000   -0.0355   -0.0326   -0.0000   -0.0000    0.0000    0.0000   -0.0009    0.0006    0.0000
        8 O1     2pz       -0.0152   -0.0000   -0.0000    0.9995    0.0154    0.0000    0.0000    0.0000   -0.0000    0.0117
        9 O1     3pz       -0.0034    0.0000    0.0000   -0.0087   -0.0013    0.0000    0.0000    0.0000   -0.0000    0.0029
       10 O1     3d2-       0.0000    0.0000   -0.0000   -0.0000    0.0000    0.0000   -0.0000    0.0000    0.0000    0.0000
       11 O1     3d1-      -0.0000   -0.0039   -0.0036   -0.0000   -0.0000   -0.0000   -0.0000    0.0000   -0.0000    0.0000
       12 O1     3d0       -0.0209    0.0000    0.0000   -0.0071    0.0002   -0.0000   -0.0000   -0.0000    0.0000   -0.0000
       13 O1     3d1+      -0.0000    0.0036   -0.0039   -0.0000    0.0000    0.0000   -0.0000    0.0000    0.0000    0.0000
       14 O1     3d2+      -0.0000    0.0000    0.0000   -0.0000   -0.0000   -0.0000   -0.0000    0.0000    0.0000    0.0000
       15 FE2    1s        -0.0000   -0.0000    0.0000    0.0000   -0.0000   -0.0000    0.0000   -0.0000   -0.0000    0.0000
       16 FE2    2s        -0.0000    0.0000   -0.0000    0.0001   -0.0002   -0.0000    0.0000   -0.0000    0.0000   -0.0000
       17 FE2    3s        -0.0000   -0.0000    0.0000    0.0006    0.0035    0.0000   -0.0000    0.0000   -0.0000    0.0004
       18 FE2    4s        -0.0005   -0.0000    0.0000   -0.0059    0.9648    0.0000   -0.0000    0.0000   -0.0000    0.0881
       19 FE2    5s        -0.0012   -0.0000   -0.0000    0.0016   -0.2467   -0.0000    0.0000   -0.0000    0.0000   -0.0219
       20 FE2    2px       -0.0000    0.0000   -0.0000    0.0000   -0.0000    0.0000    0.0000   -0.0000   -0.0000    0.0000
       21 FE2    3px        0.0000    0.0000   -0.0000   -0.0000    0.0000    0.0000    0.0000   -0.0000   -0.0001   -0.0000
       22 FE2    4px        0.0000    0.0002   -0.0003   -0.0000    0.0000   -0.0000   -0.0000    0.0001    0.0002   -0.0000
       23 FE2    5px       -0.0000    0.0001   -0.0001    0.0000    0.0000    0.0000    0.0000   -0.0000   -0.0000   -0.0000
       24 FE2    2py       -0.0000   -0.0000   -0.0000   -0.0000   -0.0000    0.0000   -0.0000   -0.0000    0.0000    0.0000
       25 FE2    3py       -0.0000   -0.0000   -0.0000    0.0000    0.0000    0.0000    0.0000   -0.0001    0.0000   -0.0000
       26 FE2    4py       -0.0000   -0.0003   -0.0002    0.0000    0.0000   -0.0000    0.0000    0.0002   -0.0001    0.0000
       27 FE2    5py       -0.0000   -0.0001   -0.0001   -0.0000   -0.0000    0.0000    0.0000   -0.0000    0.0000   -0.0000
       28 FE2    2pz       -0.0000    0.0000   -0.0000    0.0000    0.0000   -0.0000    0.0000    0.0000    0.0000   -0.0000
       29 FE2    3pz       -0.0000   -0.0000    0.0000    0.0004   -0.0000   -0.0000   -0.0000   -0.0000   -0.0000   -0.0001
       30 FE2    4pz       -0.0007   -0.0000    0.0000   -0.0039   -0.0016   -0.0000   -0.0000    0.0000   -0.0000   -0.0003
       31 FE2    5pz       -0.0004   -0.0000   -0.0000   -0.0004   -0.0003   -0.0000   -0.0000    0.0000   -0.0000   -0.0001
       32 FE2    3d2-       0.0000   -0.0000    0.0000   -0.0000    0.0000   -0.1415    0.9818    0.0000   -0.0000   -0.0000
       33 FE2    4d2-      -0.0000   -0.0000    0.0000    0.0000    0.0000   -0.0181    0.1253    0.0000   -0.0000   -0.0000
       34 FE2    3d1-      -0.0000    0.0000    0.0000   -0.0000    0.0000   -0.0000   -0.0000    0.8316   -0.5407   -0.0000
       35 FE2    4d1-      -0.0000   -0.0001   -0.0001   -0.0000    0.0000   -0.0000   -0.0000    0.1061   -0.0690   -0.0000
       36 FE2    3d0       -0.0000    0.0000    0.0000   -0.0039   -0.0898    0.0000    0.0000    0.0000   -0.0000    0.9880
       37 FE2    4d0       -0.0002    0.0000    0.0000   -0.0014   -0.0119    0.0000    0.0000    0.0000   -0.0000    0.1259
       38 FE2    3d1+       0.0000   -0.0000    0.0000    0.0000    0.0000   -0.0000   -0.0000    0.5407    0.8316   -0.0000
       39 FE2    4d1+       0.0000    0.0001   -0.0001    0.0000    0.0000   -0.0000   -0.0000    0.0690    0.1061   -0.0000
       40 FE2    3d2+      -0.0000    0.0000    0.0000    0.0000   -0.0000    0.9818    0.1415    0.0000   -0.0000   -0.0000
       41 FE2    4d2+       0.0000   -0.0000   -0.0000    0.0000   -0.0000    0.1253    0.0181    0.0000   -0.0000   -0.0000
       42 FE2    4f3-       0.0000    0.0000   -0.0000    0.0000    0.0000   -0.0000    0.0000    0.0000   -0.0000    0.0000
       43 FE2    4f2-       0.0000    0.0000    0.0000   -0.0000   -0.0000   -0.0000    0.0000    0.0000   -0.0000   -0.0000
       44 FE2    4f1-       0.0000    0.0000    0.0000   -0.0000    0.0000   -0.0000   -0.0000    0.0000   -0.0000   -0.0000
       45 FE2    4f0        0.0000    0.0000   -0.0000   -0.0001   -0.0000   -0.0000    0.0000    0.0000   -0.0000    0.0000
       46 FE2    4f1+      -0.0000   -0.0000    0.0000   -0.0000    0.0000   -0.0000   -0.0000    0.0000    0.0000   -0.0000
       47 FE2    4f2+      -0.0000   -0.0000   -0.0000    0.0000   -0.0000    0.0000    0.0000    0.0000   -0.0000   -0.0000
       48 FE2    4f3+       0.0000    0.0000   -0.0000   -0.0000   -0.0000    0.0000    0.0000    0.0000   -0.0000   -0.0000
 
          Orbital           21        22        23        24    
          Energy           -0.3916   -0.3916   -0.3905   -0.2256
          Occ. No.          0.0000    0.0000    0.0000    0.0000
 
        1 O1     1s        -0.0000   -0.0000   -0.0017   -0.0048
        2 O1     2s        -0.0000   -0.0000   -0.0221   -0.0536
        3 O1     3s        -0.0000   -0.0000   -0.0049   -0.0083
        4 O1     2px       -0.0051   -0.0001   -0.0000   -0.0000
        5 O1     3px       -0.0012   -0.0000   -0.0000   -0.0000
        6 O1     2py        0.0001   -0.0051    0.0000    0.0000
        7 O1     3py        0.0000   -0.0012    0.0000    0.0000
        8 O1     2pz        0.0000    0.0000    0.0366    0.0509
        9 O1     3pz        0.0000    0.0000    0.0031    0.0084
       10 O1     3d2-       0.0000    0.0000    0.0000    0.0000
       11 O1     3d1-       0.0000   -0.0002   -0.0000   -0.0000
       12 O1     3d0        0.0000    0.0000    0.0007    0.0009
       13 O1     3d1+      -0.0002   -0.0000    0.0000    0.0000
       14 O1     3d2+       0.0000   -0.0000   -0.0000   -0.0000
       15 FE2    1s        -0.0000    0.0000    0.0000    0.0000
       16 FE2    2s        -0.0000    0.0000    0.0000    0.0002
       17 FE2    3s         0.0000   -0.0000    0.0001   -0.0023
       18 FE2    4s        -0.0000   -0.0000    0.0010    0.2499
       19 FE2    5s        -0.0000    0.0000   -0.0043    0.9736
       20 FE2    2px       -0.0003   -0.0000    0.0000    0.0000
       21 FE2    3px        0.0110    0.0003   -0.0000   -0.0000
       22 FE2    4px        0.9971    0.0262   -0.0000    0.0000
       23 FE2    5px        0.0721    0.0019   -0.0000    0.0000
       24 FE2    2py        0.0000   -0.0003    0.0000   -0.0000
       25 FE2    3py       -0.0003    0.0110   -0.0000   -0.0000
       26 FE2    4py       -0.0262    0.9971   -0.0000   -0.0000
       27 FE2    5py       -0.0019    0.0721   -0.0000    0.0000
       28 FE2    2pz       -0.0000   -0.0000   -0.0003   -0.0000
       29 FE2    3pz        0.0000    0.0000    0.0111    0.0002
       30 FE2    4pz        0.0000    0.0000    0.9989    0.0096
       31 FE2    5pz        0.0000    0.0000    0.0720    0.0000
       32 FE2    3d2-       0.0000   -0.0000    0.0000   -0.0000
       33 FE2    4d2-       0.0000   -0.0000    0.0000   -0.0000
       34 FE2    3d1-       0.0000   -0.0001   -0.0000   -0.0000
       35 FE2    4d1-       0.0000   -0.0000   -0.0000   -0.0000
       36 FE2    3d0        0.0000    0.0000    0.0011    0.0011
       37 FE2    4d0        0.0000    0.0000   -0.0006   -0.0013
       38 FE2    3d1+      -0.0001   -0.0000   -0.0000    0.0000
       39 FE2    4d1+      -0.0000   -0.0000    0.0000   -0.0000
       40 FE2    3d2+       0.0000   -0.0000    0.0000   -0.0000
       41 FE2    4d2+       0.0000   -0.0000    0.0000   -0.0000
       42 FE2    4f3-       0.0000   -0.0000    0.0000   -0.0000
       43 FE2    4f2-       0.0000    0.0000    0.0000   -0.0000
       44 FE2    4f1-       0.0000   -0.0000    0.0000    0.0000
       45 FE2    4f0        0.0000    0.0000   -0.0000   -0.0000
       46 FE2    4f1+      -0.0000   -0.0000   -0.0000    0.0000
       47 FE2    4f2+       0.0000    0.0000    0.0000    0.0000
       48 FE2    4f3+       0.0000    0.0000   -0.0000    0.0000
--
 
 
++    Molecular charges:
      ------------------
 
      Mulliken charges per centre and basis function type
      ---------------------------------------------------
 
                            O1                      FE2   
                     alpha        beta       alpha        beta
      1s           1.0000      1.0000      1.0000      1.0000
      2s           0.9986      0.9988      1.0000      1.0000
      2px          0.0000      0.9976      1.0000      1.0000
      2pz          0.9953      0.9995      1.0000      1.0000
      2py          0.0000      0.9976      1.0000      1.0000
      3s           0.0007      0.0010      1.0000      1.0000
      3px          0.0000      0.0023      0.9993      0.9998
      3pz          0.0031      0.0001      0.9993      0.9998
      3py          0.0000      0.0023      0.9993      0.9998
      4s           0.0000      0.0000      0.8617      0.0002
      3d2+        -0.0000      0.0000      0.9814      0.0000
      3d1+        -0.0000      0.0000      0.9814      0.0000
      3d0          0.0009      0.0005      0.9814      0.0000
      3d1-        -0.0000      0.0000      0.9814      0.0000
      3d2-        -0.0000      0.0000      0.9814      0.0000
      4px          0.0000      0.0000      0.0004      0.0001
      4pz          0.0000      0.0000      0.0017      0.0003
      4py          0.0000      0.0000      0.0004      0.0001
      5s           0.0000      0.0000      0.1381     -0.0001
      4d2+         0.0000      0.0000      0.0186      0.0000
      4d1+         0.0000      0.0000      0.0186     -0.0000
      4d0          0.0000      0.0000      0.0187      0.0000
      4d1-         0.0000      0.0000      0.0186     -0.0000
      4d2-         0.0000      0.0000      0.0186      0.0000
      5px          0.0000      0.0000      0.0003      0.0000
      5pz          0.0000      0.0000      0.0004      0.0000
      5py          0.0000      0.0000      0.0003      0.0000
      4f3+         0.0000      0.0000      0.0000      0.0000
      4f2+         0.0000      0.0000      0.0000      0.0000
      4f1+         0.0000      0.0000      0.0000      0.0000
      4f0          0.0000      0.0000      0.0000      0.0000
      4f1-         0.0000      0.0000      0.0000      0.0000
      4f2-         0.0000      0.0000      0.0000      0.0000
      4f3-         0.0000      0.0000      0.0000      0.0000
      Total        2.9987      4.9998     15.0013      9.0002
      Total              7.9985                 24.0015
 
      Charge            0.0015                  1.9985
 
      Total electronic charge=   32.000000
 
      Total            charge=    2.000000
--
 
 
  Input file to MOLDEN was generated!
 
 
++    Static properties:
      ------------------
 
 
      LoProp Charges per center
 

                   O1       FE2   
      Nuclear      8.0000  26.0000
      Electronic  -7.9994 -24.0006
 
      Total        0.0006   1.9994
--
 
 
++    Natural Bond Order analysis
      ---------------------------
      Based on LoProp computed density
      -------------------------------------------------------------------------------------
      Atom A       Atom B       Bond Order
      -------------------------------------------------------------------------------------
      NBO located     20.000 core electrons.
      NBO located      3.994 lone pair electrons.
      NBO located      1.000 non-bonded electrons on atom O1        
      NBO located      1.000 non-bonded electrons on atom O1        
      NBO located      1.000 non-bonded electrons on atom FE2       
      NBO located      1.000 non-bonded electrons on atom FE2       
      NBO located      1.000 non-bonded electrons on atom FE2       
      NBO located      1.000 non-bonded electrons on atom FE2       
      NBO located      1.000 non-bonded electrons on atom FE2       
      NBO located      1.000 non-bonded electrons on atom FE2       
      The remaining    0.007 electrons are to be considered as diffuse
--
 
 
++    Molecular orbitals:
      -------------------
 
      Title: Natural orbitals

      Molecular orbitals for symmetry species 1: a  
 
          Orbital            1         2         3         4         5         6         7         8         9        10    
          Energy         -264.6122  -33.0536  -27.5921  -27.7110  -27.7102  -20.9342   -5.6066   -4.4678   -4.4606   -4.4614
          Occ. No.          2.0000    2.0000    2.0000    2.0000    2.0000    2.0000    2.0000    1.9999    1.9999    1.9999
 
        1 O1     1s         0.0000    0.0062    0.1265    0.0000    0.0000    0.9898    0.0562   -0.0024   -0.0000   -0.0000
        2 O1     2s        -0.0000   -0.0001   -0.0041   -0.0000   -0.0000   -0.0333   -0.0007   -0.0028    0.0000   -0.0000
        3 O1     3s        -0.0000    0.0000   -0.0001   -0.0000   -0.0000   -0.0005    0.0003    0.0004    0.0000    0.0000
        4 O1     2px       -0.0000    0.0000    0.0000   -0.0000   -0.0000   -0.0000   -0.0000   -0.0000   -0.0000   -0.0000
        5 O1     3px        0.0000   -0.0000   -0.0000   -0.0000   -0.0000    0.0000   -0.0000    0.0000    0.0000    0.0000
        6 O1     2py       -0.0000    0.0000    0.0000    0.0000   -0.0000   -0.0000   -0.0000   -0.0000    0.0000   -0.0000
        7 O1     3py       -0.0000    0.0000   -0.0000    0.0000   -0.0000    0.0000    0.0000   -0.0000   -0.0000    0.0000
        8 O1     2pz        0.0000   -0.0000    0.0016   -0.0000   -0.0000   -0.0012   -0.0048   -0.0333   -0.0000   -0.0000
        9 O1     3pz        0.0000   -0.0000    0.0001    0.0000    0.0000    0.0002   -0.0004   -0.0008   -0.0000   -0.0000
       10 O1     3d2-      -0.0000   -0.0000    0.0000    0.0000    0.0000   -0.0000    0.0000   -0.0000   -0.0000   -0.0000
       11 O1     3d1-       0.0000   -0.0000   -0.0000   -0.0000    0.0000    0.0000   -0.0000    0.0000   -0.0000    0.0000
       12 O1     3d0        0.0000    0.0000    0.0000    0.0000    0.0000    0.0002    0.0001    0.0002    0.0000    0.0000
       13 O1     3d1+       0.0000   -0.0000    0.0000    0.0000    0.0000    0.0000    0.0000   -0.0000    0.0000    0.0000
       14 O1     3d2+      -0.0000   -0.0000   -0.0000   -0.0000    0.0000   -0.0000   -0.0000   -0.0000    0.0000   -0.0000
       15 FE2    1s         1.0000   -0.0000    0.0000   -0.0000    0.0000    0.0000   -0.0000    0.0000    0.0000   -0.0000
       16 FE2    2s         0.0000    0.9939    0.0020   -0.0000   -0.0000   -0.0002   -0.1106    0.0006    0.0000    0.0000
       17 FE2    3s        -0.0000   -0.1104    0.0071    0.0000    0.0000    0.0561   -0.9922    0.0041    0.0000    0.0000
       18 FE2    4s         0.0000    0.0005   -0.0000   -0.0000   -0.0000   -0.0001    0.0022    0.0001   -0.0000   -0.0000
       19 FE2    5s        -0.0000   -0.0006    0.0000    0.0000    0.0000    0.0003   -0.0045   -0.0000    0.0000    0.0000
       20 FE2    2px        0.0000    0.0000    0.0000    0.9632    0.2040   -0.0000   -0.0000   -0.0000    0.1699    0.0423
       21 FE2    3px       -0.0000   -0.0000   -0.0000   -0.1712   -0.0363    0.0000    0.0000   -0.0000    0.9553    0.2376
       22 FE2    4px        0.0000    0.0000    0.0000    0.0026    0.0005   -0.0000   -0.0000    0.0000   -0.0146   -0.0036
       23 FE2    5px       -0.0000   -0.0000   -0.0000   -0.0019   -0.0004    0.0000    0.0000   -0.0000    0.0114    0.0028
       24 FE2    2py       -0.0000    0.0000    0.0000   -0.2040    0.9632   -0.0000   -0.0000   -0.0000   -0.0423    0.1700
       25 FE2    3py        0.0000   -0.0000   -0.0000    0.0363   -0.1713    0.0000    0.0000   -0.0000   -0.2376    0.9552
       26 FE2    4py       -0.0000    0.0000    0.0000   -0.0005    0.0026   -0.0000   -0.0000    0.0000    0.0036   -0.0146
       27 FE2    5py        0.0000   -0.0000   -0.0000    0.0004   -0.0019    0.0000    0.0000   -0.0000   -0.0028    0.0114
       28 FE2    2pz       -0.0000   -0.0021    0.9764   -0.0000   -0.0000   -0.1244    0.0009    0.1763    0.0000    0.0000
       29 FE2    3pz       -0.0000    0.0002   -0.1746    0.0000    0.0000    0.0243    0.0040    0.9836    0.0000    0.0000
       30 FE2    4pz        0.0000   -0.0000    0.0026   -0.0000   -0.0000   -0.0003   -0.0001   -0.0147   -0.0000   -0.0000
       31 FE2    5pz       -0.0000   -0.0000   -0.0019    0.0000    0.0000    0.0003    0.0000    0.0117    0.0000    0.0000
       32 FE2    3d2-      -0.0000   -0.0000   -0.0000    0.0000    0.0000   -0.0000   -0.0000    0.0000   -0.0000   -0.0000
       33 FE2    4d2-       0.0000    0.0000    0.0000   -0.0000   -0.0000    0.0000    0.0000   -0.0000    0.0000    0.0000
       34 FE2    3d1-      -0.0000   -0.0000   -0.0000    0.0000   -0.0000    0.0000    0.0000   -0.0000   -0.0000    0.0001
       35 FE2    4d1-       0.0000   -0.0000    0.0000   -0.0000    0.0000   -0.0000   -0.0000    0.0000    0.0000   -0.0000
       36 FE2    3d0        0.0000    0.0000   -0.0000    0.0000    0.0000    0.0000    0.0000    0.0002    0.0000    0.0000
       37 FE2    4d0        0.0000   -0.0000    0.0000    0.0000    0.0000    0.0000   -0.0000    0.0000    0.0000   -0.0000
       38 FE2    3d1+       0.0000   -0.0000   -0.0000   -0.0000   -0.0000    0.0000    0.0000    0.0000    0.0001    0.0000
       39 FE2    4d1+       0.0000    0.0000    0.0000    0.0000    0.0000   -0.0000    0.0000   -0.0000   -0.0000   -0.0000
       40 FE2    3d2+       0.0000   -0.0000   -0.0000   -0.0000   -0.0000   -0.0000    0.0000    0.0000    0.0000   -0.0000
       41 FE2    4d2+       0.0000   -0.0000    0.0000    0.0000    0.0000    0.0000    0.0000   -0.0000    0.0000   -0.0000
       42 FE2    4f3-      -0.0000    0.0000    0.0000   -0.0000   -0.0000   -0.0000    0.0000    0.0000    0.0000    0.0000
       43 FE2    4f2-       0.0000   -0.0000   -0.0000    0.0000    0.0000    0.0000    0.0000    0.0000   -0.0000   -0.0000
       44 FE2    4f1-      -0.0000    0.0000    0.0000   -0.0000    0.0000   -0.0000    0.0000    0.0000    0.0000   -0.0000
       45 FE2    4f0        0.0000   -0.0000    0.0000   -0.0000   -0.0000   -0.0000    0.0000   -0.0000   -0.0000   -0.0000
       46 FE2    4f1+      -0.0000    0.0000    0.0000    0.0000    0.0000   -0.0000    0.0000    0.0000   -0.0000   -0.0000
       47 FE2    4f2+      -0.0000    0.0000    0.0000   -0.0000    0.0000   -0.0000    0.0000   -0.0000    0.0000   -0.0000
       48 FE2    4f3+      -0.0000    0.0000    0.0000    0.0000    0.0000   -0.0000    0.0000   -0.0000   -0.0000   -0.0000
 
          Orbital           11        12        13        14        15        16        17        18        19        20    
          Energy           -0.8512   -1.4279   -0.7853   -0.7853   -1.0832   -1.0832   -1.0832   -0.7587   -0.7851   -0.7851
          Occ. No.          1.9979    1.9974    1.0002    1.0002    1.0000    1.0000    1.0000    1.0000    0.9998    0.9998
 
        1 O1     1s        -0.0115   -0.0315    0.0000    0.0000   -0.0001   -0.0000    0.0000   -0.0007    0.0000    0.0000
        2 O1     2s        -0.3103   -0.9501    0.0000    0.0000   -0.0007   -0.0000    0.0000   -0.0063    0.0000    0.0000
        3 O1     3s         0.0120   -0.0004    0.0000    0.0000   -0.0007   -0.0000    0.0000   -0.0062    0.0000    0.0000
        4 O1     2px       -0.0000    0.0000    0.4942    0.5047   -0.0000    0.0000   -0.0000    0.0000   -0.4933   -0.5053
        5 O1     3px       -0.0000    0.0000   -0.0236   -0.0241   -0.0000   -0.0000    0.0000    0.0000    0.0241    0.0247
        6 O1     2py       -0.0000    0.0000    0.5047   -0.4942    0.0000   -0.0000   -0.0000    0.0000   -0.5053    0.4933
        7 O1     3py       -0.0000   -0.0000   -0.0241    0.0236    0.0000    0.0000    0.0000    0.0000    0.0247   -0.0241
        8 O1     2pz       -0.9491    0.3097    0.0000    0.0000   -0.0036   -0.0000    0.0000   -0.0095    0.0000   -0.0000
        9 O1     3pz       -0.0188    0.0111   -0.0000   -0.0000    0.0007    0.0000   -0.0000    0.0047   -0.0000   -0.0000
       10 O1     3d2-       0.0000   -0.0000   -0.0000   -0.0000   -0.0000    0.0000    0.0000    0.0000    0.0000    0.0000
       11 O1     3d1-       0.0000   -0.0000   -0.0027    0.0027   -0.0000    0.0000    0.0000   -0.0000    0.0027   -0.0026
       12 O1     3d0        0.0049   -0.0061    0.0000   -0.0000   -0.0001   -0.0000    0.0000   -0.0001    0.0000    0.0000
       13 O1     3d1+       0.0000   -0.0000   -0.0027   -0.0027   -0.0000   -0.0000    0.0000   -0.0000    0.0026    0.0027
       14 O1     3d2+       0.0000   -0.0000    0.0000   -0.0000   -0.0000    0.0000   -0.0000   -0.0000   -0.0000    0.0000
       15 FE2    1s        -0.0000    0.0000   -0.0000   -0.0000    0.0000    0.0000   -0.0000    0.0000   -0.0000   -0.0000
       16 FE2    2s         0.0003   -0.0002   -0.0000   -0.0000    0.0000   -0.0000   -0.0000    0.0003   -0.0000   -0.0000
       17 FE2    3s         0.0031   -0.0020    0.0000    0.0000   -0.0000    0.0000    0.0000   -0.0038    0.0000    0.0000
       18 FE2    4s         0.0047   -0.0009    0.0000    0.0000    0.0002    0.0000    0.0000   -0.9279    0.0000    0.0000
       19 FE2    5s         0.0001    0.0007   -0.0000   -0.0000    0.0003   -0.0000   -0.0000    0.3721   -0.0000   -0.0000
       20 FE2    2px        0.0000    0.0000   -0.0000   -0.0000   -0.0000    0.0000   -0.0000   -0.0000   -0.0000   -0.0000
       21 FE2    3px       -0.0000   -0.0000   -0.0001   -0.0001    0.0000    0.0000    0.0000   -0.0000   -0.0000   -0.0000
       22 FE2    4px        0.0000   -0.0000   -0.0003   -0.0003    0.0000    0.0000    0.0000   -0.0000    0.0001    0.0001
       23 FE2    5px       -0.0000    0.0000   -0.0001   -0.0001    0.0000    0.0000    0.0000   -0.0000    0.0001    0.0001
       24 FE2    2py       -0.0000    0.0000   -0.0000    0.0000   -0.0000   -0.0000   -0.0000   -0.0000   -0.0000    0.0000
       25 FE2    3py        0.0000   -0.0000   -0.0001    0.0001   -0.0000    0.0000   -0.0000   -0.0000   -0.0000    0.0000
       26 FE2    4py       -0.0000    0.0000   -0.0003    0.0003   -0.0000    0.0000   -0.0000   -0.0000    0.0001   -0.0001
       27 FE2    5py        0.0000   -0.0000   -0.0001    0.0001   -0.0000    0.0000   -0.0000   -0.0000    0.0001   -0.0001
       28 FE2    2pz       -0.0041    0.0010   -0.0000   -0.0000    0.0000    0.0000    0.0000   -0.0000    0.0000    0.0000
       29 FE2    3pz       -0.0327    0.0077   -0.0000    0.0000    0.0001    0.0000   -0.0000    0.0001   -0.0000    0.0000
       30 FE2    4pz        0.0130   -0.0038   -0.0000   -0.0000    0.0005    0.0000   -0.0000    0.0069   -0.0000   -0.0000
       31 FE2    5pz        0.0004    0.0001   -0.0000   -0.0000    0.0001    0.0000   -0.0000    0.0005   -0.0000   -0.0000
       32 FE2    3d2-       0.0000   -0.0000    0.0000    0.0000   -0.0000    0.6197    0.7729    0.0000    0.0000    0.0000
       33 FE2    4d2-      -0.0000    0.0000   -0.0000   -0.0000    0.0000   -0.0853   -0.1064   -0.0000   -0.0000   -0.0000
       34 FE2    3d1-       0.0000    0.0000    0.5005   -0.4901    0.0000   -0.0000    0.0000    0.0000    0.5013   -0.4893
       35 FE2    4d1-       0.0000    0.0000   -0.0689    0.0675   -0.0000    0.0000   -0.0000   -0.0000   -0.0690    0.0673
       36 FE2    3d0        0.0037   -0.0011    0.0000   -0.0000   -0.9906   -0.0000   -0.0000    0.0001    0.0000   -0.0000
       37 FE2    4d0        0.0019   -0.0006   -0.0000    0.0000    0.1365    0.0000   -0.0000    0.0010   -0.0000    0.0000
       38 FE2    3d1+      -0.0000    0.0000    0.4901    0.5005   -0.0000   -0.0000   -0.0000    0.0000    0.4893    0.5013
       39 FE2    4d1+      -0.0000   -0.0000   -0.0675   -0.0689    0.0000    0.0000    0.0000   -0.0000   -0.0673   -0.0690
       40 FE2    3d2+      -0.0000    0.0000    0.0000   -0.0000   -0.0000    0.7729   -0.6197   -0.0000    0.0000   -0.0000
       41 FE2    4d2+       0.0000   -0.0000   -0.0000    0.0000    0.0000   -0.1064    0.0853    0.0000   -0.0000    0.0000
       42 FE2    4f3-      -0.0000    0.0000   -0.0000   -0.0000    0.0000    0.0000    0.0000   -0.0000    0.0000   -0.0000
       43 FE2    4f2-       0.0000   -0.0000    0.0000    0.0000   -0.0000    0.0000    0.0000    0.0000    0.0000    0.0000
       44 FE2    4f1-       0.0000   -0.0000    0.0000   -0.0000    0.0000   -0.0000    0.0000    0.0000    0.0000   -0.0000
       45 FE2    4f0        0.0001   -0.0000   -0.0000   -0.0000   -0.0000   -0.0000   -0.0000    0.0000   -0.0000   -0.0000
       46 FE2    4f1+      -0.0000    0.0000    0.0000    0.0000   -0.0000   -0.0000   -0.0000    0.0000    0.0000    0.0000
       47 FE2    4f2+      -0.0000    0.0000    0.0000    0.0000   -0.0000    0.0000   -0.0000   -0.0000    0.0000   -0.0000
       48 FE2    4f3+       0.0000   -0.0000   -0.0000   -0.0000   -0.0000    0.0000    0.0000    0.0000    0.0000   -0.0000
 
          Orbital           21        22        23        24        25        26        27        28        29        30    
          Energy            1.1593    0.3752    0.9478    0.9478    0.9996   -0.2071    0.8679   -0.0391   -0.0391    0.5126
          Occ. No.          0.0026    0.0021    0.0001    0.0001    0.0001    0.0000    0.0000    0.0000    0.0000    0.0000
 
        1 O1     1s        -0.0001    0.0006    0.0000   -0.0000   -0.0017    0.0049    0.0025    0.0000   -0.0000    0.0019
        2 O1     2s        -0.0052    0.0115    0.0000   -0.0000   -0.0205    0.0570    0.0286    0.0000   -0.0000    0.0250
        3 O1     3s         0.6722    0.2197    0.0000   -0.0000   -0.0330    0.1209    0.6091   -0.0000   -0.0000   -0.3647
        4 O1     2px       -0.0000   -0.0000   -0.0040   -0.0008    0.0000    0.0000   -0.0000   -0.0100   -0.0017    0.0000
        5 O1     3px       -0.0000    0.0000   -0.0136   -0.0027   -0.0000   -0.0000    0.0000   -0.0567   -0.0096   -0.0000
        6 O1     2py        0.0000   -0.0000    0.0008   -0.0040   -0.0000   -0.0000   -0.0000    0.0017   -0.0100   -0.0000
        7 O1     3py       -0.0000    0.0000    0.0027   -0.0136   -0.0000   -0.0000   -0.0000    0.0096   -0.0567   -0.0000
        8 O1     2pz        0.0253   -0.0307   -0.0000    0.0000    0.0119   -0.0536   -0.0316   -0.0000    0.0000   -0.0408
        9 O1     3pz       -0.2871    0.8690   -0.0000    0.0000   -0.1006   -0.2010   -0.2443   -0.0000   -0.0000   -0.3492
       10 O1     3d2-      -0.0000    0.0000    0.0000    0.0000   -0.0000    0.0000    0.0000    0.0000   -0.0000    0.0000
       11 O1     3d1-       0.0000    0.0000   -0.0002    0.0012   -0.0000    0.0000   -0.0000   -0.0014    0.0081    0.0000
       12 O1     3d0        0.6607    0.2481    0.0000    0.0000   -0.0126    0.0147   -0.5453    0.0000   -0.0000    0.4418
       13 O1     3d1+       0.0000    0.0000    0.0012    0.0002   -0.0000    0.0000   -0.0000    0.0081    0.0014    0.0000
       14 O1     3d2+       0.0000    0.0000   -0.0000   -0.0000   -0.0000    0.0000    0.0000   -0.0000    0.0000    0.0000
       15 FE2    1s        -0.0001    0.0002    0.0000   -0.0000   -0.0000   -0.0000   -0.0001   -0.0000   -0.0000   -0.0001
       16 FE2    2s        -0.0004    0.0012   -0.0000    0.0000   -0.0001   -0.0003   -0.0004   -0.0000    0.0000   -0.0005
       17 FE2    3s        -0.0025    0.0067    0.0000    0.0000   -0.0008    0.0018   -0.0021    0.0000   -0.0000   -0.0025
       18 FE2    4s        -0.0104    0.0313   -0.0000    0.0000   -0.0022   -0.3903   -0.0248    0.0000   -0.0000   -0.0364
       19 FE2    5s         0.0241   -0.0402   -0.0000   -0.0000    0.0175   -0.9480   -0.0182    0.0000   -0.0000   -0.0304
       20 FE2    2px        0.0000   -0.0000   -0.0002   -0.0000    0.0000    0.0000    0.0000   -0.0000   -0.0000    0.0000
       21 FE2    3px       -0.0000   -0.0000   -0.0177   -0.0036   -0.0000    0.0000   -0.0000    0.0069    0.0012    0.0000
       22 FE2    4px        0.0000   -0.0000   -0.5055   -0.1024   -0.0000   -0.0000   -0.0000    0.8451    0.1436   -0.0000
       23 FE2    5px       -0.0000    0.0000    0.8396    0.1702    0.0000   -0.0000   -0.0000    0.5099    0.0867   -0.0000
       24 FE2    2py       -0.0000   -0.0000    0.0000   -0.0002    0.0000    0.0000   -0.0000    0.0000   -0.0000    0.0000
       25 FE2    3py       -0.0000    0.0000    0.0036   -0.0177    0.0000   -0.0000    0.0000   -0.0012    0.0069    0.0000
       26 FE2    4py       -0.0000    0.0000    0.1024   -0.5055    0.0000   -0.0000    0.0000   -0.1436    0.8451    0.0000
       27 FE2    5py        0.0000   -0.0000   -0.1702    0.8396   -0.0000   -0.0000    0.0000   -0.0867    0.5099    0.0000
       28 FE2    2pz       -0.0001    0.0002   -0.0000   -0.0000   -0.0002   -0.0001   -0.0000   -0.0000   -0.0000   -0.0001
       29 FE2    3pz       -0.0003   -0.0001    0.0000   -0.0000   -0.0181   -0.0010   -0.0056   -0.0000    0.0000   -0.0070
       30 FE2    4pz        0.0868   -0.2676    0.0000   -0.0000   -0.4742    0.0063   -0.5225   -0.0000    0.0000   -0.6688
       31 FE2    5pz        0.0054   -0.0026   -0.0000    0.0000    0.8711    0.0044   -0.3180   -0.0000    0.0000   -0.4015
       32 FE2    3d2-       0.0000    0.0000    0.0000    0.0000    0.0000   -0.0000   -0.0000    0.0000   -0.0000   -0.0000
       33 FE2    4d2-      -0.0000    0.0000    0.0000    0.0000    0.0000   -0.0000   -0.0000    0.0000   -0.0000   -0.0000
       34 FE2    3d1-      -0.0000   -0.0000    0.0000   -0.0001    0.0000    0.0000    0.0000   -0.0002    0.0013    0.0000
       35 FE2    4d1-      -0.0000    0.0000    0.0001   -0.0005    0.0000    0.0000    0.0000   -0.0014    0.0085    0.0000
       36 FE2    3d0       -0.0001    0.0014   -0.0000    0.0000    0.0001   -0.0029   -0.0164   -0.0000    0.0000    0.0053
       37 FE2    4d0        0.0107   -0.0163   -0.0000    0.0000    0.0053   -0.0140   -0.1087   -0.0000    0.0000    0.0505
       38 FE2    3d1+       0.0000   -0.0000   -0.0001   -0.0000    0.0000   -0.0000    0.0000    0.0013    0.0002    0.0000
       39 FE2    4d1+       0.0000   -0.0000   -0.0005   -0.0001    0.0000   -0.0000    0.0000    0.0085    0.0014    0.0000
       40 FE2    3d2+       0.0000   -0.0000   -0.0000   -0.0000   -0.0000    0.0000    0.0000   -0.0000    0.0000    0.0000
       41 FE2    4d2+       0.0000   -0.0000   -0.0000   -0.0000   -0.0000    0.0000    0.0000   -0.0000    0.0000    0.0000
       42 FE2    4f3-      -0.0000    0.0000   -0.0000    0.0000   -0.0000   -0.0000    0.0000   -0.0000    0.0000   -0.0000
       43 FE2    4f2-       0.0000   -0.0000   -0.0000   -0.0000   -0.0000   -0.0000   -0.0000   -0.0000    0.0000   -0.0000
       44 FE2    4f1-      -0.0000    0.0000    0.0000   -0.0001   -0.0000    0.0000    0.0000   -0.0001    0.0006    0.0000
       45 FE2    4f0        0.0004   -0.0007    0.0000    0.0000    0.0002   -0.0007   -0.0053   -0.0000   -0.0000    0.0015
       46 FE2    4f1+      -0.0000    0.0000   -0.0001   -0.0000   -0.0000    0.0000    0.0000    0.0006    0.0001    0.0000
       47 FE2    4f2+      -0.0000    0.0000   -0.0000   -0.0000    0.0000   -0.0000   -0.0000    0.0000   -0.0000   -0.0000
       48 FE2    4f3+       0.0000    0.0000    0.0000   -0.0000    0.0000    0.0000    0.0000    0.0000   -0.0000    0.0000
 
          Orbital           31        32        33        34        35        36        37        38        39        40    
          Energy            0.2973    0.3534    0.2802    0.3585    0.2813    0.2695    0.2703    3.1061    2.1965    1.9725
          Occ. No.          0.0000    0.0000    0.0000    0.0000    0.0000    0.0000    0.0000    0.0000    0.0000    0.0000
 
        1 O1     1s         0.0010   -0.0000   -0.0000    0.0000   -0.0000    0.0000   -0.0000    0.0000    0.0000   -0.0000
        2 O1     2s         0.0145   -0.0000   -0.0000    0.0000   -0.0000    0.0000   -0.0000   -0.0002    0.0000   -0.0000
        3 O1     3s        -0.0435    0.0000    0.0000   -0.0000    0.0000   -0.0000    0.0000    0.0013   -0.0000    0.0000
        4 O1     2px        0.0000    0.0458   -0.0148   -0.0042   -0.0046   -0.0000   -0.0000   -0.0000    0.0054   -0.0015
        5 O1     3px        0.0000    0.9732   -0.2119   -0.0647   -0.0357   -0.0005   -0.0002   -0.0000    0.0215   -0.0078
        6 O1     2py        0.0000   -0.0020    0.0027   -0.0465    0.0138    0.0001   -0.0000   -0.0000    0.0010    0.0056
        7 O1     3py        0.0000   -0.0318    0.1183   -0.9731    0.1886    0.0009   -0.0003   -0.0000    0.0007    0.0215
        8 O1     2pz       -0.0265    0.0000    0.0000   -0.0000    0.0000   -0.0000    0.0000    0.0009   -0.0000    0.0000
        9 O1     3pz       -0.0993    0.0000    0.0000   -0.0000    0.0000   -0.0000    0.0000    0.0038   -0.0000    0.0000
       10 O1     3d2-       0.0000    0.0000   -0.0016   -0.0004    0.0027   -0.0044   -0.0089   -0.0000   -0.2010   -0.2925
       11 O1     3d1-      -0.0000    0.0034   -0.0028    0.0224   -0.0108    0.0037   -0.0043    0.0000    0.1634    0.8536
       12 O1     3d0        0.0972   -0.0000   -0.0000    0.0000   -0.0000    0.0000   -0.0000   -0.0030    0.0000   -0.0000
       13 O1     3d1+      -0.0000   -0.0250    0.0108    0.0002    0.0110    0.0007   -0.0056    0.0000    0.8143   -0.2001
       14 O1     3d2+       0.0000   -0.0001    0.0018   -0.0004   -0.0010   -0.0027   -0.0062   -0.0000   -0.1437   -0.2856
       15 FE2    1s        -0.0000    0.0000    0.0000   -0.0000    0.0000   -0.0000    0.0000    0.0000   -0.0000    0.0000
       16 FE2    2s        -0.0001    0.0000    0.0000   -0.0000    0.0000   -0.0000    0.0000    0.0000   -0.0000    0.0000
       17 FE2    3s        -0.0007    0.0000    0.0000   -0.0000    0.0000   -0.0000    0.0000    0.0000   -0.0000    0.0000
       18 FE2    4s        -0.0081    0.0000    0.0000   -0.0000    0.0000   -0.0000    0.0000    0.0003   -0.0000    0.0000
       19 FE2    5s        -0.0048    0.0000    0.0000   -0.0000    0.0000   -0.0000    0.0000    0.0002   -0.0000    0.0000
       20 FE2    2px       -0.0000   -0.0000    0.0000    0.0000    0.0000    0.0000    0.0000    0.0000   -0.0000    0.0000
       21 FE2    3px       -0.0000   -0.0007    0.0001    0.0000   -0.0000    0.0000    0.0000    0.0000   -0.0000    0.0000
[...]
 Report on small energy denominators, large coefficients, and large energy contributions.
CASE  SYMM ACTIVE-MIX  NON-ACTIVE INDICES          DENOMINATOR     RHS VALUE       COEFFICIENT     CONTRIBUTION
VJTU     1  Mu1.0001  In1.011                       0.25504772     -0.00000000      0.00000000     -0.00000000
VJTU     1  Mu1.0002  In1.011                       0.25505102      0.00000000     -0.00000000     -0.00000000
VJTU     1  Mu1.0003  In1.011                       0.25660370      0.00000059     -0.00000024     -0.00000000
VJTU     1  Mu1.0004  In1.011                       0.25660828     -0.00000151      0.00000062     -0.00000000
VJTU     1  Mu1.0005  In1.011                       0.27125971      0.00000000      0.00000000      0.00000000
VJTU     1  Mu1.0006  In1.011                       0.27125972     -0.00000000     -0.00000000      0.00000000
VJTU     1  Mu1.0007  In1.011                       0.29426489      0.00000000     -0.00000000     -0.00000000
VJTU     1  Mu1.0008  In1.011                       0.29426489     -0.00000000      0.00000000     -0.00000000
ATVX     1  Mu1.0001  Se1.026                      -0.25697890     -0.00000000     -0.00000000      0.00000000
ATVX     1  Mu1.0002  Se1.026                      -0.24213124      0.00000000     -0.00000000     -0.00000000
ATVX     1  Mu1.0003  Se1.026                      -0.24212812     -0.00000000     -0.00000000      0.00000000
ATVX     1  Mu1.0004  Se1.026                      -0.20259513     -0.00000000     -0.00000000      0.00000000
ATVX     1  Mu1.0005  Se1.026                      -0.12136960     -0.00000000     -0.00000000      0.00000000
ATVX     1  Mu1.0006  Se1.026                      -0.12136956      0.00000000      0.00000000      0.00000000
ATVX     1  Mu1.0007  Se1.026                       0.12939788      0.00000000     -0.00000000     -0.00000000
ATVX     1  Mu1.0008  Se1.026                       0.12939788     -0.00000000      0.00000000     -0.00000000
ATVX     1  Mu1.0009  Se1.026                       0.14359806     -0.00000024      0.00007270     -0.00000000
ATVX     1  Mu1.0010  Se1.026                       0.14360771      0.00000142     -0.00043323     -0.00000000
ATVX     1  Mu1.0011  Se1.026                       0.14485048     -0.00000000      0.00000007     -0.00000000
ATVX     1  Mu1.0012  Se1.026                       0.14485461      0.00000000     -0.00000003     -0.00000000
ATVX     1  Mu1.0013  Se1.026                       0.15598256     -0.00000000      0.00000000     -0.00000000
ATVX     1  Mu1.0014  Se1.026                       0.15598256     -0.00000000     -0.00000000      0.00000000
ATVX     1  Mu1.0015  Se1.026                       0.16050296      0.00000131     -0.00002692     -0.00000000
ATVX     1  Mu1.0016  Se1.026                       0.16062107      0.00000002     -0.00000043     -0.00000000
ATVX     1  Mu1.0017  Se1.026                       0.17230303     -0.00000212      0.00000258     -0.00000000
ATVX     1  Mu1.0018  Se1.026                       0.17231394      0.00000032     -0.00000039     -0.00000000
ATVX     1  Mu1.0019  Se1.026                       0.17409343     -0.00000000     -0.00000000      0.00000000
ATVX     1  Mu1.0020  Se1.026                       0.17409349      0.00000000     -0.00000000     -0.00000000
ATVX     1  Mu1.0021  Se1.026                       0.17609747      0.00000000     -0.00000000     -0.00000000
ATVX     1  Mu1.0022  Se1.026                       0.17610325     -0.00000000      0.00000000     -0.00000000
ATVX     1  Mu1.0023  Se1.026                       0.17778354      0.00000000      0.00000000      0.00000000
ATVX     1  Mu1.0024  Se1.026                       0.17779033     -0.00000000      0.00000000     -0.00000000
ATVX     1  Mu1.0025  Se1.026                       0.18638930     -0.00000000      0.00000000     -0.00000000
ATVX     1  Mu1.0026  Se1.026                       0.18638930     -0.00000000      0.00000000     -0.00000000
ATVX     1  Mu1.0027  Se1.026                       0.19023071     -0.00000000     -0.00000000      0.00000000
ATVX     1  Mu1.0028  Se1.026                       0.19034528     -0.00000000     -0.00000000      0.00000000
ATVX     1  Mu1.0029  Se1.026                       0.21067494     -0.00000000      0.00000000     -0.00000000
ATVX     1  Mu1.0030  Se1.026                       0.21144622      0.00000000     -0.00000000     -0.00000000
ATVX     1  Mu1.0031  Se1.026                       0.21145221     -0.00000000     -0.00000000      0.00000000
ATVX     1  Mu1.0032  Se1.026                       0.21916352     -0.00000000      0.00000000     -0.00000000
ATVX     1  Mu1.0033  Se1.026                       0.21922343      0.00000000     -0.00000000     -0.00000000
ATVX     1  Mu1.0034  Se1.026                       0.22086906     -0.00000000     -0.00000000      0.00000000
ATVX     1  Mu1.0035  Se1.026                       0.22088006     -0.00000000     -0.00000000      0.00000000
ATVX     1  Mu1.0036  Se1.026                       0.22425798      0.00000658     -0.00002116     -0.00000000
ATVX     1  Mu1.0037  Se1.026                       0.22426245     -0.00000271      0.00000870     -0.00000000
ATVX     1  Mu1.0038  Se1.026                       0.24757191     -0.00000000      0.00000000     -0.00000000
ATVX     1  Mu1.0039  Se1.026                       0.24757528     -0.00000000      0.00000000     -0.00000000
ATVX     1  Mu1.0040  Se1.026                       0.24963609      0.00000079     -0.00000268     -0.00000000
ATVX     1  Mu1.0041  Se1.026                       0.24976439      0.00000001     -0.00000003     -0.00000000
ATVX     1  Mu1.0042  Se1.026                       0.25926613     -0.00097231      0.00363296     -0.00000353
ATVX     1  Mu1.0043  Se1.026                       0.26199550      0.00000000     -0.00000000     -0.00000000
ATVX     1  Mu1.0044  Se1.026                       0.26199550     -0.00000000      0.00000000     -0.00000000
ATVX     1  Mu1.0001  Se1.027                      -0.08941609     -0.00000000      0.00000000     -0.00000000
ATVX     1  Mu1.0002  Se1.027                      -0.07456843     -0.00000000      0.00000000     -0.00000000
ATVX     1  Mu1.0003  Se1.027                      -0.07456531      0.00000071     -0.00000393     -0.00000000
ATVX     1  Mu1.0004  Se1.027                      -0.03503232     -0.00000000      0.00000000     -0.00000000
ATVX     1  Mu1.0005  Se1.027                       0.04619321     -0.00000124     -0.00004183      0.00000000
ATVX     1  Mu1.0006  Se1.027                       0.04619325      0.00002230      0.00074944      0.00000002
ATVX     1  Mu1.0007  Se1.027                       0.29696069      0.00000000     -0.00000002     -0.00000000
ATVX     1  Mu1.0008  Se1.027                       0.29696069     -0.00001079      0.00006967     -0.00000000
ATVX     1  Mu1.0001  Se1.028                      -0.08941541      0.00000000      0.00000000      0.00000000
ATVX     1  Mu1.0002  Se1.028                      -0.07456775     -0.00000071      0.00000393     -0.00000000
ATVX     1  Mu1.0003  Se1.028                      -0.07456463     -0.00000000      0.00000000     -0.00000000
ATVX     1  Mu1.0004  Se1.028                      -0.03503164      0.00000000      0.00000000      0.00000000
ATVX     1  Mu1.0005  Se1.028                       0.04619389     -0.00002230     -0.00074943      0.00000002
ATVX     1  Mu1.0006  Se1.028                       0.04619393     -0.00000124     -0.00004183      0.00000000
ATVX     1  Mu1.0007  Se1.028                       0.29696137     -0.00001079      0.00006967     -0.00000000
ATVX     1  Mu1.0008  Se1.028                       0.29696137     -0.00000000      0.00000002     -0.00000000
ATVX     1  Mu1.0001  Se1.029                      -0.08478119      0.00000000      0.00000000      0.00000000
ATVX     1  Mu1.0002  Se1.029                      -0.06993353     -0.00000000     -0.00000000      0.00000000
ATVX     1  Mu1.0003  Se1.029                      -0.06993042      0.00000000      0.00000000      0.00000000
ATVX     1  Mu1.0004  Se1.029                      -0.03039743      0.00000000      0.00000000      0.00000000
ATVX     1  Mu1.0005  Se1.029                       0.05082811      0.00000000     -0.00000000     -0.00000000
ATVX     1  Mu1.0006  Se1.029                       0.05082815     -0.00000000      0.00000000     -0.00000000
ATVX     1  Mu1.0001  Se1.030                       0.08385615     -0.00000000      0.00000000     -0.00000000
ATVX     1  Mu1.0002  Se1.030                       0.09870381      0.00000000     -0.00000000     -0.00000000
ATVX     1  Mu1.0003  Se1.030                       0.09870693     -0.00000000      0.00000000     -0.00000000
ATVX     1  Mu1.0004  Se1.030                       0.13823992     -0.00000000      0.00000000     -0.00000000
ATVX     1  Mu1.0005  Se1.030                       0.21946545      0.00000000     -0.00000000     -0.00000000
ATVX     1  Mu1.0006  Se1.030                       0.21946549      0.00000000     -0.00000000     -0.00000000
ATVX     1  Mu1.0219  Se1.031                       2.19958818      0.05581814     -0.02645484     -0.00147666
ATVX     1  Mu1.0278  Se1.031                       2.30300600     -0.07337762      0.03247044     -0.00238260
ATVX     1  Mu1.0218  Se1.032                       2.19958817      0.05581834     -0.02645493     -0.00147667
ATVX     1  Mu1.0279  Se1.032                       2.30300603      0.07337761     -0.03247044     -0.00238260
AIVX     1  Mu1.0147  In1.011 Se1.033               3.37733121      0.09189452     -0.02743827     -0.00252143
AIVX     1  Mu1.0169  In1.009 Se1.034               6.56295276     -0.17798947      0.02712048     -0.00482716
AIVX     1  Mu1.0169  In1.010 Se1.035               6.56295391     -0.17799015      0.02712058     -0.00482720
AIVX     1  Mu1.0029  In1.011 Se1.037               3.47001621      0.10912256     -0.03013178     -0.00328806
AIVX     1  Mu1.0030  In1.011 Se1.037               3.47001621     -0.09888921      0.02730607     -0.00270028
AIVX     1  Mu1.0057  In1.011 Se1.038               3.72000248     -0.14703760      0.03795987     -0.00558153
BVATM    1  Mu1.0001  Se1.032 Se1.031               1.96309836      0.07168188     -0.03682312     -0.00263955
BVATM    1  Mu1.0001  Se1.038 Se1.037               5.01058284     -0.12964251      0.02587374     -0.00335434
BJATP    1  Mu1.0002  In1.011 Se1.033 Se1.031       2.95284196      0.08231019     -0.02774605     -0.00228378
BJATP    1  Mu1.0001  In1.011 Se1.033 Se1.032       2.95284197      0.08231019     -0.02774605     -0.00228378
BJATM    1  Mu1.0002  In1.011 Se1.033 Se1.031       2.95284196     -0.07823383      0.02839548     -0.00222149
BJATM    1  Mu1.0001  In1.011 Se1.033 Se1.032       2.95284197     -0.07823383      0.02839548     -0.00222149
BJAIP    1  Se1.033 In1.011 Se1.033 In1.011         3.94255122      0.12150026     -0.03295105     -0.00400356
--
 
   (Skipping property calculation,
    use PROP keyword to activate)
--
 
  Total CASPT2 energies:
::    CASPT2 Root  1     Total energy:  -1345.82800264
 
  A NEW JOBIPH FILE NAMED 'JOBMIX' IS PREPARED.
********************************************************************************
--- Stop Module: caspt2 at Wed Dec 18 04:35:19 2024 /rc=_RC_ALL_IS_WELL_ ---
*** files: xmldump
    saved to directory /home/grierjones/DDCASPT2/iron_oxo_DDCASPT2/cluster/4.84
--- Module caspt2 spent 5 minutes 34 seconds ---

>>> EXPORT i = B

>>> EXPORT j = P

>>> IF (-FILE GMJ_e2_${i}_${j}.csv)

>>> COPY /tmp/4.84/GMJ_RHS_B_P.csv /home/grierjones/DDCASPT2/iron_oxo_DDCASPT2/cluster/4.84/GMJ_RHS_B_P.csv

>>> COPY /tmp/4.84/GMJ_IVECW_B_P.csv /home/grierjones/DDCASPT2/iron_oxo_DDCASPT2/cluster/4.84/GMJ_IVECW_B_P.csv

>>> COPY /tmp/4.84/GMJ_IVECX_B_P.csv /home/grierjones/DDCASPT2/iron_oxo_DDCASPT2/cluster/4.84/GMJ_IVECX_B_P.csv

>>> COPY /tmp/4.84/GMJ_IVECC2_B_P.csv /home/grierjones/DDCASPT2/iron_oxo_DDCASPT2/cluster/4.84/GMJ_IVECC2_B_P.csv

>>> COPY /tmp/4.84/GMJ_e2_B_P.csv /home/grierjones/DDCASPT2/iron_oxo_DDCASPT2/cluster/4.84/GMJ_e2_B_P.csv

>>> END FOREACH

>>> EXPORT j = M

>>> IF (-FILE GMJ_e2_${i}_${j}.csv)

>>> COPY /tmp/4.84/GMJ_RHS_B_M.csv /home/grierjones/DDCASPT2/iron_oxo_DDCASPT2/cluster/4.84/GMJ_RHS_B_M.csv

>>> COPY /tmp/4.84/GMJ_IVECW_B_M.csv /home/grierjones/DDCASPT2/iron_oxo_DDCASPT2/cluster/4.84/GMJ_IVECW_B_M.csv

>>> COPY /tmp/4.84/GMJ_IVECX_B_M.csv /home/grierjones/DDCASPT2/iron_oxo_DDCASPT2/cluster/4.84/GMJ_IVECX_B_M.csv

>>> COPY /tmp/4.84/GMJ_IVECC2_B_M.csv /home/grierjones/DDCASPT2/iron_oxo_DDCASPT2/cluster/4.84/GMJ_IVECC2_B_M.csv

>>> COPY /tmp/4.84/GMJ_e2_B_M.csv /home/grierjones/DDCASPT2/iron_oxo_DDCASPT2/cluster/4.84/GMJ_e2_B_M.csv

>>> END FOREACH

>>> END FOREACH

>>> EXPORT i = E

>>> EXPORT j = P

>>> IF (-FILE GMJ_e2_${i}_${j}.csv)

>>> COPY /tmp/4.84/GMJ_RHS_E_P.csv /home/grierjones/DDCASPT2/iron_oxo_DDCASPT2/cluster/4.84/GMJ_RHS_E_P.csv

>>> COPY /tmp/4.84/GMJ_IVECW_E_P.csv /home/grierjones/DDCASPT2/iron_oxo_DDCASPT2/cluster/4.84/GMJ_IVECW_E_P.csv

>>> COPY /tmp/4.84/GMJ_IVECX_E_P.csv /home/grierjones/DDCASPT2/iron_oxo_DDCASPT2/cluster/4.84/GMJ_IVECX_E_P.csv

>>> COPY /tmp/4.84/GMJ_IVECC2_E_P.csv /home/grierjones/DDCASPT2/iron_oxo_DDCASPT2/cluster/4.84/GMJ_IVECC2_E_P.csv

>>> COPY /tmp/4.84/GMJ_e2_E_P.csv /home/grierjones/DDCASPT2/iron_oxo_DDCASPT2/cluster/4.84/GMJ_e2_E_P.csv

>>> END FOREACH

>>> EXPORT j = M

>>> IF (-FILE GMJ_e2_${i}_${j}.csv)

>>> COPY /tmp/4.84/GMJ_RHS_E_M.csv /home/grierjones/DDCASPT2/iron_oxo_DDCASPT2/cluster/4.84/GMJ_RHS_E_M.csv

>>> COPY /tmp/4.84/GMJ_IVECW_E_M.csv /home/grierjones/DDCASPT2/iron_oxo_DDCASPT2/cluster/4.84/GMJ_IVECW_E_M.csv

>>> COPY /tmp/4.84/GMJ_IVECX_E_M.csv /home/grierjones/DDCASPT2/iron_oxo_DDCASPT2/cluster/4.84/GMJ_IVECX_E_M.csv

>>> COPY /tmp/4.84/GMJ_IVECC2_E_M.csv /home/grierjones/DDCASPT2/iron_oxo_DDCASPT2/cluster/4.84/GMJ_IVECC2_E_M.csv

>>> COPY /tmp/4.84/GMJ_e2_E_M.csv /home/grierjones/DDCASPT2/iron_oxo_DDCASPT2/cluster/4.84/GMJ_e2_E_M.csv

>>> END FOREACH

>>> END FOREACH

>>> EXPORT i = F

>>> EXPORT j = P

>>> IF (-FILE GMJ_e2_${i}_${j}.csv)

>>> COPY /tmp/4.84/GMJ_RHS_F_P.csv /home/grierjones/DDCASPT2/iron_oxo_DDCASPT2/cluster/4.84/GMJ_RHS_F_P.csv

>>> COPY /tmp/4.84/GMJ_IVECW_F_P.csv /home/grierjones/DDCASPT2/iron_oxo_DDCASPT2/cluster/4.84/GMJ_IVECW_F_P.csv

>>> COPY /tmp/4.84/GMJ_IVECX_F_P.csv /home/grierjones/DDCASPT2/iron_oxo_DDCASPT2/cluster/4.84/GMJ_IVECX_F_P.csv

>>> COPY /tmp/4.84/GMJ_IVECC2_F_P.csv /home/grierjones/DDCASPT2/iron_oxo_DDCASPT2/cluster/4.84/GMJ_IVECC2_F_P.csv

>>> COPY /tmp/4.84/GMJ_e2_F_P.csv /home/grierjones/DDCASPT2/iron_oxo_DDCASPT2/cluster/4.84/GMJ_e2_F_P.csv

>>> END FOREACH

>>> EXPORT j = M

>>> IF (-FILE GMJ_e2_${i}_${j}.csv)

>>> COPY /tmp/4.84/GMJ_RHS_F_M.csv /home/grierjones/DDCASPT2/iron_oxo_DDCASPT2/cluster/4.84/GMJ_RHS_F_M.csv

>>> COPY /tmp/4.84/GMJ_IVECW_F_M.csv /home/grierjones/DDCASPT2/iron_oxo_DDCASPT2/cluster/4.84/GMJ_IVECW_F_M.csv

>>> COPY /tmp/4.84/GMJ_IVECX_F_M.csv /home/grierjones/DDCASPT2/iron_oxo_DDCASPT2/cluster/4.84/GMJ_IVECX_F_M.csv

>>> COPY /tmp/4.84/GMJ_IVECC2_F_M.csv /home/grierjones/DDCASPT2/iron_oxo_DDCASPT2/cluster/4.84/GMJ_IVECC2_F_M.csv

>>> COPY /tmp/4.84/GMJ_e2_F_M.csv /home/grierjones/DDCASPT2/iron_oxo_DDCASPT2/cluster/4.84/GMJ_e2_F_M.csv

>>> END FOREACH

>>> END FOREACH

>>> EXPORT i = G

>>> EXPORT j = P

>>> IF (-FILE GMJ_e2_${i}_${j}.csv)

>>> COPY /tmp/4.84/GMJ_RHS_G_P.csv /home/grierjones/DDCASPT2/iron_oxo_DDCASPT2/cluster/4.84/GMJ_RHS_G_P.csv

>>> COPY /tmp/4.84/GMJ_IVECW_G_P.csv /home/grierjones/DDCASPT2/iron_oxo_DDCASPT2/cluster/4.84/GMJ_IVECW_G_P.csv

>>> COPY /tmp/4.84/GMJ_IVECX_G_P.csv /home/grierjones/DDCASPT2/iron_oxo_DDCASPT2/cluster/4.84/GMJ_IVECX_G_P.csv

>>> COPY /tmp/4.84/GMJ_IVECC2_G_P.csv /home/grierjones/DDCASPT2/iron_oxo_DDCASPT2/cluster/4.84/GMJ_IVECC2_G_P.csv

>>> COPY /tmp/4.84/GMJ_e2_G_P.csv /home/grierjones/DDCASPT2/iron_oxo_DDCASPT2/cluster/4.84/GMJ_e2_G_P.csv

>>> END FOREACH

>>> EXPORT j = M

>>> IF (-FILE GMJ_e2_${i}_${j}.csv)

>>> COPY /tmp/4.84/GMJ_RHS_G_M.csv /home/grierjones/DDCASPT2/iron_oxo_DDCASPT2/cluster/4.84/GMJ_RHS_G_M.csv

>>> COPY /tmp/4.84/GMJ_IVECW_G_M.csv /home/grierjones/DDCASPT2/iron_oxo_DDCASPT2/cluster/4.84/GMJ_IVECW_G_M.csv

>>> COPY /tmp/4.84/GMJ_IVECX_G_M.csv /home/grierjones/DDCASPT2/iron_oxo_DDCASPT2/cluster/4.84/GMJ_IVECX_G_M.csv

>>> COPY /tmp/4.84/GMJ_IVECC2_G_M.csv /home/grierjones/DDCASPT2/iron_oxo_DDCASPT2/cluster/4.84/GMJ_IVECC2_G_M.csv

>>> COPY /tmp/4.84/GMJ_e2_G_M.csv /home/grierjones/DDCASPT2/iron_oxo_DDCASPT2/cluster/4.84/GMJ_e2_G_M.csv

>>> END FOREACH

>>> END FOREACH

>>> EXPORT i = H

>>> EXPORT j = P

>>> IF (-FILE GMJ_e2_${i}_${j}.csv)

>>> COPY /tmp/4.84/GMJ_RHS_H_P.csv /home/grierjones/DDCASPT2/iron_oxo_DDCASPT2/cluster/4.84/GMJ_RHS_H_P.csv

>>> COPY /tmp/4.84/GMJ_IVECW_H_P.csv /home/grierjones/DDCASPT2/iron_oxo_DDCASPT2/cluster/4.84/GMJ_IVECW_H_P.csv

>>> COPY /tmp/4.84/GMJ_IVECX_H_P.csv /home/grierjones/DDCASPT2/iron_oxo_DDCASPT2/cluster/4.84/GMJ_IVECX_H_P.csv

>>> COPY /tmp/4.84/GMJ_IVECC2_H_P.csv /home/grierjones/DDCASPT2/iron_oxo_DDCASPT2/cluster/4.84/GMJ_IVECC2_H_P.csv

>>> COPY /tmp/4.84/GMJ_e2_H_P.csv /home/grierjones/DDCASPT2/iron_oxo_DDCASPT2/cluster/4.84/GMJ_e2_H_P.csv

>>> END FOREACH

>>> EXPORT j = M

>>> IF (-FILE GMJ_e2_${i}_${j}.csv)

>>> COPY /tmp/4.84/GMJ_RHS_H_M.csv /home/grierjones/DDCASPT2/iron_oxo_DDCASPT2/cluster/4.84/GMJ_RHS_H_M.csv

>>> COPY /tmp/4.84/GMJ_IVECW_H_M.csv /home/grierjones/DDCASPT2/iron_oxo_DDCASPT2/cluster/4.84/GMJ_IVECW_H_M.csv

>>> COPY /tmp/4.84/GMJ_IVECX_H_M.csv /home/grierjones/DDCASPT2/iron_oxo_DDCASPT2/cluster/4.84/GMJ_IVECX_H_M.csv

>>> COPY /tmp/4.84/GMJ_IVECC2_H_M.csv /home/grierjones/DDCASPT2/iron_oxo_DDCASPT2/cluster/4.84/GMJ_IVECC2_H_M.csv

>>> COPY /tmp/4.84/GMJ_e2_H_M.csv /home/grierjones/DDCASPT2/iron_oxo_DDCASPT2/cluster/4.84/GMJ_e2_H_M.csv

>>> END FOREACH

>>> END FOREACH

>>> EXPORT i = A

>>> IF (-FILE GMJ_e2_$i.csv)

>>> COPY /tmp/4.84/GMJ_RHS_A.csv /home/grierjones/DDCASPT2/iron_oxo_DDCASPT2/cluster/4.84/GMJ_RHS_A.csv

>>> COPY /tmp/4.84/GMJ_IVECW_A.csv /home/grierjones/DDCASPT2/iron_oxo_DDCASPT2/cluster/4.84/GMJ_IVECW_A.csv

>>> COPY /tmp/4.84/GMJ_IVECX_A.csv /home/grierjones/DDCASPT2/iron_oxo_DDCASPT2/cluster/4.84/GMJ_IVECX_A.csv

>>> COPY /tmp/4.84/GMJ_IVECC2_A.csv /home/grierjones/DDCASPT2/iron_oxo_DDCASPT2/cluster/4.84/GMJ_IVECC2_A.csv

>>> COPY /tmp/4.84/GMJ_e2_A.csv /home/grierjones/DDCASPT2/iron_oxo_DDCASPT2/cluster/4.84/GMJ_e2_A.csv

>>> END FOREACH

>>> EXPORT i = C

>>> IF (-FILE GMJ_e2_$i.csv)

>>> COPY /tmp/4.84/GMJ_RHS_C.csv /home/grierjones/DDCASPT2/iron_oxo_DDCASPT2/cluster/4.84/GMJ_RHS_C.csv

>>> COPY /tmp/4.84/GMJ_IVECW_C.csv /home/grierjones/DDCASPT2/iron_oxo_DDCASPT2/cluster/4.84/GMJ_IVECW_C.csv

>>> COPY /tmp/4.84/GMJ_IVECX_C.csv /home/grierjones/DDCASPT2/iron_oxo_DDCASPT2/cluster/4.84/GMJ_IVECX_C.csv

>>> COPY /tmp/4.84/GMJ_IVECC2_C.csv /home/grierjones/DDCASPT2/iron_oxo_DDCASPT2/cluster/4.84/GMJ_IVECC2_C.csv

>>> COPY /tmp/4.84/GMJ_e2_C.csv /home/grierjones/DDCASPT2/iron_oxo_DDCASPT2/cluster/4.84/GMJ_e2_C.csv

>>> END FOREACH

>>> EXPORT i = D

>>> IF (-FILE GMJ_e2_$i.csv)

>>> COPY /tmp/4.84/GMJ_RHS_D.csv /home/grierjones/DDCASPT2/iron_oxo_DDCASPT2/cluster/4.84/GMJ_RHS_D.csv

>>> COPY /tmp/4.84/GMJ_IVECW_D.csv /home/grierjones/DDCASPT2/iron_oxo_DDCASPT2/cluster/4.84/GMJ_IVECW_D.csv

>>> COPY /tmp/4.84/GMJ_IVECX_D.csv /home/grierjones/DDCASPT2/iron_oxo_DDCASPT2/cluster/4.84/GMJ_IVECX_D.csv

>>> COPY /tmp/4.84/GMJ_IVECC2_D.csv /home/grierjones/DDCASPT2/iron_oxo_DDCASPT2/cluster/4.84/GMJ_IVECC2_D.csv

>>> COPY /tmp/4.84/GMJ_e2_D.csv /home/grierjones/DDCASPT2/iron_oxo_DDCASPT2/cluster/4.84/GMJ_e2_D.csv

>>> END FOREACH

.########################.
.# Non-zero return code #.
.########################.

    Timing: Wall=422.12 User=418.38 System=3.61
************************************
*** WorkDir at /tmp/4.84 cleaned ***
************************************
