[Molden Format]
[N_Atoms]
                     2
[Atoms] (AU)
O1          1      8           0.00000000      0.00000000      0.00000000
O2          2      8           0.00000000      0.00000000      2.64561657
[Charge] (Mulliken)
 -2.096101070492296E-013
  2.069455717901292E-013
[GTO] (AU)
   1
   s  14
  1.053749500E+05  1.238600013E-04
  1.567924000E+04  5.120100053E-04
  3.534544700E+03  2.152910022E-03
  9.873651600E+02  8.528440089E-03
  3.159787500E+02  3.018049031E-02
  1.116542800E+02  9.099702095E-02
  4.269945100E+01  2.177936423E-01
  1.739559600E+01  3.686245738E-01
  7.438309000E+00  3.366707335E-01
  3.222862000E+00  9.657630101E-02
  1.253877000E+00  2.144520022E-03
  4.951550000E-01  1.194350012E-03
  1.916650000E-01  5.390200056E-04
  6.708300000E-02  2.103400022E-04
   s  14
  1.053749500E+05 -2.815000008E-05
  1.567924000E+04 -1.163000003E-04
  3.534544700E+03 -4.909200013E-04
  9.873651600E+02 -1.946160005E-03
  3.159787500E+02 -7.005300019E-03
  1.116542800E+02 -2.167814006E-02
  4.269945100E+01 -5.641213015E-02
  1.739559600E+01 -1.127053003E-01
  7.438309000E+00 -1.589119704E-01
  3.222862000E+00 -3.355083009E-02
  1.253877000E+00  3.531902810E-01
  4.951550000E-01  5.534199315E-01
  1.916650000E-01  2.301839106E-01
  6.708300000E-02  1.127267003E-02
   p   9
  2.000000000E+02  9.173000030E-04
  4.653336700E+01  7.377140024E-03
  1.462180900E+01  3.483515011E-02
  5.313064000E+00  1.144397004E-01
  2.102525000E+00  2.554966408E-01
  8.502230000E-01  3.722557412E-01
  3.375970000E-01  3.323314911E-01
  1.288920000E-01  1.400847905E-01
  4.511200000E-02  2.395784008E-02
 
   2
   s  14
  1.053749500E+05  1.238600013E-04
  1.567924000E+04  5.120100053E-04
  3.534544700E+03  2.152910022E-03
  9.873651600E+02  8.528440089E-03
  3.159787500E+02  3.018049031E-02
  1.116542800E+02  9.099702095E-02
  4.269945100E+01  2.177936423E-01
  1.739559600E+01  3.686245738E-01
  7.438309000E+00  3.366707335E-01
  3.222862000E+00  9.657630101E-02
  1.253877000E+00  2.144520022E-03
  4.951550000E-01  1.194350012E-03
  1.916650000E-01  5.390200056E-04
  6.708300000E-02  2.103400022E-04
   s  14
  1.053749500E+05 -2.815000008E-05
  1.567924000E+04 -1.163000003E-04
  3.534544700E+03 -4.909200013E-04
  9.873651600E+02 -1.946160005E-03
  3.159787500E+02 -7.005300019E-03
  1.116542800E+02 -2.167814006E-02
  4.269945100E+01 -5.641213015E-02
  1.739559600E+01 -1.127053003E-01
  7.438309000E+00 -1.589119704E-01
  3.222862000E+00 -3.355083009E-02
  1.253877000E+00  3.531902810E-01
  4.951550000E-01  5.534199315E-01
  1.916650000E-01  2.301839106E-01
  6.708300000E-02  1.127267003E-02
   p   9
  2.000000000E+02  9.173000030E-04
  4.653336700E+01  7.377140024E-03
  1.462180900E+01  3.483515011E-02
  5.313064000E+00  1.144397004E-01
  2.102525000E+00  2.554966408E-01
  8.502230000E-01  3.722557412E-01
  3.375970000E-01  3.323314911E-01
  1.288920000E-01  1.400847905E-01
  4.511200000E-02  2.395784008E-02
 
[MO]
Sym=     1a  
Ene=   -20.8450
Spin= Alpha
Occup=    1.00000
   1         0.70705712
   2        -0.00050434
   3         0.00000000
   4         0.00000000
   5         0.00072902
   6         0.70705712
   7        -0.00050434
   8        -0.00000000
   9         0.00000000
  10        -0.00072902
Sym=     1a  
Ene=   -20.8450
Spin= Beta
Occup=    1.00000
   1         0.70705712
   2        -0.00050434
   3         0.00000000
   4         0.00000000
   5         0.00072902
   6         0.70705712
   7        -0.00050434
   8        -0.00000000
   9         0.00000000
  10        -0.00072902
Sym=     2a  
Ene=   -20.8440
Spin= Alpha
Occup=    1.00000
   1        -0.70717722
   2        -0.00019509
   3        -0.00000000
   4         0.00000000
   5        -0.00102642
   6         0.70717722
   7         0.00019509
   8         0.00000000
   9         0.00000000
  10        -0.00102642
Sym=     2a  
Ene=   -20.8440
Spin= Beta
Occup=    1.00000
   1        -0.70717722
   2        -0.00019509
   3        -0.00000000
   4         0.00000000
   5        -0.00102642
   6         0.70717722
   7         0.00019509
   8         0.00000000
   9         0.00000000
  10        -0.00102642
Sym=     3a  
Ene=    -1.5632
Spin= Alpha
Occup=    1.00000
   1        -0.01405686
   2         0.59187291
   3         0.00000000
   4         0.00000000
   5         0.13742694
   6        -0.01405686
   7         0.59187291
   8        -0.00000000
   9         0.00000000
  10        -0.13742694
Sym=     3a  
Ene=    -1.5632
Spin= Beta
Occup=    1.00000
   1        -0.01405686
   2         0.59187291
   3         0.00000000
   4         0.00000000
   5         0.13742694
   6        -0.01405686
   7         0.59187291
   8        -0.00000000
   9         0.00000000
  10        -0.13742694
Sym=     4a  
Ene=    -1.1966
Spin= Alpha
Occup=    1.00000
   1        -0.00788191
   2        -0.75064662
   3        -0.00000000
   4         0.00000000
   5         0.11000622
   6         0.00788191
   7         0.75064662
   8         0.00000000
   9         0.00000000
  10         0.11000622
Sym=     4a  
Ene=    -1.1966
Spin= Beta
Occup=    1.00000
   1        -0.00788191
   2        -0.75064662
   3        -0.00000000
   4         0.00000000
   5         0.11000622
   6         0.00788191
   7         0.75064662
   8         0.00000000
   9         0.00000000
  10         0.11000622
Sym=     5a  
Ene=    -0.7453
Spin= Alpha
Occup=    1.00000
   1        -0.00000000
   2        -0.00000000
   3         0.19866230
   4         0.62233273
   5        -0.00000000
   6         0.00000000
   7        -0.00000000
   8         0.19866230
   9         0.62233273
  10        -0.00000000
Sym=     5a  
Ene=    -0.7453
Spin= Beta
Occup=    1.00000
   1        -0.00000000
   2        -0.00000000
   3         0.19866230
   4         0.62233273
   5        -0.00000000
   6         0.00000000
   7        -0.00000000
   8         0.19866230
   9         0.62233273
  10        -0.00000000
Sym=     6a  
Ene=    -0.6952
Spin= Alpha
Occup=    1.00000
   1         0.01992996
   2         0.29542137
   3         0.00000000
   4         0.00000000
   5        -0.64309262
   6         0.01992996
   7         0.29542137
   8         0.00000000
   9        -0.00000000
  10         0.64309262
Sym=     6a  
Ene=    -0.6952
Spin= Beta
Occup=    1.00000
   1         0.01992996
   2         0.29542137
   3         0.00000000
   4         0.00000000
   5        -0.64309262
   6         0.01992996
   7         0.29542137
   8         0.00000000
   9        -0.00000000
  10         0.64309262
Sym=     7a  
Ene=    -0.6131
Spin= Alpha
Occup=    1.00000
   1        -0.00000000
   2        -0.00000000
   3         0.62233273
   4        -0.19866230
   5         0.00000000
   6        -0.00000000
   7        -0.00000000
   8         0.62233273
   9        -0.19866230
  10        -0.00000000
Sym=     7a  
Ene=    -0.6131
Spin= Beta
Occup=    1.00000
   1        -0.00000000
   2        -0.00000000
   3         0.62233273
   4        -0.19866230
   5         0.00000000
   6        -0.00000000
   7        -0.00000000
   8         0.62233273
   9        -0.19866230
  10        -0.00000000
Sym=     8a  
Ene=    -0.5695
Spin= Alpha
Occup=    1.00000
   1         0.00000000
   2         0.00000000
   3        -0.23625862
   4        -0.74010755
   5        -0.00000000
   6         0.00000000
   7         0.00000000
   8         0.23625862
   9         0.74010755
  10         0.00000000
Sym=     8a  
Ene=    -0.5695
Spin= Beta
Occup=    1.00000
   1         0.00000000
   2         0.00000000
   3        -0.23625862
   4        -0.74010755
   5        -0.00000000
   6         0.00000000
   7         0.00000000
   8         0.23625862
   9         0.74010755
  10         0.00000000
Sym=     9a  
Ene=    -0.0817
Spin= Alpha
Occup=    0.00000
   1        -0.00000000
   2        -0.00000000
   3        -0.74010755
   4         0.23625862
   5        -0.00000000
   6         0.00000000
   7         0.00000000
   8         0.74010755
   9        -0.23625862
  10        -0.00000000
Sym=     9a  
Ene=    -0.0817
Spin= Beta
Occup=    0.00000
   1        -0.00000000
   2        -0.00000000
   3        -0.74010755
   4         0.23625862
   5        -0.00000000
   6         0.00000000
   7         0.00000000
   8         0.74010755
   9        -0.23625862
  10        -0.00000000
Sym=    10a  
Ene=     0.2077
Spin= Alpha
Occup=    0.00000
   1         0.03830078
   2         0.44408409
   3        -0.00000000
   4         0.00000000
   5         0.87475429
   6        -0.03830078
   7        -0.44408409
   8         0.00000000
   9        -0.00000000
  10         0.87475429
Sym=    10a  
Ene=     0.2077
Spin= Beta
Occup=    0.00000
   1         0.03830078
   2         0.44408409
   3        -0.00000000
   4         0.00000000
   5         0.87475429
   6        -0.03830078
   7        -0.44408409
   8         0.00000000
   9        -0.00000000
  10         0.87475429
