[Molden Format]
[N_Atoms]
                     2
[Atoms] (AU)
O1          1      8           0.00000000      0.00000000      0.00000000
O2          2      8           0.00000000      0.00000000      2.64561657
[Charge] (Mulliken)
   1.00000000003124     
  0.999999999968743     
[GTO] (AU)
   1
   s  14
  1.053749500E+05  1.238600013E-04
  1.567924000E+04  5.120100053E-04
  3.534544700E+03  2.152910022E-03
  9.873651600E+02  8.528440089E-03
  3.159787500E+02  3.018049031E-02
  1.116542800E+02  9.099702095E-02
  4.269945100E+01  2.177936423E-01
  1.739559600E+01  3.686245738E-01
  7.438309000E+00  3.366707335E-01
  3.222862000E+00  9.657630101E-02
  1.253877000E+00  2.144520022E-03
  4.951550000E-01  1.194350012E-03
  1.916650000E-01  5.390200056E-04
  6.708300000E-02  2.103400022E-04
   s  14
  1.053749500E+05 -2.815000008E-05
  1.567924000E+04 -1.163000003E-04
  3.534544700E+03 -4.909200013E-04
  9.873651600E+02 -1.946160005E-03
  3.159787500E+02 -7.005300019E-03
  1.116542800E+02 -2.167814006E-02
  4.269945100E+01 -5.641213015E-02
  1.739559600E+01 -1.127053003E-01
  7.438309000E+00 -1.589119704E-01
  3.222862000E+00 -3.355083009E-02
  1.253877000E+00  3.531902810E-01
  4.951550000E-01  5.534199315E-01
  1.916650000E-01  2.301839106E-01
  6.708300000E-02  1.127267003E-02
   p   9
  2.000000000E+02  9.173000030E-04
  4.653336700E+01  7.377140024E-03
  1.462180900E+01  3.483515011E-02
  5.313064000E+00  1.144397004E-01
  2.102525000E+00  2.554966408E-01
  8.502230000E-01  3.722557412E-01
  3.375970000E-01  3.323314911E-01
  1.288920000E-01  1.400847905E-01
  4.511200000E-02  2.395784008E-02
 
   2
   s  14
  1.053749500E+05  1.238600013E-04
  1.567924000E+04  5.120100053E-04
  3.534544700E+03  2.152910022E-03
  9.873651600E+02  8.528440089E-03
  3.159787500E+02  3.018049031E-02
  1.116542800E+02  9.099702095E-02
  4.269945100E+01  2.177936423E-01
  1.739559600E+01  3.686245738E-01
  7.438309000E+00  3.366707335E-01
  3.222862000E+00  9.657630101E-02
  1.253877000E+00  2.144520022E-03
  4.951550000E-01  1.194350012E-03
  1.916650000E-01  5.390200056E-04
  6.708300000E-02  2.103400022E-04
   s  14
  1.053749500E+05 -2.815000008E-05
  1.567924000E+04 -1.163000003E-04
  3.534544700E+03 -4.909200013E-04
  9.873651600E+02 -1.946160005E-03
  3.159787500E+02 -7.005300019E-03
  1.116542800E+02 -2.167814006E-02
  4.269945100E+01 -5.641213015E-02
  1.739559600E+01 -1.127053003E-01
  7.438309000E+00 -1.589119704E-01
  3.222862000E+00 -3.355083009E-02
  1.253877000E+00  3.531902810E-01
  4.951550000E-01  5.534199315E-01
  1.916650000E-01  2.301839106E-01
  6.708300000E-02  1.127267003E-02
   p   9
  2.000000000E+02  9.173000030E-04
  4.653336700E+01  7.377140024E-03
  1.462180900E+01  3.483515011E-02
  5.313064000E+00  1.144397004E-01
  2.102525000E+00  2.554966408E-01
  8.502230000E-01  3.722557412E-01
  3.375970000E-01  3.323314911E-01
  1.288920000E-01  1.400847905E-01
  4.511200000E-02  2.395784008E-02
 
[MO]
Sym=     1a  
Ene=   -22.3200
Spin= Alpha
Occup=    2.00000
   1         0.70706941
   2        -0.00167766
   3         0.00000000
   4         0.00000000
   5         0.00083791
   6         0.70706941
   7        -0.00167766
   8        -0.00000000
   9         0.00000000
  10        -0.00083791
Sym=     2a  
Ene=   -22.3160
Spin= Alpha
Occup=    2.00000
   1        -0.70691613
   2         0.01157344
   3        -0.00000000
   4         0.00000000
   5        -0.00104910
   6         0.70691614
   7        -0.01157344
   8         0.00000000
   9         0.00000000
  10        -0.00104910
Sym=     3a  
Ene=    -2.6440
Spin= Alpha
Occup=    2.00000
   1         0.01394291
   2        -0.57470897
   3        -0.00000000
   4        -0.00000000
   5        -0.17262528
   6         0.01394291
   7        -0.57470897
   8         0.00000000
   9        -0.00000000
  10         0.17262528
Sym=     4a  
Ene=    -1.7383
Spin= Alpha
Occup=    2.00000
   1         0.01957086
   2         0.32755819
   3         0.00000000
   4        -0.00000000
   5        -0.63455072
   6         0.01957086
   7         0.32755819
   8         0.00000000
   9        -0.00000000
  10         0.63455072
Sym=     5a  
Ene=    -1.6383
Spin= Alpha
Occup=    2.00000
   1         0.00000000
   2        -0.00000000
   3         0.34861574
   4         0.55247787
   5         0.00000000
   6        -0.00000000
   7         0.00000000
   8         0.34861574
   9         0.55247787
  10         0.00000000
Sym=     6a  
Ene=    -1.6375
Spin= Alpha
Occup=    2.00000
   1        -0.00000000
   2         0.00000000
   3         0.55247787
   4        -0.34861574
   5         0.00000000
   6        -0.00000000
   7        -0.00000000
   8         0.55247787
   9        -0.34861574
  10        -0.00000000
Sym=     7a  
Ene=    -2.2430
Spin= Alpha
Occup=    1.98867
   1        -0.02147852
   2        -0.78529383
   3         0.00000000
   4        -0.00000000
   5         0.03593520
   6         0.02147852
   7         0.78529383
   8         0.00000000
   9        -0.00000000
  10         0.03593520
Sym=     8a  
Ene=     0.0000
Spin= Alpha
Occup=    0.01133
   1         0.00000000
   2         0.00000000
   3        -0.41459035
   4        -0.65703285
   5         0.00000000
   6        -0.00000000
   7        -0.00000000
   8         0.41459035
   9         0.65703285
  10         0.00000000
Sym=     9a  
Ene=    -1.1600
Spin= Alpha
Occup=    0.00000
   1        -0.00000000
   2        -0.00000000
   3        -0.65703285
   4         0.41459035
   5        -0.00000000
   6         0.00000000
   7         0.00000000
   8         0.65703285
   9        -0.41459035
  10        -0.00000000
Sym=    10a  
Ene=    -0.9343
Spin= Alpha
Occup=    0.00000
   1         0.03790708
   2         0.37928976
   3        -0.00000000
   4         0.00000000
   5         0.88091149
   6        -0.03790708
   7        -0.37928976
   8         0.00000000
   9        -0.00000000
  10         0.88091149
