[Molden Format]
[N_Atoms]
                     2
[Atoms] (AU)
BE1         1      4           0.00000000      0.00000000      0.00000000
LI2         2      3           0.00000000      0.00000000      5.10226054
[Charge] (Mulliken)
 -5.261950277853611E-002
  5.261950277851968E-002
[GTO] (AU)
   1
   s  14
  2.262859900E+04  8.443999941E-05
  3.372318100E+03  4.601499968E-04
  7.603504000E+02  2.285389984E-03
  2.117404800E+02  9.648129932E-03
  6.722346800E+01  3.494469975E-02
  2.337217700E+01  1.061099893E-01
  8.721373000E+00  2.458240383E-01
  3.468091000E+00  3.862428773E-01
  1.452144000E+00  3.105526078E-01
  6.086150000E-01  6.415933955E-02
  2.576860000E-01 -2.265049984E-03
  1.041760000E-01 -5.217499963E-04
  4.242700000E-02 -8.757499938E-04
  1.484900000E-02  1.242199991E-04
   s  14
  2.262859900E+04 -1.586999994E-05
  3.372318100E+03 -8.656999968E-05
  7.603504000E+02 -4.302199984E-04
  2.117404800E+02 -1.825079993E-03
  6.722346800E+01 -6.682749976E-03
  2.337217700E+01 -2.095119992E-02
  8.721373000E+00 -5.200308981E-02
  3.468091000E+00 -9.849176964E-02
  1.452144000E+00 -1.355800695E-01
  6.086150000E-01 -6.429875976E-02
  2.576860000E-01  3.125414989E-01
  1.041760000E-01  6.270468577E-01
  4.242700000E-02  2.110231492E-01
  1.484900000E-02 -4.104669985E-03
   p   9
  3.371018400E+01  1.069960000E-03
  8.057649500E+00  6.828550001E-03
  2.836471400E+00  2.119065000E-02
  1.099965700E+00  5.843696001E-02
  4.433964000E-01  2.020920800E-01
  1.822264000E-01  4.582953101E-01
  7.572410000E-02  3.691239601E-01
  3.168540000E-02  6.611471001E-02
  1.108990000E-02  1.405160000E-03
 
   2
   s  14
  9.497934400E+03  9.668999974E-05
  1.416811200E+03  6.087099984E-04
  3.214599400E+02  3.101519992E-03
  9.112416300E+01  1.266904997E-02
  2.999989100E+01  4.248012989E-02
  1.101763100E+01  1.150183297E-01
  4.372801000E+00  2.398650094E-01
  1.831256000E+00  3.584300090E-01
  8.022610000E-01  3.048527792E-01
  3.626480000E-01  8.824261976E-02
  1.139950000E-01 -8.445899977E-04
  5.123700000E-02 -7.943959979E-03
  2.246800000E-02 -3.764419990E-03
  7.860000000E-03 -8.868999976E-05
   s  14
  9.497934400E+03 -1.244999993E-05
  1.416811200E+03 -7.838999954E-05
  3.214599400E+02 -4.007099976E-04
  9.112416300E+01 -1.645249990E-03
  2.999989100E+01 -5.634599967E-03
  1.101763100E+01 -1.590780991E-02
  4.372801000E+00 -3.612581979E-02
  1.831256000E+00 -6.459927962E-02
  8.022610000E-01 -1.008321794E-01
  3.626480000E-01 -9.757613942E-02
  1.139950000E-01  2.301215886E-01
  5.123700000E-02  6.102389764E-01
  2.246800000E-02  2.849406083E-01
  7.860000000E-03  4.026899976E-03
   p   9
  1.311950400E+01  1.524940000E-03
  3.077424200E+00  8.314830000E-03
  1.098800500E+00  1.933203000E-02
  4.357784000E-01  4.934293000E-02
  1.802432000E-01  1.623554000E-01
  7.613330000E-02  3.847505400E-01
  3.254650000E-02  4.336100400E-01
  1.401820000E-02  1.287005900E-01
  4.906400000E-03 -1.018520000E-03
 
[MO]
Sym=     1a  
Ene=    -4.6944
Spin= Alpha
Occup=    1.00000
   1         0.99995111
   2         0.00269188
   3        -0.00000000
   4        -0.00000000
   5        -0.00069781
   6         0.00004328
   7         0.00042866
   8         0.00000000
   9         0.00000000
  10        -0.00032429
Sym=     1a  
Ene=    -4.6944
Spin= Beta
Occup=    1.00000
   1         0.99995111
   2         0.00269188
   3        -0.00000000
   4        -0.00000000
   5        -0.00069781
   6         0.00004328
   7         0.00042866
   8         0.00000000
   9         0.00000000
  10        -0.00032429
Sym=     2a  
Ene=    -2.5107
Spin= Alpha
Occup=    1.00000
   1         0.00003281
   2         0.00222278
   3         0.00000000
   4         0.00000000
   5         0.00057686
   6         0.99978663
   7         0.01283489
   8         0.00000001
   9         0.00000000
  10         0.00135617
Sym=     2a  
Ene=    -2.5107
Spin= Beta
Occup=    1.00000
   1         0.00003281
   2         0.00222278
   3         0.00000000
   4         0.00000000
   5         0.00057686
   6         0.99978663
   7         0.01283489
   8         0.00000001
   9         0.00000000
  10         0.00135617
Sym=     3a  
Ene=    -0.2995
Spin= Alpha
Occup=    1.00000
   1        -0.02248674
   2         0.81873586
   3         0.00000027
   4         0.00000010
   5         0.06128007
   6        -0.04017662
   7         0.20174520
   8         0.00000016
   9         0.00000006
  10        -0.13700077
Sym=     3a  
Ene=    -0.2995
Spin= Beta
Occup=    1.00000
   1        -0.02248674
   2         0.81873586
   3         0.00000027
   4         0.00000010
   5         0.06128007
   6        -0.04017662
   7         0.20174520
   8         0.00000016
   9         0.00000006
  10        -0.13700077
Sym=     4a  
Ene=     0.0000
Spin= Alpha
Occup=    1.00000
   1         0.00000014
   2         0.00000191
   3         0.53582480
   4         0.19252614
   5        -0.00000182
   6         0.00000011
   7        -0.00000394
   8         0.62870154
   9         0.22589750
  10        -0.00000043
Sym=     4a  
Ene=     0.0000
Spin= Beta
Occup=    0.00000
   1         0.00000014
   2         0.00000191
   3         0.53582480
   4         0.19252614
   5        -0.00000182
   6         0.00000011
   7        -0.00000394
   8         0.62870154
   9         0.22589750
  10        -0.00000043
Sym=     5a  
Ene=     0.0027
Spin= Alpha
Occup=    0.00000
   1         0.00356620
   2         0.26412680
   3        -0.00000143
   4        -0.00000051
   5        -0.17317942
   6         0.01453992
   7        -0.85242532
   8        -0.00000354
   9        -0.00000127
  10        -0.41281480
Sym=     5a  
Ene=     0.0027
Spin= Beta
Occup=    0.00000
   1         0.00356620
   2         0.26412680
   3        -0.00000143
   4        -0.00000051
   5        -0.17317942
   6         0.01453992
   7        -0.85242532
   8        -0.00000354
   9        -0.00000127
  10        -0.41281480
Sym=     6a  
Ene=     0.0438
Spin= Alpha
Occup=    0.00000
   1        -0.00000000
   2        -0.00000000
   3        -0.10699016
   4         0.29776727
   5         0.00000000
   6        -0.00000000
   7         0.00000000
   8        -0.29010932
   9         0.80741124
  10         0.00000000
Sym=     6a  
Ene=     0.0438
Spin= Beta
Occup=    0.00000
   1        -0.00000000
   2        -0.00000000
   3        -0.10699016
   4         0.29776727
   5         0.00000000
   6        -0.00000000
   7         0.00000000
   8        -0.29010932
   9         0.80741124
  10         0.00000000
Sym=     7a  
Ene=     0.0800
Spin= Alpha
Occup=    0.00000
   1         0.06018179
   2         0.58663820
   3         0.00000057
   4         0.00000021
   5        -0.62624738
   6         0.02534674
   7        -0.07772013
   8        -0.00000247
   9        -0.00000089
  10         0.72829010
Sym=     7a  
Ene=     0.0800
Spin= Beta
Occup=    0.00000
   1         0.06018179
   2         0.58663820
   3         0.00000057
   4         0.00000021
   5        -0.62624738
   6         0.02534674
   7        -0.07772013
   8        -0.00000247
   9        -0.00000089
  10         0.72829010
Sym=     8a  
Ene=     0.1294
Spin= Alpha
Occup=    0.00000
   1         0.00000009
   2         0.00000130
   3        -0.82900802
   4        -0.29786922
   5        -0.00000143
   6         0.00000006
   7        -0.00000093
   8         0.76098416
   9         0.27342770
  10         0.00000074
Sym=     8a  
Ene=     0.1294
Spin= Beta
Occup=    0.00000
   1         0.00000009
   2         0.00000130
   3        -0.82900802
   4        -0.29786922
   5        -0.00000143
   6         0.00000006
   7        -0.00000093
   8         0.76098416
   9         0.27342770
  10         0.00000074
Sym=     9a  
Ene=     0.1516
Spin= Alpha
Occup=    0.00000
   1        -0.00000000
   2        -0.00000000
   3         0.33815010
   4        -0.94111485
   5         0.00000000
   6        -0.00000000
   7         0.00000000
   8        -0.20403178
   9         0.56784646
  10        -0.00000000
Sym=     9a  
Ene=     0.1516
Spin= Beta
Occup=    0.00000
   1        -0.00000000
   2        -0.00000000
   3         0.33815010
   4        -0.94111485
   5         0.00000000
   6        -0.00000000
   7         0.00000000
   8        -0.20403178
   9         0.56784646
  10        -0.00000000
Sym=    10a  
Ene=     0.2427
Spin= Alpha
Occup=    0.00000
   1        -0.12747737
   2        -1.04942736
   3         0.00000012
   4         0.00000004
   5        -0.99300910
   6         0.10399455
   7         0.97445712
   8        -0.00000006
   9        -0.00000002
  10        -1.07809403
Sym=    10a  
Ene=     0.2427
Spin= Beta
Occup=    0.00000
   1        -0.12747737
   2        -1.04942736
   3         0.00000012
   4         0.00000004
   5        -0.99300910
   6         0.10399455
   7         0.97445712
   8        -0.00000006
   9        -0.00000002
  10        -1.07809403
