[Molden Format]
[N_Atoms]
                     2
[Atoms] (AU)
BE1         1      4           0.00000000      0.00000000      0.00000000
LI2         2      3           0.00000000      0.00000000      5.10226054
[Charge] (Mulliken)
 -7.838076383155368E-003
  7.838076383145154E-003
[GTO] (AU)
   1
   s  14
  2.262859900E+04  8.443999941E-05
  3.372318100E+03  4.601499968E-04
  7.603504000E+02  2.285389984E-03
  2.117404800E+02  9.648129932E-03
  6.722346800E+01  3.494469975E-02
  2.337217700E+01  1.061099893E-01
  8.721373000E+00  2.458240383E-01
  3.468091000E+00  3.862428773E-01
  1.452144000E+00  3.105526078E-01
  6.086150000E-01  6.415933955E-02
  2.576860000E-01 -2.265049984E-03
  1.041760000E-01 -5.217499963E-04
  4.242700000E-02 -8.757499938E-04
  1.484900000E-02  1.242199991E-04
   s  14
  2.262859900E+04 -1.586999994E-05
  3.372318100E+03 -8.656999968E-05
  7.603504000E+02 -4.302199984E-04
  2.117404800E+02 -1.825079993E-03
  6.722346800E+01 -6.682749976E-03
  2.337217700E+01 -2.095119992E-02
  8.721373000E+00 -5.200308981E-02
  3.468091000E+00 -9.849176964E-02
  1.452144000E+00 -1.355800695E-01
  6.086150000E-01 -6.429875976E-02
  2.576860000E-01  3.125414989E-01
  1.041760000E-01  6.270468577E-01
  4.242700000E-02  2.110231492E-01
  1.484900000E-02 -4.104669985E-03
   p   9
  3.371018400E+01  1.069960000E-03
  8.057649500E+00  6.828550001E-03
  2.836471400E+00  2.119065000E-02
  1.099965700E+00  5.843696001E-02
  4.433964000E-01  2.020920800E-01
  1.822264000E-01  4.582953101E-01
  7.572410000E-02  3.691239601E-01
  3.168540000E-02  6.611471001E-02
  1.108990000E-02  1.405160000E-03
 
   2
   s  14
  9.497934400E+03  9.668999974E-05
  1.416811200E+03  6.087099984E-04
  3.214599400E+02  3.101519992E-03
  9.112416300E+01  1.266904997E-02
  2.999989100E+01  4.248012989E-02
  1.101763100E+01  1.150183297E-01
  4.372801000E+00  2.398650094E-01
  1.831256000E+00  3.584300090E-01
  8.022610000E-01  3.048527792E-01
  3.626480000E-01  8.824261976E-02
  1.139950000E-01 -8.445899977E-04
  5.123700000E-02 -7.943959979E-03
  2.246800000E-02 -3.764419990E-03
  7.860000000E-03 -8.868999976E-05
   s  14
  9.497934400E+03 -1.244999993E-05
  1.416811200E+03 -7.838999954E-05
  3.214599400E+02 -4.007099976E-04
  9.112416300E+01 -1.645249990E-03
  2.999989100E+01 -5.634599967E-03
  1.101763100E+01 -1.590780991E-02
  4.372801000E+00 -3.612581979E-02
  1.831256000E+00 -6.459927962E-02
  8.022610000E-01 -1.008321794E-01
  3.626480000E-01 -9.757613942E-02
  1.139950000E-01  2.301215886E-01
  5.123700000E-02  6.102389764E-01
  2.246800000E-02  2.849406083E-01
  7.860000000E-03  4.026899976E-03
   p   9
  1.311950400E+01  1.524940000E-03
  3.077424200E+00  8.314830000E-03
  1.098800500E+00  1.933203000E-02
  4.357784000E-01  4.934293000E-02
  1.802432000E-01  1.623554000E-01
  7.613330000E-02  3.847505400E-01
  3.254650000E-02  4.336100400E-01
  1.401820000E-02  1.287005900E-01
  4.906400000E-03 -1.018520000E-03
 
[MO]
Sym=     1a  
Ene=    -4.7137
Spin= Alpha
Occup=    1.00000
   1         0.99997913
   2         0.00263135
   3        -0.00000000
   4         0.00000000
   5        -0.00048689
   6         0.00001918
   7         0.00026242
   8        -0.00000000
   9         0.00000000
  10        -0.00007122
Sym=     1a  
Ene=    -4.7092
Spin= Beta
Occup=    1.00000
   1         1.00001349
   2         0.00260210
   3        -0.00000000
   4         0.00000000
   5         0.00079293
   6        -0.00005830
   7        -0.00018835
   8         0.00000000
   9         0.00000000
  10         0.00011005
Sym=     2a  
Ene=    -2.4734
Spin= Alpha
Occup=    1.00000
   1         0.00005495
   2         0.00095299
   3         0.00000000
   4         0.00000000
   5         0.00024319
   6         0.99987618
   7         0.01173737
   8        -0.00000000
   9        -0.00000000
  10         0.00082721
Sym=     2a  
Ene=    -2.4627
Spin= Beta
Occup=    1.00000
   1        -0.00002462
   2         0.00109411
   3         0.00000000
   4         0.00000000
   5         0.00069625
   6         0.99982209
   7         0.01283836
   8        -0.00000000
   9        -0.00000000
  10         0.00060928
Sym=     3a  
Ene=    -0.3335
Spin= Alpha
Occup=    1.00000
   1        -0.01635165
   2         0.86379237
   3        -0.00000000
   4        -0.00000000
   5        -0.22855993
   6        -0.01829676
   7         0.19067525
   8         0.00000000
   9        -0.00000000
  10        -0.06741233
Sym=     3a  
Ene=    -0.3181
Spin= Beta
Occup=    1.00000
   1        -0.01721312
   2         0.81160998
   3        -0.00000000
   4         0.00000000
   5         0.29853145
   6        -0.05634189
   7         0.12366260
   8        -0.00000000
   9         0.00000000
  10        -0.11803728
Sym=     4a  
Ene=    -0.1871
Spin= Alpha
Occup=    1.00000
   1        -0.03334957
   2        -0.32312901
   3         0.00000000
   4         0.00000000
   5         0.40059281
   6        -0.02822483
   7         0.84936741
   8         0.00000000
   9        -0.00000000
  10         0.03924176
Sym=     4a  
Ene=     0.0457
Spin= Beta
Occup=    0.00000
   1        -0.00454337
   2        -0.28852897
   3         0.00000000
   4         0.00000000
   5         0.10410354
   6        -0.00843139
   7         0.87559218
   8         0.00000000
   9         0.00000000
  10         0.41569518
Sym=     5a  
Ene=     0.0325
Spin= Alpha
Occup=    0.00000
   1         0.05078133
   2         0.17446583
   3        -0.00000000
   4         0.00000000
   5        -0.52512477
   6         0.02916430
   7         0.29582482
   8        -0.00000000
   9         0.00000000
  10         0.80145975
Sym=     5a  
Ene=     0.0570
Spin= Beta
Occup=    0.00000
   1        -0.00000000
   2         0.00000000
   3         0.44660825
   4        -0.05329214
   5        -0.00000000
   6         0.00000000
   7        -0.00000000
   8         0.76227640
   9        -0.09095968
  10        -0.00000000
Sym=     6a  
Ene=     0.0327
Spin= Alpha
Occup=    0.00000
   1        -0.00000000
   2        -0.00000000
   3        -0.33697528
   4         0.03353120
   5         0.00000000
   6        -0.00000000
   7        -0.00000000
   8        -0.84012315
   9         0.08359764
  10        -0.00000000
Sym=     6a  
Ene=     0.0570
Spin= Beta
Occup=    0.00000
   1         0.00000000
   2         0.00000000
   3         0.05329214
   4         0.44660825
   5        -0.00000000
   6         0.00000000
   7        -0.00000000
   8         0.09095968
   9         0.76227640
  10        -0.00000000
Sym=     7a  
Ene=     0.0327
Spin= Alpha
Occup=    0.00000
   1         0.00000000
   2         0.00000000
   3        -0.03353120
   4        -0.33697528
   5        -0.00000000
   6         0.00000000
   7         0.00000000
   8        -0.08359764
   9        -0.84012315
  10         0.00000000
Sym=     7a  
Ene=     0.1167
Spin= Beta
Occup=    0.00000
   1         0.05271982
   2         0.71169036
   3         0.00000000
   4         0.00000000
   5        -0.63796618
   6         0.02168979
   7        -0.05385060
   8        -0.00000000
   9        -0.00000000
  10         0.64069572
Sym=     8a  
Ene=     0.1333
Spin= Alpha
Occup=    0.00000
   1        -0.00000000
   2        -0.00000000
   3         0.28072285
   4        -0.95219373
   5        -0.00000000
   6         0.00000000
   7         0.00000000
   8        -0.17599945
   9         0.59697874
  10        -0.00000000
Sym=     8a  
Ene=     0.1572
Spin= Beta
Occup=    0.00000
   1        -0.00000000
   2        -0.00000000
   3         0.33823364
   4        -0.88512932
   5        -0.00000000
   6         0.00000000
   7         0.00000000
   8        -0.25512070
   9         0.66762965
  10        -0.00000000
Sym=     9a  
Ene=     0.1333
Spin= Alpha
Occup=    0.00000
   1         0.00000000
   2         0.00000000
   3        -0.95219373
   4        -0.28072285
   5         0.00000000
   6         0.00000000
   7         0.00000000
   8         0.59697874
   9         0.17599945
  10         0.00000000
Sym=     9a  
Ene=     0.1572
Spin= Beta
Occup=    0.00000
   1         0.00000000
   2         0.00000000
   3        -0.88512932
   4        -0.33823364
   5        -0.00000000
   6         0.00000000
   7         0.00000000
   8         0.66762965
   9         0.25512070
  10         0.00000000
Sym=    10a  
Ene=     0.2424
Spin= Alpha
Occup=    0.00000
   1         0.12797010
   2         1.14216898
   3         0.00000000
   4        -0.00000000
   5         0.96100440
   6        -0.10546018
   7        -0.93684036
   8        -0.00000000
   9         0.00000000
  10         1.11061140
Sym=    10a  
Ene=     0.2283
Spin= Beta
Occup=    0.00000
   1         0.13103298
   2         0.96802628
   3         0.00000000
   4        -0.00000000
   5         0.95133563
   6        -0.09744759
   7        -0.96854697
   8        -0.00000000
   9         0.00000000
  10         1.13342567
