[Molden Format]
[N_Atoms]
                     2
[Atoms] (AU)
BE1         1      4           0.00000000      0.00000000      0.00000000
LI2         2      3           0.00000000      0.00000000      5.10226054
[Charge] (Mulliken)
 -7.344175592439139E-002
  7.344175592437940E-002
[GTO] (AU)
   1
   s  14
  2.262859900E+04  8.443999941E-05
  3.372318100E+03  4.601499968E-04
  7.603504000E+02  2.285389984E-03
  2.117404800E+02  9.648129932E-03
  6.722346800E+01  3.494469975E-02
  2.337217700E+01  1.061099893E-01
  8.721373000E+00  2.458240383E-01
  3.468091000E+00  3.862428773E-01
  1.452144000E+00  3.105526078E-01
  6.086150000E-01  6.415933955E-02
  2.576860000E-01 -2.265049984E-03
  1.041760000E-01 -5.217499963E-04
  4.242700000E-02 -8.757499938E-04
  1.484900000E-02  1.242199991E-04
   s  14
  2.262859900E+04 -1.586999994E-05
  3.372318100E+03 -8.656999968E-05
  7.603504000E+02 -4.302199984E-04
  2.117404800E+02 -1.825079993E-03
  6.722346800E+01 -6.682749976E-03
  2.337217700E+01 -2.095119992E-02
  8.721373000E+00 -5.200308981E-02
  3.468091000E+00 -9.849176964E-02
  1.452144000E+00 -1.355800695E-01
  6.086150000E-01 -6.429875976E-02
  2.576860000E-01  3.125414989E-01
  1.041760000E-01  6.270468577E-01
  4.242700000E-02  2.110231492E-01
  1.484900000E-02 -4.104669985E-03
   p   9
  3.371018400E+01  1.069960000E-03
  8.057649500E+00  6.828550001E-03
  2.836471400E+00  2.119065000E-02
  1.099965700E+00  5.843696001E-02
  4.433964000E-01  2.020920800E-01
  1.822264000E-01  4.582953101E-01
  7.572410000E-02  3.691239601E-01
  3.168540000E-02  6.611471001E-02
  1.108990000E-02  1.405160000E-03
 
   2
   s  14
  9.497934400E+03  9.668999974E-05
  1.416811200E+03  6.087099984E-04
  3.214599400E+02  3.101519992E-03
  9.112416300E+01  1.266904997E-02
  2.999989100E+01  4.248012989E-02
  1.101763100E+01  1.150183297E-01
  4.372801000E+00  2.398650094E-01
  1.831256000E+00  3.584300090E-01
  8.022610000E-01  3.048527792E-01
  3.626480000E-01  8.824261976E-02
  1.139950000E-01 -8.445899977E-04
  5.123700000E-02 -7.943959979E-03
  2.246800000E-02 -3.764419990E-03
  7.860000000E-03 -8.868999976E-05
   s  14
  9.497934400E+03 -1.244999993E-05
  1.416811200E+03 -7.838999954E-05
  3.214599400E+02 -4.007099976E-04
  9.112416300E+01 -1.645249990E-03
  2.999989100E+01 -5.634599967E-03
  1.101763100E+01 -1.590780991E-02
  4.372801000E+00 -3.612581979E-02
  1.831256000E+00 -6.459927962E-02
  8.022610000E-01 -1.008321794E-01
  3.626480000E-01 -9.757613942E-02
  1.139950000E-01  2.301215886E-01
  5.123700000E-02  6.102389764E-01
  2.246800000E-02  2.849406083E-01
  7.860000000E-03  4.026899976E-03
   p   9
  1.311950400E+01  1.524940000E-03
  3.077424200E+00  8.314830000E-03
  1.098800500E+00  1.933203000E-02
  4.357784000E-01  4.934293000E-02
  1.802432000E-01  1.623554000E-01
  7.613330000E-02  3.847505400E-01
  3.254650000E-02  4.336100400E-01
  1.401820000E-02  1.287005900E-01
  4.906400000E-03 -1.018520000E-03
 
[MO]
Sym=     1a  
Ene=    -4.6726
Spin= Alpha
Occup=    1.00000
   1         0.99999545
   2         0.00272402
   3        -0.00000000
   4        -0.00000000
   5         0.00049806
   6        -0.00004630
   7         0.00015724
   8         0.00000000
   9         0.00000000
  10         0.00007796
Sym=     1a  
Ene=    -4.6726
Spin= Beta
Occup=    1.00000
   1         0.99999545
   2         0.00272402
   3        -0.00000000
   4        -0.00000000
   5         0.00049806
   6        -0.00004630
   7         0.00015724
   8         0.00000000
   9         0.00000000
  10         0.00007796
Sym=     2a  
Ene=    -2.4728
Spin= Alpha
Occup=    1.00000
   1         0.00014263
   2         0.00178247
   3        -0.00000000
   4        -0.00000000
   5         0.00081047
   6         0.99979734
   7         0.01197060
   8         0.00000000
   9         0.00000000
  10         0.00221594
Sym=     2a  
Ene=    -2.4728
Spin= Beta
Occup=    1.00000
   1         0.00014263
   2         0.00178247
   3        -0.00000000
   4        -0.00000000
   5         0.00081047
   6         0.99979734
   7         0.01197060
   8         0.00000000
   9         0.00000000
  10         0.00221594
Sym=     3a  
Ene=    -0.2803
Spin= Alpha
Occup=    1.00000
   1        -0.03075530
   2         0.66996619
   3         0.00000000
   4         0.00000000
   5         0.15947438
   6        -0.04272839
   7         0.37460972
   8         0.00000000
   9         0.00000000
  10        -0.15071069
Sym=     3a  
Ene=    -0.2803
Spin= Beta
Occup=    1.00000
   1        -0.03075530
   2         0.66996619
   3         0.00000000
   4         0.00000000
   5         0.15947438
   6        -0.04272839
   7         0.37460972
   8         0.00000000
   9         0.00000000
  10        -0.15071069
Sym=     4a  
Ene=    -0.0506
Spin= Alpha
Occup=    1.00000
   1        -0.02588364
   2        -0.65322189
   3         0.00000000
   4         0.00000000
   5         0.61491540
   6        -0.02820450
   7         0.52598201
   8        -0.00000000
   9        -0.00000000
  10        -0.04893051
Sym=     4a  
Ene=    -0.0506
Spin= Beta
Occup=    0.00000
   1        -0.02588364
   2        -0.65322189
   3         0.00000000
   4         0.00000000
   5         0.61491540
   6        -0.02820450
   7         0.52598201
   8        -0.00000000
   9        -0.00000000
  10        -0.04893051
Sym=     5a  
Ene=     0.0000
Spin= Alpha
Occup=    0.00000
   1         0.00000001
   2         0.00000003
   3         0.54169317
   4         0.41116020
   5        -0.00000006
   6         0.00000000
   7         0.00000009
   8         0.44298220
   9         0.33623582
  10         0.00000012
Sym=     5a  
Ene=     0.0000
Spin= Beta
Occup=    0.00000
   1         0.00000001
   2         0.00000003
   3         0.54169317
   4         0.41116020
   5        -0.00000006
   6         0.00000000
   7         0.00000009
   8         0.44298220
   9         0.33623582
  10         0.00000012
Sym=     6a  
Ene=     0.0424
Spin= Alpha
Occup=    0.00000
   1         0.03833266
   2         0.18403905
   3        -0.00000004
   4        -0.00000003
   5        -0.38942489
   6         0.01456960
   7         0.54351420
   8        -0.00000012
   9        -0.00000009
  10         0.77881697
Sym=     6a  
Ene=     0.0424
Spin= Beta
Occup=    0.00000
   1         0.03833266
   2         0.18403905
   3        -0.00000004
   4        -0.00000003
   5        -0.38942489
   6         0.01456960
   7         0.54351420
   8        -0.00000012
   9        -0.00000009
  10         0.77881697
Sym=     7a  
Ene=     0.0492
Spin= Alpha
Occup=    0.00000
   1        -0.00000000
   2        -0.00000000
   3        -0.16599975
   4         0.21870048
   5         0.00000000
   6        -0.00000000
   7        -0.00000000
   8        -0.53342451
   9         0.70277331
  10        -0.00000000
Sym=     7a  
Ene=     0.0492
Spin= Beta
Occup=    0.00000
   1        -0.00000000
   2        -0.00000000
   3        -0.16599975
   4         0.21870048
   5         0.00000000
   6        -0.00000000
   7        -0.00000000
   8        -0.53342451
   9         0.70277331
  10        -0.00000000
Sym=     8a  
Ene=     0.1461
Spin= Alpha
Occup=    0.00000
   1         0.00000000
   2         0.00000001
   3        -0.63606740
   4        -0.48279287
   5        -0.00000003
   6         0.00000000
   7         0.00000004
   8         0.70836432
   9         0.53766824
  10         0.00000006
Sym=     8a  
Ene=     0.1461
Spin= Beta
Occup=    0.00000
   1         0.00000000
   2         0.00000001
   3        -0.63606740
   4        -0.48279287
   5        -0.00000003
   6         0.00000000
   7         0.00000004
   8         0.70836432
   9         0.53766824
  10         0.00000006
Sym=     9a  
Ene=     0.1676
Spin= Alpha
Occup=    0.00000
   1         0.00000000
   2         0.00000000
   3         0.61203411
   4        -0.80633947
   5        -0.00000000
   6         0.00000000
   7        -0.00000000
   8        -0.34292850
   9         0.45179964
  10         0.00000000
Sym=     9a  
Ene=     0.1676
Spin= Beta
Occup=    0.00000
   1         0.00000000
   2         0.00000000
   3         0.61203411
   4        -0.80633947
   5        -0.00000000
   6         0.00000000
   7        -0.00000000
   8        -0.34292850
   9         0.45179964
  10         0.00000000
Sym=    10a  
Ene=     0.2485
Spin= Alpha
Occup=    0.00000
   1        -0.13121265
   2        -1.12965094
   3        -0.00000000
   4        -0.00000000
   5        -0.92563186
   6         0.10211754
   7         1.00526691
   8        -0.00000000
   9        -0.00000000
  10        -1.11812867
Sym=    10a  
Ene=     0.2485
Spin= Beta
Occup=    0.00000
   1        -0.13121265
   2        -1.12965094
   3        -0.00000000
   4        -0.00000000
   5        -0.92563186
   6         0.10211754
   7         1.00526691
   8        -0.00000000
   9        -0.00000000
  10        -1.11812867
