   This run of MOLCAS is using the pymolcas driver

                             OPE
                             OPE          NMOL  CASOP  ENMOLC A   SO
                 OPE        NMOLC        AS  OP EN  MO LC     AS  OP
                OPENM       OL CA        SO  PE NM  OL CA     SOP EN
                OP EN      MO   LC       AS  OP ENMOL  CASO   PENMOL
                OP  EN     MO   LC       AS  OP EN     MO     LC ASO
               OP   E  NMOL  C  AS       OP  EN MO     LC     AS  OP
               OP  E   NMO   LC AS        OPEN  MO     LCASOP EN   M
               O  PEN   MO  LCA  SO
            OPE   NMO   L   CAS    OP
        OPENMOL  CASOP     ENMOL   CASOPE
     OPENMOLCA   SOPENMOLCASOPEN   MOLCASOPE
    OPENMOLCAS   OP           EN   MOL    CAS
    OPENMOLCAS       OP  ENM        O     LCA
    OPENMOLCAS    OPEN  MOLCASO     P  E  NMO
    OPENMOLCAS     OP               E  N  MOL
    OPENMOLCA   SO           PENM   O  L  CAS    OPEN    MO    LCAS
    OPENMOLCA   SOP           ENM   O  L  CAS   OP  EN  MOLC  AS   O
    OPENMOLCA   SOPE           NM      O  LCA   S      OP  EN MO
    OPENMOLC                AS         O  PEN   M      OL  CA  SOPE
    OPENMO        LCASOPE  NMOL        C  ASO   P      ENMOLC     AS
    OPE     NMO      LCA  SO     P     E   NM   OL  CA SO  PE N   MO
          OPENMOLCA            SOPE   NMO        LCAS  O    P  ENMO
     OPENMOLCASOPENMOLCASOPENMOLCASOPENMOLCA
        OPENMOLCASOPENMOLCASOPENMOLCASOPE
            OPENMOLCASOPENMOLCASOPENM
               OPENMOLCASOPENMOLCA        version: ea724fe96-dirty
                   OPENMOLCASO
                       OPE                tag:

 OpenMolcas is free software; you can redistribute it and/or modify it
 under the terms of the GNU Lesser General Public License version 2.1.
 OpenMolcas is distributed in the hope that it will be useful, but it
 is provided "as is" and without any express or implied warranties.
 For more details see the full text of the license in the file
 LICENSE or in <http://www.gnu.org/licenses/>.

                 Copyright (C) The OpenMolcas Authors
           For the author list and the recommended citation,
                   consult the file CONTRIBUTORS.md

           *************************************************
           * pymolcas version py2.28                       *
           *   build c4a6d18ded8cb6cad61d2372a9abd97c      *
           *   (after the EMIL interpreter by V. Veryazov) *
           *************************************************

configuration info
------------------
C Compiler ID: Intel
C flags: -std=gnu99
Fortran Compiler ID: Intel
Fortran flags: -fpp -i8 -r8 -heap-arrays
Definitions: _MOLCAS_;_I8_;_LINUX_
Parallel: OFF (GA=OFF)


   -------------------------------------------------------------------------------
  |
  |              Project: 4.25
  |       Submitted from: /home/grierjones/DDCASPT2/iron_oxo_DDCASPT2/cluster/4.25
  |         Scratch area: /tmp/4.25
  |      Save outputs to: /home/grierjones/DDCASPT2/iron_oxo_DDCASPT2/cluster/4.25
  |               Molcas: /home/grierjones/Test/build
  |
  | Scratch area is empty
  |
  |       MOLCAS_DRIVER = /usr/local/pymolcas
  | MOLCAS_KEEP_WORKDIR = NO
  |  MOLCAS_NEW_WORKDIR = YES
  |       MOLCAS_NPROCS = 1
  |        MOLCAS_PRINT = NORMAL
  |       MOLCAS_SOURCE = /home/grierjones/Test/build
  |    MOLCAS_STRUCTURE = 0
  |
   -------------------------------------------------------------------------------

++ ---------   Input file   ---------

&GATEWAY
coord=4.25.xyz
Basis = ANO-RCC-VDZP
Group = nosymm
Expert
End of Input

&SEWARD
End of Input

&SCF
UHF
charge
2
spin
5

>>> COPY $WorkDir/4.25.scf.h5 $CurrDir/

&RASSCF
Title= RASSCF
FileOrb
/home/grierjones/DDCASPT2/iron_oxo_DDCASPT2/cluster/4.23/4.23.RasOrb
NACTEL
10 0 0
RAS2
14
Symmetry
1
Spin
5
charge
2
orblisting
all
ITERation
300 200

>>> COPY $WorkDir/4.25.rasscf.h5 $CurrDir/

>>> COPY $WorkDir/GMJ_Fock_MO.csv $CurrDir/4.25.GMJ_Fock_MO.csv

>>> COPY $WorkDir/GMJ_PT2_Fock_MO.csv $CurrDir/4.25.GMJ_PT2_Fock_MO.csv

&MOTRA
Frozen=0
LUMORB

>>> COPY $WorkDir/GMJ_one_int_indx.csv $CurrDir/4.25.GMJ_one_int_indx.csv

>>> COPY $WorkDir/GMJ_one_int.csv $CurrDir/4.25.GMJ_one_int.csv

>>> COPY $WorkDir/GMJ_two_int_indx.csv $CurrDir/4.25.GMJ_two_int_indx.csv

>>> COPY $WorkDir/GMJ_two_int.csv $CurrDir/4.25.GMJ_two_int.csv

&CASPT2
Frozen
0
MAXITER
50

>>> FOREACH i IN (B,E,F,G,H)

  >>> FOREACH j IN (P,M)

    >>> IF (-FILE GMJ_e2_${i}_${j}.csv)

      >>> COPY $WorkDir/GMJ_RHS_${i}_${j}.csv $CurrDir/GMJ_RHS_${i}_${j}.csv

      >>> COPY $WorkDir/GMJ_IVECW_${i}_${j}.csv $CurrDir/GMJ_IVECW_${i}_${j}.csv

      >>> COPY $WorkDir/GMJ_IVECX_${i}_${j}.csv $CurrDir/GMJ_IVECX_${i}_${j}.csv

      >>> COPY $WorkDir/GMJ_IVECC2_${i}_${j}.csv $CurrDir/GMJ_IVECC2_${i}_${j}.csv

      >>> COPY $WorkDir/GMJ_e2_${i}_${j}.csv $CurrDir/GMJ_e2_${i}_${j}.csv

    >>> END IF

  >>> END FOREACH

>>> END FOREACH

>>> FOREACH i IN (A,C,D)

  >>> IF (-FILE GMJ_e2_$i.csv)

    >>> COPY $WorkDir/GMJ_RHS_$i.csv $CurrDir/GMJ_RHS_$i.csv

    >>> COPY $WorkDir/GMJ_IVECW_$i.csv $CurrDir/GMJ_IVECW_$i.csv

    >>> COPY $WorkDir/GMJ_IVECX_$i.csv $CurrDir/GMJ_IVECX_$i.csv

    >>> COPY $WorkDir/GMJ_IVECC2_$i.csv $CurrDir/GMJ_IVECC2_$i.csv

    >>> COPY $WorkDir/GMJ_e2_$i.csv $CurrDir/GMJ_e2_$i.csv

  >>> END IF

>>> END FOREACH

-- ----------------------------------

--- Start Module: gateway at Wed Dec 18 01:04:08 2024 ---
 
()()()()()()()()()()()()()()()()()()()()()()()()()()()()()()()()()()()()()()()()()()()()()()()()()()

                                              &GATEWAY

                                   only a single process is used
                       available to each process: 2.0 GB of memory, 1 thread?
()()()()()()()()()()()()()()()()()()()()()()()()()()()()()()()()()()()()()()()()()()()()()()()()()()
 
 ###############################################################################
 ###############################################################################
 ###                                                                         ###
 ###                                                                         ###
 ###                                                                         ###
 ###    WARNING: EXPERT option is ON!                                        ###
 ###                                                                         ###
 ###                                                                         ###
 ###############################################################################
 ###############################################################################
 
++    Symmetry information:
      ---------------------
 
                    Character Table for C1 
 
                             E  
                    a        1  x, y, xy, Rz, z, xz, Ry, yz, Rx, I
--
 
 
++    Basis set information:
      ----------------------
 
 
      Basis set label: O.ANO-RCC...3S2P1D.
 
      Electronic valence basis set:
      ------------------
      Associated Effective Charge   8.000000 au
      Associated Actual Charge      8.000000 au
      Nuclear Model: Point charge
 
      Shell  nPrim  nBasis  Cartesian Spherical Contaminant
         s      14       3        X                  
         p       9       2        X                  
         d       4       1                 X         
 
 
      Basis set label: FE.ANO-RCC...5S4P2D1F.
 
      Electronic valence basis set:
      ------------------
      Associated Effective Charge  26.000000 au
      Associated Actual Charge     26.000000 au
      Nuclear Model: Point charge
 
      Shell  nPrim  nBasis  Cartesian Spherical Contaminant
         s      21       5        X                  
         p      15       4        X                  
         d      10       2                 X         
         f       6       1                 X         
--
 
 
++    Molecular structure info:
      -------------------------
 
                    ************************************************ 
                    **** Cartesian Coordinates / Bohr, Angstrom **** 
                    ************************************************ 
 
     Center  Label                x              y              z                     x              y              z
        1      O1               0.000000       0.000000       5.529830              0.000000       0.000000       2.926260
        2      FE2              0.000000       0.000000      -2.506268              0.000000       0.000000      -1.326260
--
 
 
            Nuclear Potential Energy             25.88320803 au
 
 ###############################################################################
 ###############################################################################
 ###                                                                         ###
 ###                                                                         ###
 ###    There were warnings during the execution                             ###
 ###    Please, check the output with care!                                  ###
 ###                                                                         ###
 ###                                                                         ###
 ###############################################################################
 ###############################################################################
--- Stop Module: gateway at Wed Dec 18 01:04:08 2024 /rc=_RC_ALL_IS_WELL_ ---
*** files: xmldump
    saved to directory /home/grierjones/DDCASPT2/iron_oxo_DDCASPT2/cluster/4.25

--- Start Module: seward at Wed Dec 18 01:04:08 2024 ---
 
()()()()()()()()()()()()()()()()()()()()()()()()()()()()()()()()()()()()()()()()()()()()()()()()()()

                                              &SEWARD

                                   only a single process is used
                       available to each process: 2.0 GB of memory, 1 thread?
()()()()()()()()()()()()()()()()()()()()()()()()()()()()()()()()()()()()()()()()()()()()()()()()()()
 
 ###############################################################################
 ###############################################################################
 ###                                                                         ###
 ###                                                                         ###
 ###                                                                         ###
 ###    WARNING: EXPERT option is ON!                                        ###
 ###                                                                         ###
 ###                                                                         ###
 ###############################################################################
 ###############################################################################
               SEWARD will generate:
                  Multipole Moment integrals up to order  2
                  Kinetic Energy integrals
                  Nuclear Attraction integrals (point charge)
                  One-Electron Hamiltonian integrals
                  Velocity integrals
                  Relativistic Douglas-Kroll-Hess integrals:
                    - Parametrization         : EXP
                    - DKH order of Hamiltonian: 2
                    - DKH order of Properties : 0
                         - multipole moment operators
                         - electric potential operators
                         - contact operators
                  Atomic mean-field integrals
                  Two-Electron Repulsion integrals
 
                   Integrals are discarded if absolute value <: 0.10E-13
                   Integral cutoff threshold is set to       <: 0.10E-15
 
            Nuclear Potential Energy             25.88320803 au
 
 
      Basis set specifications :
      Symmetry species         a  
      Basis functions           48
 
 
  Input file to MOLDEN was generated!
 
 ###############################################################################
 ###############################################################################
 ###                                                                         ###
 ###                                                                         ###
 ###    There were warnings during the execution                             ###
 ###    Please, check the output with care!                                  ###
 ###                                                                         ###
 ###                                                                         ###
 ###############################################################################
 ###############################################################################
--- Stop Module: seward at Wed Dec 18 01:04:09 2024 /rc=_RC_ALL_IS_WELL_ ---
*** files: 4.25.GssOrb 4.25.guessorb.h5 4.25.guessorb.molden xmldump
    saved to directory /home/grierjones/DDCASPT2/iron_oxo_DDCASPT2/cluster/4.25

*** symbolic link created: INPORB -> 4.25.GssOrb
--- Start Module: scf at Wed Dec 18 01:04:09 2024 ---
 
()()()()()()()()()()()()()()()()()()()()()()()()()()()()()()()()()()()()()()()()()()()()()()()()()()

                                                &SCF

                                   only a single process is used
                       available to each process: 2.0 GB of memory, 1 thread?
()()()()()()()()()()()()()()()()()()()()()()()()()()()()()()()()()()()()()()()()()()()()()()()()()()
 
 *** Possible bug in opening file
 *** isFreeUnit resets the unit number
++    Input section:
      --------------
 
      Header of the integral files:
      
       Integrals generated by seward 4.2.0  , Wed Dec 18 01:04:08 2024
 
 
      Cartesian coordinates in Angstrom:
      -----------------------------------------------------
      No.  Label        X            Y            Z        
      -----------------------------------------------------
       1   O1         0.00000000   0.00000000   2.92626000
       2   FE2        0.00000000   0.00000000  -1.32626000
      -----------------------------------------------------
      Nuclear repulsion energy =   25.88320803
--
 
++    Orbital specifications:
      -----------------------
 
      Symmetry species               1
                                     a
      Frozen orbitals                0
      Start temperature = 0.500
      End temperature   = 0.010
      Temperature Factor= 0.460
      Deleted orbitals               0
      Total number of orbitals      48
      Number of basis functions     48
--
 
      Molecular charge                           2.000
 
++    Optimization specifications:
      ----------------------------
 
      SCF Algorithm: Conventional USCF
      D(i)-D(i-1) density differences are used
      Number of density matrices in core                5
      Maximum number of NDDO SCF iterations           400
      Maximum number of HF SCF iterations             400
      Threshold for SCF energy change            0.10E-08
      Threshold for density matrix               0.10E-03
      Threshold for Fock matrix                  0.15E-03
      Threshold for linear dependence            0.10E-08
      Threshold at which DIIS is turned on       0.15E+00
      Threshold at which QNR/C2DIIS is turned on 0.75E-01
      Threshold for Norm(delta) (QNR/C2DIIS)     0.20E-04
      DIIS extrapolation of the SCF procedure
      All orbitals punched on: UHFORB
--
 
      Input vectors read from INPORB
      Orbital file label: *Guess orbitals
 
 
++ Convergence information
                               UHF SCF        iterations: Energy and convergence statistics
 
Iter     Tot. SCF        One-elec.       Two-elec.     Energy      Max Dij or  Max Fij      DNorm      TNorm      AccCon     Time
         Energy          Energy          Energy        Change      Delta Norm                                                in Sec.
 
 The total and one-electron energies are shifted by a value of      1000. a.u.
 
   1  -343.278776561  -884.772125235   515.610140643   0.00E+00    0.16E+00*   0.37E+00*    0.75E+01   0.18E+03   None         0.
   2  -343.462236847  -880.560100649   511.214655770  -0.18E+00*   0.11E+00*   0.19E+00*    0.10E+01   0.18E+03   EDIIS        0.
   3  -341.625779855  -928.568411828   561.059423941   0.18E+01*   0.58E-01*   0.18E+00*    0.18E+01   0.19E+03   EDIIS        0.
   4  -343.002801395  -869.615854400   500.729844974  -0.14E+01*   0.13E+00*   0.97E-01*    0.15E+01   0.18E+03   EDIIS        0.
   5  -344.083881866  -902.109936903   532.142847005  -0.11E+01*   0.66E-01*   0.69E-01*    0.85E+00   0.18E+03   EDIIS        0.
   6  -344.269045202  -875.386464106   505.234210872  -0.19E+00*   0.47E+00*   0.20E+00*    0.18E+01   0.18E+03   EDIIS        0.
   7  -341.976356910  -918.592044236   550.732479294   0.23E+01*   0.11E+00*   0.36E-01*    0.28E+01   0.19E+03   EDIIS        0.
   8  -345.242001577  -882.689418499   511.564208891  -0.33E+01*   0.29E+00*   0.11E+00*    0.17E+01   0.18E+03   EDIIS        0.
   9  -345.290545772  -886.231377883   515.057624079  -0.49E-01*   0.13E+00*   0.65E-01*    0.64E+00   0.18E+03   EDIIS        0.
  10  -345.299725936  -884.912013542   513.729079574  -0.92E-02*   0.88E-01*   0.14E-01*    0.28E+00   0.18E+03   EDIIS        0.
 
       Fermi aufbau procedure completed!
      nOcc(alpha)=   18
      nOcc(beta) =   14
 
  11  -345.302026684  -885.369721267   514.184486551  -0.23E-02*   0.41E-01*   0.13E-01*    0.15E+00   0.18E+03   EDIIS        0.
  12  -345.302751074  -885.195772580   514.009813474  -0.72E-03*   0.22E-01*   0.68E-02*    0.79E-01   0.18E+03   EDIIS        0.
  13  -345.302999732  -885.258046898   514.071839134  -0.25E-03*   0.11E-01*   0.45E-02*    0.43E-01   0.18E+03   EDIIS        0.
  14  -345.303090230  -885.233600476   514.047302215  -0.90E-04*   0.58E-02*   0.27E-02*    0.25E-01   0.18E+03   EDIIS        0.
  15  -345.303124348  -885.242266432   514.055934052  -0.34E-04*   0.12E-02*   0.42E-02*    0.15E-01   0.18E+03   c2DIIS       0.
  16  -345.303145726  -885.233384535   514.047030777  -0.21E-04*   0.95E-03*   0.18E-03*    0.28E-02   0.18E+03   QNRc2DIIS    0.
  17  -345.303145910  -885.241735523   514.055381581  -0.18E-06*   0.75E-03*   0.83E-04     0.13E-02   0.18E+03   QNRc2DIIS    0.
  18  -345.303145975  -885.240540771   514.054186764  -0.64E-07*   0.39E-03*   0.42E-04     0.10E-02   0.18E+03   QNRc2DIIS    0.
  19  -345.303145987  -885.239446861   514.053092843  -0.12E-07*   0.12E-03*   0.90E-05     0.51E-03   0.18E+03   QNRc2DIIS    0.
  20  -345.303145987  -885.239479593   514.053125574  -0.78E-09    0.57E-05    0.20E-05     0.17E-03   0.18E+03   QNRc2DIIS    0.
 
       Convergence after 20 Macro Iterations
--
 
 *****************************************************************************************************************************
 *                                                                                                                           *
 *                                             SCF/KS-DFT Program, Final results                                             *
 *                                                                                                                           *
 *                                                                                                                           *
 *                                                                                                                           *
 *                                                       Final Results                                                       *
 *                                                                                                                           *
 *****************************************************************************************************************************
 
::    Total SCF energy                              -1345.3031459874
      One-electron energy                           -1885.2394795935
      Two-electron energy                             514.0531255743
      Nuclear repulsion energy                         25.8832080318
      Kinetic energy (interpolated)                  1399.7906243070
      Virial theorem                                    0.9610745512
      Total spin, S(S+1)                                8.0117247189
      Total spin, S                                     2.3743216102
      Max non-diagonal density matrix element           0.0000026419
      Max non-diagonal Fock matrix element              0.0000004212
 
 
      All orbitals with orbital energies smaller than  E(LUMO)+0.5 are printed
 
++    Molecular orbitals:
      -------------------
 
      Title: UHF orbitals (alpha)

      Molecular orbitals for symmetry species 1: a  
 
          Orbital            1         2         3         4         5         6         7         8         9        10    
          Energy         -264.6140  -33.4916  -28.5554  -28.5554  -28.5554  -20.8895   -5.4398   -3.9797   -3.9797   -3.9797
          Occ. No.          1.0000    1.0000    1.0000    1.0000    1.0000    1.0000    1.0000    1.0000    1.0000    1.0000
 
        1 O1     1s        -0.0000   -0.0000   -0.0000   -0.0000    0.0000    1.0000   -0.0000   -0.0000   -0.0000   -0.0000
        2 O1     2s        -0.0000   -0.0000   -0.0001   -0.0000    0.0000   -0.0022   -0.0005   -0.0000   -0.0000   -0.0002
        3 O1     3s         0.0000   -0.0000   -0.0001   -0.0000    0.0000    0.0004   -0.0006   -0.0000   -0.0000   -0.0002
        4 O1     2px       -0.0000   -0.0000   -0.0000    0.0000   -0.0000    0.0000   -0.0000   -0.0000    0.0000    0.0000
        5 O1     3px        0.0000    0.0000   -0.0000    0.0000   -0.0001   -0.0000    0.0000   -0.0001    0.0000   -0.0000
        6 O1     2py        0.0000   -0.0000    0.0000   -0.0000   -0.0000   -0.0000    0.0000   -0.0000   -0.0000    0.0000
        7 O1     3py        0.0000   -0.0000    0.0000   -0.0001   -0.0000    0.0000    0.0000   -0.0000   -0.0001    0.0000
        8 O1     2pz       -0.0000    0.0000    0.0000    0.0000   -0.0000   -0.0001    0.0002   -0.0000   -0.0000    0.0000
        9 O1     3pz       -0.0000    0.0000    0.0001    0.0000   -0.0000    0.0000    0.0002    0.0000   -0.0000   -0.0001
       10 O1     3d2-       0.0000    0.0000   -0.0000   -0.0000    0.0000    0.0000   -0.0000   -0.0000    0.0000   -0.0000
       11 O1     3d1-       0.0000   -0.0000   -0.0000    0.0000    0.0000    0.0000    0.0000    0.0000    0.0000    0.0000
       12 O1     3d0        0.0000   -0.0000   -0.0000   -0.0000    0.0000    0.0009    0.0000    0.0000    0.0000    0.0000
       13 O1     3d1+      -0.0000    0.0000    0.0000   -0.0000    0.0000    0.0000   -0.0000    0.0000   -0.0000   -0.0000
       14 O1     3d2+      -0.0000   -0.0000    0.0000    0.0000    0.0000    0.0000    0.0000   -0.0000    0.0000    0.0000
       15 FE2    1s         1.0000   -0.0000   -0.0000   -0.0000    0.0000   -0.0000    0.0000   -0.0000    0.0000   -0.0000
       16 FE2    2s         0.0000    1.0000   -0.0000   -0.0000   -0.0000   -0.0000   -0.0035    0.0000   -0.0000   -0.0000
       17 FE2    3s        -0.0000    0.0035    0.0000    0.0000   -0.0000   -0.0000    0.9999   -0.0000    0.0000   -0.0001
       18 FE2    4s         0.0000   -0.0003    0.0000    0.0000   -0.0000   -0.0001   -0.0076    0.0000    0.0000   -0.0000
       19 FE2    5s        -0.0000    0.0004    0.0000    0.0000   -0.0000   -0.0001    0.0083    0.0000   -0.0000    0.0000
       20 FE2    2px       -0.0000    0.0000    0.0000   -0.0364    0.9993   -0.0000    0.0000   -0.0034    0.0006    0.0000
       21 FE2    3px        0.0000   -0.0000    0.0000   -0.0001    0.0035    0.0000    0.0000    0.9848   -0.1718   -0.0000
       22 FE2    4px       -0.0000    0.0000   -0.0000    0.0000   -0.0006    0.0000   -0.0000   -0.0189    0.0033    0.0000
       23 FE2    5px        0.0000   -0.0000    0.0000   -0.0001    0.0015    0.0000    0.0000    0.0179   -0.0031   -0.0000
       24 FE2    2py        0.0000   -0.0000   -0.0000    0.9993    0.0364   -0.0000   -0.0000   -0.0006   -0.0034    0.0000
       25 FE2    3py       -0.0000    0.0000   -0.0000    0.0035    0.0001   -0.0000   -0.0000    0.1718    0.9848   -0.0000
       26 FE2    4py       -0.0000    0.0000    0.0000   -0.0006   -0.0000    0.0000    0.0000   -0.0033   -0.0189    0.0000
       27 FE2    5py       -0.0000   -0.0000   -0.0000    0.0015    0.0001    0.0000   -0.0000    0.0031    0.0179   -0.0000
       28 FE2    2pz        0.0000    0.0000    1.0000    0.0000   -0.0000    0.0000   -0.0000   -0.0000   -0.0000   -0.0035
       29 FE2    3pz       -0.0000    0.0000    0.0035    0.0000   -0.0000   -0.0000    0.0001    0.0000    0.0000    0.9996
       30 FE2    4pz       -0.0000    0.0000   -0.0006   -0.0000    0.0000   -0.0001    0.0001   -0.0000   -0.0000   -0.0192
       31 FE2    5pz       -0.0000    0.0000    0.0015    0.0000   -0.0000   -0.0001    0.0001    0.0000    0.0000    0.0182
       32 FE2    3d2-       0.0000   -0.0000   -0.0000   -0.0000    0.0000   -0.0000    0.0000   -0.0000   -0.0000   -0.0000
       33 FE2    4d2-       0.0000   -0.0000   -0.0000   -0.0000   -0.0000    0.0000   -0.0000   -0.0000    0.0000    0.0000
       34 FE2    3d1-       0.0000    0.0000   -0.0000    0.0000    0.0000   -0.0000   -0.0000    0.0000    0.0001   -0.0000
       35 FE2    4d1-       0.0000   -0.0000   -0.0000    0.0000    0.0000    0.0000    0.0000   -0.0000   -0.0000    0.0000
       36 FE2    3d0       -0.0000    0.0000    0.0000    0.0000   -0.0000   -0.0000   -0.0000    0.0000    0.0000    0.0001
       37 FE2    4d0       -0.0000    0.0000    0.0000    0.0000   -0.0000   -0.0001    0.0001   -0.0000   -0.0000   -0.0000
       38 FE2    3d1+      -0.0000   -0.0000    0.0000   -0.0000    0.0000    0.0000    0.0000    0.0001   -0.0000   -0.0000
       39 FE2    4d1+       0.0000   -0.0000    0.0000   -0.0000    0.0000    0.0000   -0.0000   -0.0000    0.0000    0.0000
       40 FE2    3d2+      -0.0000    0.0000   -0.0000   -0.0000   -0.0000    0.0000   -0.0000   -0.0000    0.0000    0.0000
       41 FE2    4d2+       0.0000    0.0000    0.0000    0.0000    0.0000   -0.0000    0.0000   -0.0000   -0.0000    0.0000
       42 FE2    4f3-       0.0000   -0.0000   -0.0000    0.0000    0.0000   -0.0000   -0.0000    0.0000   -0.0000    0.0000
       43 FE2    4f2-      -0.0000    0.0000    0.0000    0.0000   -0.0000   -0.0000   -0.0000    0.0000    0.0000    0.0000
       44 FE2    4f1-       0.0000    0.0000   -0.0000    0.0000    0.0000   -0.0000   -0.0000   -0.0000   -0.0000    0.0000
       45 FE2    4f0       -0.0000    0.0000    0.0000    0.0000    0.0000   -0.0000    0.0000   -0.0000    0.0000   -0.0000
       46 FE2    4f1+       0.0000   -0.0000    0.0000   -0.0000    0.0000    0.0000    0.0000   -0.0000    0.0000    0.0000
       47 FE2    4f2+       0.0000    0.0000    0.0000    0.0000   -0.0000   -0.0000    0.0000    0.0000   -0.0000    0.0000
       48 FE2    4f3+      -0.0000    0.0000    0.0000   -0.0000    0.0000    0.0000   -0.0000   -0.0000   -0.0000   -0.0000
 
          Orbital           11        12        13        14        15        16        17        18        19        20    
          Energy           -1.6604   -1.6604   -1.6604   -1.6604   -1.6604   -1.3323   -0.9483   -0.7707   -0.4803   -0.4803
          Occ. No.          1.0000    1.0000    1.0000    1.0000    1.0000    1.0000    1.0000    1.0000    0.0000    0.0000
 
        1 O1     1s         0.0000    0.0000    0.0001   -0.0000    0.0000    0.0021    0.0009    0.0004   -0.0000   -0.0000
        2 O1     2s         0.0000    0.0000    0.0018   -0.0000    0.0000    0.9990    0.0002    0.0274   -0.0000   -0.0000
        3 O1     3s         0.0000    0.0000    0.0011   -0.0000    0.0000    0.0223    0.0078   -0.0143   -0.0000   -0.0000
        4 O1     2px       -0.0000    0.0000    0.0000    0.0004   -0.0000    0.0000   -0.0000    0.0000   -0.0002    0.0001
        5 O1     3px       -0.0000    0.0000    0.0000    0.0008   -0.0000   -0.0000   -0.0000    0.0000   -0.0051    0.0022
        6 O1     2py        0.0000   -0.0000   -0.0000    0.0000    0.0004    0.0000   -0.0000    0.0000   -0.0001   -0.0002
        7 O1     3py        0.0000   -0.0000   -0.0000    0.0000    0.0008   -0.0000   -0.0000    0.0000   -0.0022   -0.0051
        8 O1     2pz       -0.0000   -0.0000   -0.0011    0.0000   -0.0000   -0.0232   -0.0271    0.9930    0.0000    0.0000
        9 O1     3pz       -0.0000   -0.0000   -0.0004    0.0000   -0.0000   -0.0090   -0.0021    0.0515    0.0000    0.0000
       10 O1     3d2-      -0.0000    0.0000   -0.0000   -0.0000    0.0000    0.0000    0.0000   -0.0000   -0.0000    0.0000
       11 O1     3d1-      -0.0000    0.0000    0.0000   -0.0000   -0.0001    0.0000   -0.0000   -0.0000   -0.0000   -0.0001
       12 O1     3d0        0.0000    0.0000    0.0001   -0.0000    0.0000    0.0301   -0.0001   -0.0076    0.0000   -0.0000
       13 O1     3d1+      -0.0000   -0.0000   -0.0000   -0.0001    0.0000    0.0000   -0.0000   -0.0000   -0.0001    0.0000
       14 O1     3d2+       0.0000    0.0000   -0.0000   -0.0000   -0.0000    0.0000    0.0000   -0.0000    0.0000    0.0000
       15 FE2    1s        -0.0000   -0.0000   -0.0000    0.0000   -0.0000   -0.0000   -0.0000    0.0001    0.0000    0.0000
       16 FE2    2s        -0.0000    0.0000   -0.0000    0.0000   -0.0000   -0.0000    0.0004    0.0005    0.0000    0.0000
       17 FE2    3s         0.0000   -0.0000    0.0000   -0.0000    0.0000   -0.0002    0.0101    0.0027    0.0000    0.0000
       18 FE2    4s        -0.0000   -0.0000   -0.0003    0.0000   -0.0000    0.0019    0.9271    0.0427    0.0000    0.0000
       19 FE2    5s        -0.0000   -0.0000   -0.0003    0.0000   -0.0000   -0.0016   -0.3715   -0.0227    0.0000    0.0000
       20 FE2    2px        0.0000   -0.0000   -0.0000   -0.0000    0.0000    0.0000   -0.0000   -0.0000    0.0005   -0.0002
       21 FE2    3px        0.0000   -0.0000   -0.0000   -0.0001    0.0000   -0.0000    0.0000    0.0000    0.0171   -0.0073
       22 FE2    4px       -0.0000   -0.0000   -0.0000   -0.0003    0.0000   -0.0000    0.0000    0.0000    0.9201   -0.3907
       23 FE2    5px       -0.0000   -0.0000   -0.0000   -0.0000    0.0000    0.0000   -0.0000   -0.0000    0.0300   -0.0128
       24 FE2    2py        0.0000    0.0000   -0.0000   -0.0000   -0.0000    0.0000    0.0000   -0.0000    0.0002    0.0005
       25 FE2    3py       -0.0000    0.0000    0.0000   -0.0000   -0.0001   -0.0000   -0.0000    0.0000    0.0073    0.0171
       26 FE2    4py       -0.0000    0.0000    0.0000   -0.0000   -0.0003   -0.0000    0.0000    0.0000    0.3907    0.9201
       27 FE2    5py        0.0000    0.0000    0.0000   -0.0000   -0.0000   -0.0000    0.0000   -0.0000    0.0128    0.0300
       28 FE2    2pz       -0.0000    0.0000   -0.0000    0.0000   -0.0000   -0.0000   -0.0000    0.0000    0.0000    0.0000
       29 FE2    3pz       -0.0000    0.0000   -0.0001    0.0000   -0.0000   -0.0002   -0.0002    0.0006    0.0000    0.0000
       30 FE2    4pz       -0.0000   -0.0000   -0.0007    0.0000   -0.0000    0.0015   -0.0095   -0.0473    0.0000    0.0000
       31 FE2    5pz       -0.0000    0.0000   -0.0001    0.0000   -0.0000   -0.0000   -0.0004   -0.0022    0.0000    0.0000
       32 FE2    3d2-      -0.0278    0.9903    0.0000   -0.0000    0.0000    0.0000    0.0000    0.0000   -0.0000    0.0000
       33 FE2    4d2-       0.0038   -0.1362   -0.0000    0.0000   -0.0000   -0.0000    0.0000    0.0000    0.0000   -0.0000
       34 FE2    3d1-       0.0000   -0.0000   -0.0000    0.0016    0.9907    0.0000   -0.0000   -0.0000    0.0000    0.0001
       35 FE2    4d1-      -0.0000    0.0000    0.0000   -0.0002   -0.1364   -0.0000    0.0000    0.0000   -0.0004   -0.0009
       36 FE2    3d0        0.0000    0.0000    0.9906   -0.0000    0.0000   -0.0009   -0.0001    0.0015    0.0000    0.0000
       37 FE2    4d0       -0.0000   -0.0000   -0.1366    0.0000   -0.0000    0.0009   -0.0011   -0.0077   -0.0000   -0.0000
       38 FE2    3d1+      -0.0000    0.0000    0.0000    0.9907   -0.0016   -0.0000   -0.0000   -0.0000    0.0001   -0.0000
       39 FE2    4d1+       0.0000   -0.0000   -0.0000   -0.1364    0.0002   -0.0000    0.0000    0.0000   -0.0009    0.0004
       40 FE2    3d2+       0.9903    0.0278   -0.0000   -0.0000   -0.0000   -0.0000   -0.0000    0.0000    0.0000    0.0000
       41 FE2    4d2+      -0.1362   -0.0038    0.0000    0.0000    0.0000    0.0000   -0.0000    0.0000   -0.0000   -0.0000
       42 FE2    4f3-       0.0000   -0.0000    0.0000   -0.0000    0.0000    0.0000    0.0000   -0.0000    0.0000    0.0000
       43 FE2    4f2-      -0.0000    0.0000    0.0000   -0.0000    0.0000    0.0000    0.0000    0.0000    0.0000   -0.0000
       44 FE2    4f1-       0.0000   -0.0000   -0.0000    0.0000    0.0000   -0.0000    0.0000    0.0000   -0.0000   -0.0000
       45 FE2    4f0        0.0000    0.0000    0.0000   -0.0000    0.0000    0.0001   -0.0000   -0.0003   -0.0000   -0.0000
       46 FE2    4f1+       0.0000    0.0000    0.0000    0.0000   -0.0000   -0.0000   -0.0000    0.0000   -0.0000    0.0000
       47 FE2    4f2+       0.0000    0.0000   -0.0000   -0.0000   -0.0000   -0.0000   -0.0000   -0.0000   -0.0000   -0.0000
       48 FE2    4f3+      -0.0000   -0.0000    0.0000    0.0000   -0.0000   -0.0000    0.0000    0.0000    0.0000    0.0000
 
          Orbital           21        22        23        24    
          Energy           -0.4783   -0.2450   -0.1609   -0.1609
          Occ. No.          0.0000    0.0000    0.0000    0.0000
 
        1 O1     1s        -0.0034   -0.0082    0.0000    0.0000
        2 O1     2s        -0.0484   -0.0952   -0.0000   -0.0000
        3 O1     3s        -0.0164   -0.0251    0.0000    0.0000
        4 O1     2px        0.0000    0.0000    0.6448   -0.6916
        5 O1     3px        0.0000    0.0000    0.2198   -0.2358
        6 O1     2py        0.0000    0.0000    0.6916    0.6448
        7 O1     3py        0.0000    0.0000    0.2358    0.2198
        8 O1     2pz        0.1126    0.0822   -0.0000   -0.0000
        9 O1     3pz        0.0225    0.0230   -0.0000   -0.0000
       10 O1     3d2-      -0.0000   -0.0000   -0.0000    0.0000
       11 O1     3d1-      -0.0000   -0.0000   -0.0053   -0.0050
       12 O1     3d0       -0.0003   -0.0006    0.0000    0.0000
       13 O1     3d1+      -0.0000   -0.0000   -0.0050    0.0053
       14 O1     3d2+      -0.0000   -0.0000   -0.0000    0.0000
       15 FE2    1s         0.0000    0.0000   -0.0000   -0.0000
       16 FE2    2s         0.0001   -0.0001   -0.0000   -0.0000
       17 FE2    3s         0.0007   -0.0042   -0.0000   -0.0000
       18 FE2    4s         0.0139    0.3796   -0.0000   -0.0000
       19 FE2    5s        -0.0033    0.9402   -0.0000   -0.0000
       20 FE2    2px       -0.0000   -0.0000   -0.0000    0.0000
       21 FE2    3px       -0.0000   -0.0000   -0.0009    0.0010
       22 FE2    4px       -0.0000   -0.0000   -0.0214    0.0230
       23 FE2    5px       -0.0000    0.0000    0.0020   -0.0022
       24 FE2    2py       -0.0000   -0.0000   -0.0000   -0.0000
       25 FE2    3py       -0.0000   -0.0000   -0.0010   -0.0009
       26 FE2    4py       -0.0000   -0.0000   -0.0230   -0.0214
       27 FE2    5py       -0.0000    0.0000    0.0022    0.0020
       28 FE2    2pz        0.0005    0.0000   -0.0000   -0.0000
       29 FE2    3pz        0.0191    0.0007   -0.0000   -0.0000
       30 FE2    4pz        1.0057    0.0177   -0.0000   -0.0000
       31 FE2    5pz        0.0328   -0.0010    0.0000    0.0000
       32 FE2    3d2-       0.0000    0.0000    0.0000   -0.0000
       33 FE2    4d2-       0.0000   -0.0000    0.0000   -0.0000
       34 FE2    3d1-      -0.0000    0.0000    0.0018    0.0016
       35 FE2    4d1-       0.0000    0.0000    0.0201    0.0187
       36 FE2    3d0        0.0005   -0.0004    0.0000    0.0000
       37 FE2    4d0       -0.0027   -0.0061    0.0000    0.0000
       38 FE2    3d1+       0.0000    0.0000    0.0016   -0.0018
       39 FE2    4d1+       0.0000    0.0000    0.0187   -0.0201
       40 FE2    3d2+       0.0000    0.0000    0.0000   -0.0000
       41 FE2    4d2+       0.0000    0.0000    0.0000    0.0000
       42 FE2    4f3-      -0.0000    0.0000    0.0000    0.0000
       43 FE2    4f2-      -0.0000   -0.0000   -0.0000    0.0000
       44 FE2    4f1-       0.0000    0.0000    0.0003    0.0003
       45 FE2    4f0       -0.0001   -0.0001    0.0000    0.0000
       46 FE2    4f1+       0.0000    0.0000    0.0003   -0.0003
       47 FE2    4f2+      -0.0000    0.0000   -0.0000    0.0000
       48 FE2    4f3+       0.0000    0.0000    0.0000   -0.0000
--
 
 
  Input file to MOLDEN was generated!
 
 
++    Static properties:
      ------------------
 
 
      LoProp Charges per center
 

                   O1       FE2   
      Nuclear      8.0000  26.0000
      Electronic  -7.9962 -24.0038
 
      Total        0.0038   1.9962
--
 
 
      All orbitals with orbital energies smaller than  E(LUMO)+0.5 are printed
 
++    Molecular orbitals:
      -------------------
 
      Title: UHF orbitals (beta)

      Molecular orbitals for symmetry species 1: a  
 
          Orbital            1         2         3         4         5         6         7         8         9        10    
          Energy         -264.6061  -33.3149  -28.3830  -28.3830  -28.3830  -20.9751   -4.9657   -3.4173   -3.4173   -3.4171
          Occ. No.          1.0000    1.0000    1.0000    1.0000    1.0000    1.0000    1.0000    1.0000    1.0000    1.0000
 
        1 O1     1s        -0.0000    0.0000   -0.0000    0.0000    0.0000    1.0000   -0.0000    0.0000    0.0000    0.0000
        2 O1     2s        -0.0000    0.0000   -0.0000    0.0000    0.0000    0.0019   -0.0002    0.0000    0.0000    0.0002
        3 O1     3s         0.0000    0.0000   -0.0000    0.0000    0.0001   -0.0017   -0.0002    0.0000    0.0000    0.0003
        4 O1     2px       -0.0000   -0.0000    0.0000    0.0000   -0.0000    0.0000   -0.0000    0.0000    0.0000    0.0000
        5 O1     3px        0.0000    0.0000    0.0000    0.0000   -0.0000   -0.0000    0.0000    0.0002    0.0000   -0.0000
        6 O1     2py        0.0000   -0.0000    0.0000   -0.0000    0.0000   -0.0000    0.0000   -0.0000    0.0000   -0.0000
        7 O1     3py        0.0000   -0.0000    0.0000   -0.0000    0.0000    0.0000    0.0000   -0.0000    0.0002    0.0000
        8 O1     2pz       -0.0000   -0.0000    0.0000   -0.0000   -0.0000   -0.0001    0.0000   -0.0000   -0.0000   -0.0002
        9 O1     3pz       -0.0000   -0.0000    0.0000   -0.0000   -0.0001    0.0001    0.0001    0.0000   -0.0000   -0.0005
       10 O1     3d2-       0.0000    0.0000   -0.0000    0.0000   -0.0000   -0.0000   -0.0000   -0.0000    0.0000   -0.0000
       11 O1     3d1-       0.0000   -0.0000   -0.0000    0.0000   -0.0000   -0.0000    0.0000    0.0000   -0.0000    0.0000
       12 O1     3d0        0.0000   -0.0000   -0.0000    0.0000    0.0000   -0.0004    0.0000    0.0000    0.0000    0.0001
       13 O1     3d1+      -0.0000    0.0000   -0.0000   -0.0000    0.0000   -0.0000   -0.0000   -0.0000   -0.0000    0.0000
       14 O1     3d2+      -0.0000   -0.0000    0.0000    0.0000    0.0000   -0.0000    0.0000   -0.0000   -0.0000    0.0000
       15 FE2    1s         1.0000   -0.0000    0.0000    0.0000   -0.0000    0.0000    0.0000   -0.0000   -0.0000   -0.0000
       16 FE2    2s         0.0000    1.0000    0.0000   -0.0000   -0.0000    0.0000    0.0011    0.0000   -0.0000   -0.0000
       17 FE2    3s        -0.0000   -0.0011    0.0000   -0.0000   -0.0000    0.0000    1.0000   -0.0000    0.0000   -0.0002
       18 FE2    4s         0.0000    0.0002    0.0000   -0.0000   -0.0000    0.0001   -0.0028   -0.0000    0.0000   -0.0001
       19 FE2    5s        -0.0000   -0.0002    0.0000   -0.0000   -0.0000    0.0001    0.0033   -0.0000   -0.0000   -0.0002
       20 FE2    2px       -0.0000    0.0000    0.0226    0.9997   -0.0000    0.0000    0.0000    0.0032    0.0005   -0.0000
       21 FE2    3px        0.0000   -0.0000   -0.0001   -0.0032    0.0000    0.0000   -0.0000    0.9869    0.1607   -0.0000
       22 FE2    4px       -0.0000    0.0000    0.0000    0.0004   -0.0000    0.0000   -0.0000   -0.0113   -0.0018    0.0000
       23 FE2    5px        0.0000   -0.0000   -0.0000   -0.0011    0.0000    0.0000    0.0000    0.0054    0.0009   -0.0000
       24 FE2    2py        0.0000   -0.0000    0.9997   -0.0226    0.0000   -0.0000   -0.0000   -0.0005    0.0032   -0.0000
       25 FE2    3py       -0.0000    0.0000   -0.0032    0.0001   -0.0000    0.0000   -0.0000   -0.1607    0.9869   -0.0000
       26 FE2    4py       -0.0000    0.0000    0.0004   -0.0000    0.0000   -0.0000    0.0000    0.0018   -0.0113    0.0000
       27 FE2    5py       -0.0000   -0.0000   -0.0011    0.0000   -0.0000   -0.0000   -0.0000   -0.0009    0.0054   -0.0000
       28 FE2    2pz        0.0000    0.0000   -0.0000    0.0000    1.0000    0.0000   -0.0000    0.0000    0.0000    0.0032
       29 FE2    3pz       -0.0000    0.0000    0.0000   -0.0000   -0.0032    0.0000    0.0002    0.0000    0.0000    0.9999
       30 FE2    4pz       -0.0000   -0.0000   -0.0000    0.0000    0.0004    0.0001    0.0000   -0.0000   -0.0000   -0.0116
       31 FE2    5pz       -0.0000   -0.0000    0.0000   -0.0000   -0.0011    0.0001    0.0000    0.0000    0.0000    0.0054
       32 FE2    3d2-       0.0000   -0.0000   -0.0000    0.0000   -0.0000   -0.0000    0.0000   -0.0000   -0.0000   -0.0000
       33 FE2    4d2-       0.0000   -0.0000   -0.0000   -0.0000   -0.0000    0.0000   -0.0000   -0.0000    0.0000    0.0000
       34 FE2    3d1-       0.0000    0.0000    0.0000   -0.0000    0.0000   -0.0000   -0.0000   -0.0000    0.0001   -0.0000
       35 FE2    4d1-       0.0000   -0.0000   -0.0000    0.0000   -0.0000   -0.0000    0.0000    0.0000   -0.0000    0.0000
       36 FE2    3d0       -0.0000   -0.0000    0.0000   -0.0000   -0.0000    0.0000   -0.0000    0.0000    0.0000    0.0001
       37 FE2    4d0       -0.0000   -0.0000    0.0000   -0.0000   -0.0000    0.0001    0.0000   -0.0000   -0.0000   -0.0001
       38 FE2    3d1+      -0.0000   -0.0000    0.0000    0.0000   -0.0000    0.0000    0.0000    0.0001    0.0000   -0.0000
       39 FE2    4d1+       0.0000   -0.0000   -0.0000   -0.0000    0.0000   -0.0000   -0.0000   -0.0000   -0.0000    0.0000
       40 FE2    3d2+      -0.0000   -0.0000   -0.0000   -0.0000   -0.0000    0.0000   -0.0000   -0.0000    0.0000   -0.0000
       41 FE2    4d2+       0.0000    0.0000    0.0000    0.0000    0.0000   -0.0000    0.0000   -0.0000   -0.0000    0.0000
       42 FE2    4f3-       0.0000   -0.0000    0.0000    0.0000   -0.0000   -0.0000   -0.0000    0.0000   -0.0000    0.0000
       43 FE2    4f2-      -0.0000    0.0000    0.0000   -0.0000    0.0000   -0.0000   -0.0000    0.0000    0.0000    0.0000
       44 FE2    4f1-       0.0000    0.0000   -0.0000    0.0000   -0.0000   -0.0000    0.0000    0.0000   -0.0000    0.0000
       45 FE2    4f0       -0.0000   -0.0000    0.0000   -0.0000   -0.0000    0.0000   -0.0000   -0.0000    0.0000   -0.0000
       46 FE2    4f1+       0.0000   -0.0000   -0.0000   -0.0000    0.0000    0.0000    0.0000   -0.0000   -0.0000    0.0000
       47 FE2    4f2+       0.0000    0.0000    0.0000   -0.0000    0.0000   -0.0000    0.0000    0.0000   -0.0000   -0.0000
       48 FE2    4f3+      -0.0000    0.0000   -0.0000    0.0000    0.0000    0.0000   -0.0000   -0.0000   -0.0000   -0.0000
 
          Orbital           11        12        13        14        15        16        17        18        19        20    
          Energy           -1.6762   -0.9661   -0.9661   -0.8686   -0.5714   -0.5692   -0.5692   -0.5690   -0.5690   -0.5689
          Occ. No.          1.0000    1.0000    1.0000    1.0000    0.0000    0.0000    0.0000    0.0000    0.0000    0.0000
 
        1 O1     1s        -0.0019    0.0000   -0.0000    0.0001   -0.0001   -0.0000   -0.0000   -0.0000   -0.0000   -0.0006
        2 O1     2s         0.9994   -0.0000   -0.0000    0.0197   -0.0047   -0.0000   -0.0000   -0.0000   -0.0000   -0.0083
        3 O1     3s        -0.0289    0.0000    0.0000   -0.0140    0.0015   -0.0000   -0.0000   -0.0000   -0.0000   -0.0025
        4 O1     2px       -0.0000    0.1538    0.9868    0.0000    0.0000   -0.0000    0.0000   -0.0039    0.0000    0.0000
        5 O1     3px        0.0000   -0.0077   -0.0495   -0.0000   -0.0000   -0.0000    0.0000   -0.0020    0.0000    0.0000
        6 O1     2py       -0.0000    0.9868   -0.1538    0.0000    0.0000   -0.0000   -0.0000   -0.0000   -0.0039    0.0000
        7 O1     3py        0.0000   -0.0495    0.0077   -0.0000    0.0000   -0.0000   -0.0000   -0.0000   -0.0020    0.0000
        8 O1     2pz       -0.0197   -0.0000   -0.0000    0.9981    0.0353    0.0000    0.0000    0.0000    0.0000    0.0285
        9 O1     3pz       -0.0046    0.0000    0.0000   -0.0089    0.0003    0.0000    0.0000    0.0000    0.0000    0.0045
       10 O1     3d2-      -0.0000   -0.0000   -0.0000   -0.0000    0.0000    0.0000   -0.0000    0.0000    0.0000   -0.0000
       11 O1     3d1-      -0.0000   -0.0068    0.0011   -0.0000   -0.0000   -0.0000    0.0000    0.0000    0.0000    0.0000
       12 O1     3d0       -0.0204    0.0000    0.0000   -0.0093    0.0003    0.0000    0.0000    0.0000    0.0000    0.0001
       13 O1     3d1+      -0.0000   -0.0011   -0.0068   -0.0000   -0.0000   -0.0000    0.0000    0.0000   -0.0000   -0.0000
       14 O1     3d2+      -0.0000    0.0000   -0.0000   -0.0000    0.0000    0.0000    0.0000   -0.0000   -0.0000    0.0000
       15 FE2    1s        -0.0000   -0.0000    0.0000    0.0000   -0.0000    0.0000    0.0000    0.0000    0.0000    0.0000
       16 FE2    2s        -0.0000   -0.0000    0.0000    0.0003   -0.0002   -0.0000    0.0000    0.0000    0.0000   -0.0000
       17 FE2    3s        -0.0001   -0.0000   -0.0000    0.0013    0.0035    0.0000    0.0000   -0.0000   -0.0000    0.0007
       18 FE2    4s        -0.0008    0.0000   -0.0000   -0.0154    0.9566    0.0000    0.0000   -0.0000   -0.0000    0.1563
       19 FE2    5s        -0.0018   -0.0000   -0.0000    0.0031   -0.2441   -0.0000   -0.0000    0.0000    0.0000   -0.0387
       20 FE2    2px        0.0000   -0.0000   -0.0000   -0.0000   -0.0000   -0.0000    0.0000   -0.0000    0.0000   -0.0000
       21 FE2    3px       -0.0000   -0.0000   -0.0001    0.0000    0.0000    0.0000   -0.0000   -0.0001    0.0000    0.0000
       22 FE2    4px       -0.0000   -0.0000   -0.0002    0.0000    0.0000    0.0000   -0.0000    0.0006   -0.0000   -0.0000
       23 FE2    5px        0.0000   -0.0000   -0.0002   -0.0000   -0.0000   -0.0000   -0.0000   -0.0000    0.0000   -0.0000
       24 FE2    2py       -0.0000   -0.0000    0.0000   -0.0000    0.0000    0.0000    0.0000   -0.0000   -0.0000    0.0000
       25 FE2    3py       -0.0000   -0.0001    0.0000    0.0000   -0.0000   -0.0000   -0.0000   -0.0000   -0.0001   -0.0000
       26 FE2    4py       -0.0000   -0.0002    0.0000    0.0000    0.0000   -0.0000   -0.0000    0.0000    0.0006    0.0000
       27 FE2    5py       -0.0000   -0.0002    0.0000   -0.0000    0.0000   -0.0000   -0.0000   -0.0000   -0.0000    0.0000
       28 FE2    2pz       -0.0000    0.0000    0.0000    0.0000    0.0000    0.0000    0.0000    0.0000    0.0000    0.0000
       29 FE2    3pz       -0.0001   -0.0000   -0.0000    0.0009    0.0000   -0.0000   -0.0000   -0.0000   -0.0000   -0.0001
       30 FE2    4pz       -0.0010    0.0000   -0.0000   -0.0116   -0.0025   -0.0000   -0.0000   -0.0000    0.0000   -0.0007
       31 FE2    5pz       -0.0006    0.0000    0.0000   -0.0011   -0.0005   -0.0000   -0.0000    0.0000    0.0000   -0.0001
       32 FE2    3d2-      -0.0000    0.0000   -0.0000   -0.0000   -0.0000    0.3794   -0.9165   -0.0000    0.0000    0.0000
       33 FE2    4d2-       0.0000    0.0000    0.0000    0.0000   -0.0000    0.0485   -0.1172   -0.0000    0.0000    0.0000
       34 FE2    3d1-      -0.0000    0.0005   -0.0001    0.0000    0.0000   -0.0000    0.0000    0.0076    0.9920   -0.0000
       35 FE2    4d1-      -0.0000    0.0001   -0.0000    0.0000    0.0000   -0.0000    0.0000    0.0010    0.1266   -0.0000
       36 FE2    3d0        0.0001    0.0000   -0.0000   -0.0099   -0.1588    0.0000    0.0000    0.0000    0.0000    0.9794
       37 FE2    4d0       -0.0003    0.0000   -0.0000   -0.0038   -0.0211    0.0000    0.0000    0.0000    0.0000    0.1248
       38 FE2    3d1+      -0.0000    0.0001    0.0005    0.0000    0.0000    0.0000   -0.0000    0.9920   -0.0076   -0.0000
       39 FE2    4d1+      -0.0000    0.0000    0.0001   -0.0000    0.0000    0.0000   -0.0000    0.1266   -0.0010   -0.0000
       40 FE2    3d2+       0.0000    0.0000   -0.0000   -0.0000    0.0000    0.9165    0.3794   -0.0000   -0.0000   -0.0000
       41 FE2    4d2+      -0.0000    0.0000   -0.0000   -0.0000    0.0000    0.1172    0.0485   -0.0000   -0.0000   -0.0000
       42 FE2    4f3-       0.0000    0.0000   -0.0000   -0.0000    0.0000   -0.0000    0.0000   -0.0000    0.0000    0.0000
       43 FE2    4f2-       0.0000    0.0000   -0.0000    0.0000    0.0000    0.0000   -0.0001   -0.0000   -0.0000    0.0000
       44 FE2    4f1-      -0.0000    0.0000   -0.0000    0.0000    0.0000   -0.0000   -0.0000    0.0000    0.0001   -0.0000
       45 FE2    4f0        0.0000    0.0000   -0.0000   -0.0002   -0.0000    0.0000   -0.0000    0.0000    0.0000    0.0001
       46 FE2    4f1+      -0.0000    0.0000    0.0000    0.0000    0.0000    0.0000   -0.0000    0.0001   -0.0000   -0.0000
       47 FE2    4f2+      -0.0000   -0.0000   -0.0000   -0.0000   -0.0000    0.0001    0.0000   -0.0000   -0.0000   -0.0000
       48 FE2    4f3+      -0.0000    0.0000    0.0000    0.0000    0.0000   -0.0000   -0.0000    0.0000    0.0000    0.0000
 
          Orbital           21        22        23        24    
          Energy           -0.3901   -0.3901   -0.3877   -0.2236
          Occ. No.          0.0000    0.0000    0.0000    0.0000
 
        1 O1     1s        -0.0000   -0.0000   -0.0034   -0.0081
        2 O1     2s        -0.0000   -0.0000   -0.0421   -0.0861
        3 O1     3s        -0.0000   -0.0000   -0.0079   -0.0168
        4 O1     2px       -0.0087    0.0064    0.0000    0.0000
        5 O1     3px       -0.0010    0.0007    0.0000    0.0000
        6 O1     2py       -0.0064   -0.0087    0.0000    0.0000
        7 O1     3py       -0.0007   -0.0010    0.0000    0.0000
        8 O1     2pz        0.0000    0.0000    0.0674    0.0647
        9 O1     3pz       -0.0000    0.0000    0.0034    0.0159
       10 O1     3d2-       0.0000   -0.0000   -0.0000    0.0000
       11 O1     3d1-      -0.0003   -0.0004    0.0000    0.0000
       12 O1     3d0        0.0000    0.0000    0.0016    0.0008
       13 O1     3d1+      -0.0004    0.0003    0.0000    0.0000
       14 O1     3d2+       0.0000   -0.0000    0.0000   -0.0000
       15 FE2    1s         0.0000    0.0000    0.0000    0.0000
       16 FE2    2s         0.0000    0.0000    0.0000    0.0003
       17 FE2    3s         0.0000    0.0000    0.0002   -0.0021
       18 FE2    4s        -0.0000   -0.0000    0.0029    0.2545
       19 FE2    5s         0.0000    0.0000   -0.0085    0.9786
       20 FE2    2px       -0.0003    0.0002    0.0000   -0.0000
       21 FE2    3px        0.0089   -0.0065   -0.0000   -0.0000
       22 FE2    4px        0.8053   -0.5887   -0.0000   -0.0000
       23 FE2    5px        0.0584   -0.0427   -0.0000   -0.0000
       24 FE2    2py       -0.0002   -0.0003    0.0000   -0.0000
       25 FE2    3py        0.0065    0.0089   -0.0000   -0.0000
       26 FE2    4py        0.5887    0.8053   -0.0000   -0.0000
       27 FE2    5py        0.0427    0.0584   -0.0000    0.0000
       28 FE2    2pz       -0.0000   -0.0000   -0.0003    0.0000
       29 FE2    3pz        0.0000    0.0000    0.0112    0.0005
       30 FE2    4pz        0.0000    0.0000    1.0012    0.0217
       31 FE2    5pz        0.0000    0.0000    0.0721    0.0004
       32 FE2    3d2-      -0.0000    0.0000    0.0000    0.0000
       33 FE2    4d2-       0.0000   -0.0000    0.0000   -0.0000
       34 FE2    3d1-      -0.0002   -0.0003   -0.0000   -0.0000
       35 FE2    4d1-       0.0000    0.0000    0.0000    0.0000
       36 FE2    3d0        0.0000    0.0000    0.0028    0.0028
       37 FE2    4d0        0.0000   -0.0000   -0.0012   -0.0029
       38 FE2    3d1+      -0.0003    0.0002    0.0000    0.0000
       39 FE2    4d1+       0.0000   -0.0000    0.0000    0.0000
       40 FE2    3d2+       0.0000    0.0000    0.0000    0.0000
       41 FE2    4d2+      -0.0000   -0.0000    0.0000    0.0000
       42 FE2    4f3-      -0.0000    0.0000   -0.0000   -0.0000
       43 FE2    4f2-       0.0000   -0.0000   -0.0000   -0.0000
       44 FE2    4f1-      -0.0000   -0.0000    0.0000    0.0000
       45 FE2    4f0       -0.0000   -0.0000   -0.0001   -0.0001
       46 FE2    4f1+      -0.0000    0.0000    0.0000   -0.0000
       47 FE2    4f2+      -0.0000   -0.0000    0.0000    0.0000
       48 FE2    4f3+       0.0000    0.0000    0.0000   -0.0000
--
 
 
++    Molecular charges:
      ------------------
 
      Mulliken charges per centre and basis function type
      ---------------------------------------------------
 
                            O1                      FE2   
                     alpha        beta       alpha        beta
      1s           1.0000      1.0000      1.0000      1.0000
      2s           0.9986      0.9989      1.0000      1.0000
      2px          0.0000      0.9974      1.0000      1.0000
      2pz          0.9903      0.9979      1.0000      1.0000
      2py          0.0000      0.9974      1.0000      1.0000
      3s           0.0009      0.0011      1.0000      1.0000
      3px          0.0000      0.0025      0.9993      0.9998
      3pz          0.0033      0.0001      0.9993      0.9998
      3py          0.0000      0.0025      0.9993      0.9998
      4s           0.0000      0.0000      0.8613      0.0008
      3d2+        -0.0000      0.0000      0.9814      0.0000
      3d1+         0.0000      0.0000      0.9814      0.0000
      3d0          0.0010      0.0005      0.9814      0.0002
      3d1-         0.0000      0.0000      0.9814      0.0000
      3d2-        -0.0000      0.0000      0.9814      0.0000
      4px          0.0000      0.0000      0.0004      0.0001
      4pz          0.0000      0.0000      0.0057      0.0008
      4py          0.0000      0.0000      0.0004      0.0001
      5s           0.0000      0.0000      0.1388     -0.0003
      4d2+         0.0000      0.0000      0.0186      0.0000
      4d1+         0.0000      0.0000      0.0186      0.0000
      4d0          0.0000      0.0000      0.0191      0.0002
      4d1-         0.0000      0.0000      0.0186      0.0000
      4d2-         0.0000      0.0000      0.0186      0.0000
      5px          0.0000      0.0000      0.0003      0.0000
      5pz          0.0000      0.0000      0.0005      0.0001
      5py          0.0000      0.0000      0.0003      0.0000
      4f3+         0.0000      0.0000      0.0000      0.0000
      4f2+         0.0000      0.0000      0.0000      0.0000
      4f1+         0.0000      0.0000      0.0000      0.0000
      4f0          0.0000      0.0000      0.0000      0.0000
      4f1-         0.0000      0.0000      0.0000      0.0000
      4f2-         0.0000      0.0000      0.0000      0.0000
      4f3-         0.0000      0.0000      0.0000      0.0000
      Total        2.9940      4.9985     15.0060      9.0015
      Total              7.9925                 24.0075
 
      Charge            0.0075                  1.9925
 
      Total electronic charge=   32.000000
 
      Total            charge=    2.000000
--
 
 
  Input file to MOLDEN was generated!
 
 
++    Static properties:
      ------------------
 
 
      LoProp Charges per center
 

                   O1       FE2   
      Nuclear      8.0000  26.0000
      Electronic  -7.9962 -24.0038
 
      Total        0.0038   1.9962
--
 
 
++    Natural Bond Order analysis
      ---------------------------
      Based on LoProp computed density
      -------------------------------------------------------------------------------------
      Atom A       Atom B       Bond Order
      -------------------------------------------------------------------------------------
      NBO located     20.000 core electrons.
      NBO located      3.988 lone pair electrons.
      NBO located      1.000 non-bonded electrons on atom FE2       
      NBO located      1.000 non-bonded electrons on atom FE2       
      NBO located      1.000 non-bonded electrons on atom FE2       
      NBO located      1.000 non-bonded electrons on atom FE2       
      NBO located      1.000 non-bonded electrons on atom FE2       
      NBO located      1.000 non-bonded electrons on atom FE2       
      The remaining    2.012 electrons are to be considered as diffuse
--
 
 
++    Molecular orbitals:
      -------------------
 
      Title: Natural orbitals

      Molecular orbitals for symmetry species 1: a  
 
          Orbital            1         2         3         4         5         6         7         8         9        10    
          Energy         -264.6101  -33.0528  -27.4387  -27.7088  -27.7079  -21.0662   -5.6363   -4.4816   -4.4594   -4.4586
          Occ. No.          2.0000    2.0000    2.0000    2.0000    2.0000    2.0000    2.0000    1.9999    1.9999    1.9999
 
        1 O1     1s         0.0000    0.0085    0.1868    0.0000   -0.0000    0.9791   -0.0721   -0.0035   -0.0000    0.0000
        2 O1     2s        -0.0000   -0.0002   -0.0060   -0.0000    0.0000   -0.0331    0.0003   -0.0055    0.0000   -0.0000
        3 O1     3s         0.0000    0.0000   -0.0002   -0.0000    0.0000   -0.0005   -0.0004    0.0008    0.0000    0.0000
        4 O1     2px       -0.0000   -0.0000    0.0000    0.0000   -0.0000   -0.0000    0.0000   -0.0000   -0.0000    0.0000
        5 O1     3px        0.0000    0.0000    0.0000    0.0000   -0.0000   -0.0000    0.0000   -0.0000    0.0000   -0.0000
        6 O1     2py        0.0000   -0.0000    0.0000   -0.0000   -0.0000   -0.0000    0.0000   -0.0000   -0.0000   -0.0000
        7 O1     3py        0.0000   -0.0000   -0.0000   -0.0000   -0.0000    0.0000    0.0000   -0.0000    0.0000    0.0000
        8 O1     2pz       -0.0000    0.0000    0.0025   -0.0000    0.0000   -0.0022    0.0053   -0.0489   -0.0000   -0.0000
        9 O1     3pz       -0.0000   -0.0000    0.0002    0.0000   -0.0000    0.0002    0.0002   -0.0014    0.0000   -0.0000
       10 O1     3d2-       0.0000    0.0000   -0.0000   -0.0000    0.0000   -0.0000   -0.0000   -0.0000   -0.0000    0.0000
       11 O1     3d1-       0.0000   -0.0000   -0.0000    0.0000    0.0000    0.0000   -0.0000    0.0000   -0.0000   -0.0000
       12 O1     3d0        0.0000   -0.0000    0.0000    0.0000   -0.0000    0.0002   -0.0000    0.0004    0.0000    0.0000
       13 O1     3d1+      -0.0000    0.0000    0.0000   -0.0000    0.0000    0.0000   -0.0000    0.0000   -0.0000    0.0000
       14 O1     3d2+      -0.0000   -0.0000    0.0000    0.0000    0.0000    0.0000    0.0000    0.0000   -0.0000    0.0000
       15 FE2    1s         1.0000   -0.0000    0.0000   -0.0000    0.0000    0.0000    0.0000   -0.0000   -0.0000   -0.0000
       16 FE2    2s         0.0000    0.9939    0.0026   -0.0000    0.0000   -0.0010    0.1105    0.0012    0.0000   -0.0000
       17 FE2    3s        -0.0000   -0.1101    0.0178    0.0000   -0.0000    0.0705    0.9912    0.0077    0.0000    0.0000
       18 FE2    4s         0.0000    0.0005   -0.0000   -0.0000    0.0000   -0.0001   -0.0022    0.0006    0.0000    0.0000
       19 FE2    5s        -0.0000   -0.0006    0.0001    0.0000   -0.0000    0.0004    0.0045   -0.0001    0.0000   -0.0000
       20 FE2    2px       -0.0000   -0.0000   -0.0000   -0.0356    0.9839    0.0000   -0.0000   -0.0000    0.1667   -0.0539
       21 FE2    3px        0.0000    0.0000    0.0000    0.0063   -0.1750   -0.0000    0.0000    0.0000    0.9366   -0.3030
       22 FE2    4px       -0.0000   -0.0000   -0.0000   -0.0001    0.0026    0.0000   -0.0000   -0.0000   -0.0143    0.0046
       23 FE2    5px        0.0000    0.0000    0.0000    0.0001   -0.0019   -0.0000    0.0000    0.0000    0.0111   -0.0036
       24 FE2    2py        0.0000    0.0000    0.0000    0.9839    0.0356   -0.0000    0.0000   -0.0000    0.0539    0.1666
       25 FE2    3py       -0.0000   -0.0000   -0.0000   -0.1749   -0.0063    0.0000   -0.0000   -0.0000    0.3030    0.9366
       26 FE2    4py        0.0000    0.0000    0.0000    0.0026    0.0001   -0.0000    0.0000    0.0000   -0.0046   -0.0143
       27 FE2    5py       -0.0000   -0.0000   -0.0000   -0.0019   -0.0001    0.0000   -0.0000   -0.0000    0.0036    0.0111
       28 FE2    2pz       -0.0000   -0.0023    0.9665   -0.0000    0.0000   -0.1842   -0.0059    0.1785    0.0000    0.0000
       29 FE2    3pz       -0.0000    0.0001   -0.1749    0.0000   -0.0000    0.0361   -0.0069    0.9824    0.0000    0.0000
       30 FE2    4pz        0.0000   -0.0000    0.0026   -0.0000    0.0000   -0.0005    0.0000   -0.0137   -0.0000   -0.0000
       31 FE2    5pz       -0.0000   -0.0000   -0.0019    0.0000   -0.0000    0.0004   -0.0000    0.0117    0.0000    0.0000
       32 FE2    3d2-       0.0000   -0.0000    0.0000    0.0000   -0.0000    0.0000    0.0000   -0.0000   -0.0000   -0.0000
       33 FE2    4d2-       0.0000   -0.0000   -0.0000   -0.0000   -0.0000    0.0000   -0.0000    0.0000   -0.0000    0.0000
       34 FE2    3d1-       0.0000   -0.0000   -0.0000   -0.0000   -0.0000    0.0000   -0.0000   -0.0000    0.0000    0.0001
       35 FE2    4d1-       0.0000   -0.0000    0.0000    0.0000    0.0000   -0.0000    0.0000   -0.0000   -0.0000   -0.0000
       36 FE2    3d0       -0.0000    0.0000   -0.0000    0.0000   -0.0000    0.0000   -0.0001    0.0006    0.0000    0.0000
       37 FE2    4d0       -0.0000   -0.0000    0.0000    0.0000   -0.0000    0.0000    0.0000    0.0002    0.0000    0.0000
       38 FE2    3d1+      -0.0000   -0.0000    0.0000    0.0000   -0.0000   -0.0000    0.0000   -0.0000    0.0001   -0.0000
       39 FE2    4d1+       0.0000   -0.0000   -0.0000   -0.0000    0.0000    0.0000   -0.0000    0.0000   -0.0000    0.0000
       40 FE2    3d2+      -0.0000    0.0000   -0.0000   -0.0000   -0.0000   -0.0000   -0.0000    0.0000   -0.0000    0.0000
       41 FE2    4d2+       0.0000   -0.0000    0.0000    0.0000    0.0000   -0.0000    0.0000    0.0000   -0.0000   -0.0000
       42 FE2    4f3-       0.0000   -0.0000   -0.0000    0.0000    0.0000   -0.0000   -0.0000    0.0000    0.0000   -0.0000
       43 FE2    4f2-      -0.0000    0.0000    0.0000   -0.0000   -0.0000   -0.0000   -0.0000    0.0000    0.0000    0.0000
       44 FE2    4f1-       0.0000    0.0000    0.0000    0.0000    0.0000   -0.0000    0.0000    0.0000   -0.0000   -0.0000
       45 FE2    4f0       -0.0000    0.0000    0.0000   -0.0000    0.0000   -0.0000   -0.0000   -0.0000   -0.0000    0.0000
       46 FE2    4f1+       0.0000   -0.0000   -0.0000   -0.0000    0.0000    0.0000    0.0000    0.0000   -0.0000    0.0000
       47 FE2    4f2+       0.0000   -0.0000    0.0000    0.0000   -0.0000    0.0000    0.0000   -0.0000    0.0000   -0.0000
       48 FE2    4f3+      -0.0000    0.0000    0.0000   -0.0000    0.0000   -0.0000    0.0000   -0.0000   -0.0000   -0.0000
 
          Orbital           11        12        13        14        15        16        17        18        19        20    
          Energy           -1.2933   -1.0560   -0.8007   -0.8007   -1.0812   -1.0812   -1.0809   -0.7567   -0.8000   -0.8000
          Occ. No.          1.9976    1.9970    1.0008    1.0008    1.0000    1.0000    1.0000    1.0000    0.9992    0.9992
 
        1 O1     1s         0.0289   -0.0171    0.0000    0.0000    0.0000    0.0000   -0.0001   -0.0009   -0.0000    0.0000
        2 O1     2s         0.8295   -0.5577    0.0000    0.0000    0.0000    0.0000   -0.0011   -0.0057   -0.0000    0.0000
        3 O1     3s        -0.0110   -0.0099    0.0000    0.0000    0.0000    0.0000   -0.0009   -0.0070   -0.0000    0.0000
        4 O1     2px        0.0000    0.0000    0.7058   -0.0251   -0.0000    0.0000   -0.0000   -0.0000    0.7062    0.0019
        5 O1     3px        0.0000    0.0000   -0.0348    0.0012    0.0000   -0.0000    0.0000    0.0000   -0.0359   -0.0001
        6 O1     2py        0.0000    0.0000    0.0251    0.7058    0.0000    0.0000   -0.0000   -0.0000    0.0019   -0.7062
        7 O1     3py        0.0000    0.0000   -0.0012   -0.0348   -0.0000   -0.0000    0.0000    0.0000   -0.0001    0.0359
        8 O1     2pz        0.5565    0.8251   -0.0000    0.0000    0.0000    0.0000   -0.0098   -0.0303   -0.0000    0.0000
        9 O1     3pz        0.0068    0.0213    0.0000    0.0000    0.0000    0.0000   -0.0002   -0.0009    0.0000   -0.0000
       10 O1     3d2-      -0.0000   -0.0000   -0.0000   -0.0000   -0.0000   -0.0000   -0.0000   -0.0000   -0.0000    0.0000
       11 O1     3d1-       0.0000   -0.0000   -0.0002   -0.0049   -0.0000   -0.0000   -0.0000   -0.0000   -0.0000    0.0047
       12 O1     3d0       -0.0010   -0.0097    0.0000   -0.0000   -0.0000   -0.0000    0.0000    0.0004    0.0000   -0.0000
       13 O1     3d1+      -0.0000   -0.0000   -0.0049    0.0002    0.0000   -0.0000   -0.0000   -0.0000   -0.0047   -0.0000
       14 O1     3d2+      -0.0000   -0.0000   -0.0000    0.0000    0.0000   -0.0000    0.0000   -0.0000   -0.0000   -0.0000
       15 FE2    1s         0.0000    0.0000   -0.0000   -0.0000   -0.0000   -0.0000   -0.0000    0.0000    0.0000   -0.0000
       16 FE2    2s         0.0000   -0.0002   -0.0000   -0.0000   -0.0000   -0.0000   -0.0000    0.0003    0.0000   -0.0000
       17 FE2    3s        -0.0002   -0.0033    0.0000    0.0000    0.0000    0.0000   -0.0000   -0.0038   -0.0000    0.0000
       18 FE2    4s        -0.0087   -0.0100    0.0000    0.0000    0.0000    0.0000    0.0004   -0.9281   -0.0000    0.0000
       19 FE2    5s        -0.0002    0.0013   -0.0000   -0.0000   -0.0000   -0.0000    0.0003    0.3723    0.0000   -0.0000
       20 FE2    2px       -0.0000   -0.0000   -0.0000    0.0000    0.0000   -0.0000   -0.0000    0.0000   -0.0000   -0.0000
       21 FE2    3px       -0.0000    0.0000   -0.0001    0.0000   -0.0000   -0.0000   -0.0000   -0.0000    0.0000    0.0000
       22 FE2    4px        0.0000    0.0000   -0.0004    0.0000   -0.0000   -0.0000   -0.0000   -0.0000    0.0000    0.0000
       23 FE2    5px       -0.0000   -0.0000   -0.0002    0.0000   -0.0000    0.0000   -0.0000   -0.0000   -0.0001   -0.0000
       24 FE2    2py        0.0000   -0.0000   -0.0000   -0.0000    0.0000   -0.0000   -0.0000   -0.0000   -0.0000    0.0000
       25 FE2    3py       -0.0000   -0.0000   -0.0000   -0.0001   -0.0000   -0.0000   -0.0000   -0.0000    0.0000   -0.0000
       26 FE2    4py        0.0000    0.0000   -0.0000   -0.0004   -0.0000   -0.0000   -0.0000   -0.0000    0.0000   -0.0000
       27 FE2    5py       -0.0000   -0.0000   -0.0000   -0.0002    0.0000    0.0000   -0.0000   -0.0000   -0.0000    0.0001
       28 FE2    2pz        0.0039    0.0047    0.0000    0.0000    0.0000    0.0000    0.0000   -0.0000    0.0000    0.0000
       29 FE2    3pz        0.0321    0.0381   -0.0000   -0.0000   -0.0000   -0.0000    0.0001    0.0001    0.0000   -0.0000
       30 FE2    4pz       -0.0169   -0.0242   -0.0000   -0.0000   -0.0000   -0.0000    0.0012    0.0122    0.0000   -0.0000
       31 FE2    5pz       -0.0008   -0.0007   -0.0000   -0.0000   -0.0000   -0.0000    0.0001    0.0005    0.0000   -0.0000
       32 FE2    3d2-      -0.0000   -0.0000   -0.0000    0.0000   -0.0278   -0.9903   -0.0000   -0.0000    0.0000    0.0000
       33 FE2    4d2-       0.0000    0.0000    0.0000   -0.0000    0.0038    0.1361    0.0000    0.0000   -0.0000   -0.0000
       34 FE2    3d1-       0.0000    0.0000    0.0249    0.7001   -0.0000    0.0000    0.0000    0.0000   -0.0019    0.7004
       35 FE2    4d1-       0.0000    0.0000   -0.0034   -0.0963    0.0000   -0.0000   -0.0000   -0.0000    0.0003   -0.0965
       36 FE2    3d0       -0.0054   -0.0077    0.0000    0.0000    0.0000    0.0000   -0.9906    0.0000   -0.0000    0.0000
       37 FE2    4d0       -0.0026   -0.0041   -0.0000   -0.0000   -0.0000   -0.0000    0.1366    0.0016    0.0000   -0.0000
       38 FE2    3d1+       0.0000    0.0000    0.7001   -0.0249    0.0000   -0.0000    0.0000    0.0000   -0.7004   -0.0019
       39 FE2    4d1+      -0.0000    0.0000   -0.0963    0.0034   -0.0000    0.0000   -0.0000   -0.0000    0.0965    0.0003
       40 FE2    3d2+      -0.0000   -0.0000   -0.0000    0.0000    0.9903   -0.0278    0.0000   -0.0000    0.0000    0.0000
       41 FE2    4d2+       0.0000    0.0000    0.0000   -0.0000   -0.1361    0.0038   -0.0000    0.0000   -0.0000   -0.0000
       42 FE2    4f3-      -0.0000   -0.0000   -0.0000    0.0000    0.0000    0.0000   -0.0000   -0.0000   -0.0000   -0.0000
       43 FE2    4f2-       0.0000    0.0000    0.0000    0.0000   -0.0000   -0.0000   -0.0000   -0.0000   -0.0000   -0.0000
       44 FE2    4f1-       0.0000    0.0000    0.0000    0.0000   -0.0000    0.0000    0.0000    0.0000   -0.0000    0.0000
       45 FE2    4f0       -0.0001   -0.0002   -0.0000   -0.0000   -0.0000   -0.0000   -0.0000    0.0000    0.0000   -0.0000
       46 FE2    4f1+       0.0000    0.0000    0.0000   -0.0000    0.0000   -0.0000    0.0000    0.0000   -0.0000   -0.0000
       47 FE2    4f2+      -0.0000   -0.0000   -0.0000   -0.0000    0.0000   -0.0000    0.0000   -0.0000    0.0000   -0.0000
       48 FE2    4f3+      -0.0000    0.0000    0.0000    0.0000   -0.0000    0.0000   -0.0000   -0.0000    0.0000   -0.0000
 
          Orbital           21        22        23        24        25        26        27        28        29        30    
          Energy            0.3418    0.9789    0.9514    0.9514    1.0794   -0.2039    0.8546   -0.0321   -0.0321    0.6126
          Occ. No.          0.0030    0.0024    0.0001    0.0001    0.0001    0.0000    0.0000    0.0000    0.0000    0.0000
 
        1 O1     1s        -0.0015    0.0010   -0.0000   -0.0000   -0.0032    0.0082   -0.0050   -0.0000   -0.0000   -0.0038
        2 O1     2s        -0.0249    0.0139   -0.0000   -0.0000   -0.0363    0.0900   -0.0584   -0.0000   -0.0000   -0.0445
        3 O1     3s         0.3834    0.5942   -0.0000   -0.0000   -0.0513    0.1669   -0.6302    0.0000    0.0000    0.3508
        4 O1     2px        0.0000   -0.0000   -0.0058    0.0023   -0.0000   -0.0000    0.0000   -0.0181    0.0077    0.0000
        5 O1     3px       -0.0000    0.0000   -0.0183    0.0074   -0.0000   -0.0000    0.0000   -0.0869    0.0370    0.0000
        6 O1     2py        0.0000   -0.0000   -0.0023   -0.0058   -0.0000   -0.0000    0.0000   -0.0077   -0.0181    0.0000
        7 O1     3py       -0.0000    0.0000   -0.0074   -0.0183   -0.0000   -0.0000    0.0000   -0.0370   -0.0869    0.0000
        8 O1     2pz        0.0657   -0.0194    0.0000    0.0000    0.0166   -0.0663    0.0644    0.0000    0.0000    0.0629
        9 O1     3pz       -0.6579    0.4474    0.0000    0.0000   -0.1689   -0.1812    0.4205    0.0000    0.0000    0.5056
       10 O1     3d2-       0.0000    0.0000    0.0000   -0.0000    0.0000   -0.0000    0.0000    0.0000   -0.0000    0.0000
       11 O1     3d1-       0.0000    0.0000    0.0007    0.0017   -0.0000    0.0000    0.0000    0.0059    0.0139   -0.0000
       12 O1     3d0        0.3566    0.6077   -0.0000   -0.0000   -0.0222    0.0183    0.5005   -0.0000   -0.0000   -0.4716
       13 O1     3d1+       0.0000    0.0000    0.0017   -0.0007   -0.0000    0.0000    0.0000    0.0139   -0.0059   -0.0000
       14 O1     3d2+       0.0000    0.0000    0.0000   -0.0000    0.0000   -0.0000    0.0000    0.0000   -0.0000    0.0000
       15 FE2    1s        -0.0003    0.0002   -0.0000    0.0000   -0.0001   -0.0001    0.0002    0.0000    0.0000    0.0002
       16 FE2    2s        -0.0021    0.0012    0.0000    0.0000   -0.0005   -0.0006    0.0014    0.0000    0.0000    0.0015
       17 FE2    3s        -0.0111    0.0063    0.0000    0.0000   -0.0027    0.0002    0.0073    0.0000    0.0000    0.0076
       18 FE2    4s        -0.0549    0.0245    0.0000    0.0000   -0.0105   -0.4047    0.0816   -0.0000   -0.0000    0.0872
       19 FE2    5s         0.0557   -0.0152    0.0000    0.0000    0.0298   -0.9542    0.0562   -0.0000   -0.0000    0.0618
       20 FE2    2px       -0.0000    0.0000   -0.0002    0.0001   -0.0000    0.0000    0.0000   -0.0000    0.0000    0.0000
       21 FE2    3px        0.0000   -0.0000   -0.0167    0.0067    0.0000    0.0000   -0.0000    0.0066   -0.0028   -0.0000
       22 FE2    4px       -0.0000    0.0000   -0.4777    0.1922    0.0000   -0.0000   -0.0000    0.7907   -0.3364   -0.0000
       23 FE2    5px        0.0000   -0.0000    0.7953   -0.3200   -0.0000   -0.0000   -0.0000    0.4771   -0.2030   -0.0000
       24 FE2    2py        0.0000   -0.0000   -0.0001   -0.0002    0.0000    0.0000    0.0000   -0.0000   -0.0000   -0.0000
       25 FE2    3py        0.0000   -0.0000   -0.0067   -0.0167    0.0000    0.0000   -0.0000    0.0028    0.0066   -0.0000
       26 FE2    4py       -0.0000    0.0000   -0.1922   -0.4777    0.0000   -0.0000   -0.0000    0.3364    0.7907   -0.0000
       27 FE2    5py       -0.0000   -0.0000    0.3200    0.7953   -0.0000   -0.0000   -0.0000    0.2030    0.4771   -0.0000
       28 FE2    2pz       -0.0003    0.0001   -0.0000   -0.0000   -0.0003   -0.0001    0.0002    0.0000    0.0000    0.0002
       29 FE2    3pz       -0.0005   -0.0008   -0.0000   -0.0000   -0.0182   -0.0017    0.0089    0.0000    0.0000    0.0094
       30 FE2    4pz        0.3810   -0.2617   -0.0000   -0.0000   -0.4049    0.0298    0.5509    0.0000    0.0000    0.6157
       31 FE2    5pz        0.0083    0.0033    0.0000    0.0000    0.8923    0.0203    0.3329    0.0000    0.0000    0.3640
       32 FE2    3d2-       0.0000    0.0000    0.0000   -0.0000   -0.0000   -0.0000    0.0000   -0.0000    0.0000    0.0000
       33 FE2    4d2-      -0.0000    0.0000    0.0000   -0.0000    0.0000   -0.0000    0.0000   -0.0000    0.0000    0.0000
       34 FE2    3d1-       0.0000   -0.0000   -0.0000   -0.0001    0.0000    0.0000   -0.0000    0.0012    0.0027    0.0000
       35 FE2    4d1-      -0.0000    0.0000   -0.0002   -0.0005   -0.0000   -0.0000   -0.0000    0.0071    0.0167    0.0000
       36 FE2    3d0       -0.0020    0.0010   -0.0000   -0.0000   -0.0001   -0.0047    0.0317    0.0000    0.0000   -0.0087
       37 FE2    4d0        0.0319   -0.0070   -0.0000   -0.0000    0.0115   -0.0187    0.1957    0.0000    0.0000   -0.0978
       38 FE2    3d1+       0.0000   -0.0000   -0.0001    0.0000    0.0000   -0.0000   -0.0000    0.0027   -0.0012   -0.0000
       39 FE2    4d1+      -0.0000    0.0000   -0.0005    0.0002   -0.0000   -0.0000   -0.0000    0.0167   -0.0071   -0.0000
       40 FE2    3d2+      -0.0000    0.0000   -0.0000    0.0000    0.0000   -0.0000    0.0000   -0.0000   -0.0000    0.0000
       41 FE2    4d2+      -0.0000    0.0000   -0.0000    0.0000    0.0000   -0.0000    0.0000   -0.0000   -0.0000    0.0000
       42 FE2    4f3-       0.0000    0.0000    0.0000   -0.0000   -0.0000   -0.0000   -0.0000   -0.0000    0.0000   -0.0000
       43 FE2    4f2-      -0.0000   -0.0000   -0.0000    0.0000   -0.0000   -0.0000    0.0000    0.0000   -0.0000    0.0000
       44 FE2    4f1-      -0.0000    0.0000    0.0000    0.0000    0.0000    0.0000   -0.0000    0.0004    0.0010   -0.0000
       45 FE2    4f0        0.0015   -0.0004   -0.0000   -0.0000    0.0007   -0.0016    0.0121   -0.0000   -0.0000   -0.0050
       46 FE2    4f1+      -0.0000    0.0000    0.0000   -0.0000   -0.0000   -0.0000    0.0000    0.0010   -0.0004   -0.0000
       47 FE2    4f2+       0.0000   -0.0000    0.0000   -0.0000    0.0000   -0.0000   -0.0000   -0.0000   -0.0000   -0.0000
       48 FE2    4f3+       0.0000    0.0000    0.0000   -0.0000   -0.0000    0.0000   -0.0000   -0.0000    0.0000   -0.0000
 
          Orbital           31        32        33        34        35        36        37        38        39        40    
          Energy            0.3499    0.3345    0.2721    0.3440    0.2859    0.2713    0.2730    1.8681    1.9113    3.1026
          Occ. No.          0.0000    0.0000    0.0000    0.0000    0.0000    0.0000    0.0000    0.0000    0.0000    0.0000
 
        1 O1     1s         0.0025    0.0000   -0.0000    0.0000   -0.0000    0.0000    0.0000   -0.0000   -0.0000   -0.0001
        2 O1     2s         0.0325    0.0000   -0.0000    0.0000   -0.0000    0.0000    0.0000   -0.0000   -0.0000   -0.0002
        3 O1     3s        -0.0742   -0.0000    0.0000   -0.0000    0.0000   -0.0000   -0.0000    0.0000    0.0000   -0.0009
        4 O1     2px        0.0000   -0.0373    0.0092    0.0346   -0.0028    0.0000   -0.0000   -0.0101   -0.0039    0.0000
        5 O1     3px        0.0000   -0.7692   -0.0672    0.6290   -0.0468    0.0007   -0.0004   -0.0721   -0.0277    0.0000
        6 O1     2py        0.0000   -0.0307    0.0125   -0.0348    0.0199    0.0001    0.0000   -0.0034    0.0090    0.0000
        7 O1     3py        0.0000   -0.6239    0.2490   -0.7253    0.1401   -0.0017    0.0000   -0.0141    0.0514    0.0000
        8 O1     2pz       -0.0473   -0.0000    0.0000   -0.0000    0.0000   -0.0000   -0.0000    0.0000    0.0000   -0.0009
        9 O1     3pz       -0.1338   -0.0000    0.0000   -0.0000    0.0000   -0.0000   -0.0000    0.0000    0.0000   -0.0031
       10 O1     3d2-      -0.0000   -0.0004    0.0012    0.0023   -0.0009   -0.0038   -0.0218   -0.0130    0.0032    0.0000
       11 O1     3d1-      -0.0000    0.0327   -0.0174    0.0349   -0.0334    0.0003    0.0055   -0.3683    0.9074   -0.0000
       12 O1     3d0        0.1769    0.0000   -0.0000    0.0000   -0.0000    0.0000    0.0000   -0.0000   -0.0000    0.0026
       13 O1     3d1+      -0.0000    0.0541   -0.0112   -0.0595   -0.0027   -0.0006   -0.0034   -0.9208   -0.3607   -0.0000
       14 O1     3d2+      -0.0000   -0.0002    0.0001    0.0007   -0.0010   -0.0019    0.0001   -0.0066   -0.0104    0.0000
       15 FE2    1s        -0.0001   -0.0000    0.0000   -0.0000    0.0000   -0.0000   -0.0000    0.0000    0.0000   -0.0000
       16 FE2    2s        -0.0004   -0.0000    0.0000   -0.0000    0.0000   -0.0000   -0.0000    0.0000    0.0000   -0.0000
       17 FE2    3s        -0.0021   -0.0000    0.0000   -0.0000    0.0000   -0.0000   -0.0000    0.0000    0.0000   -0.0001
       18 FE2    4s        -0.0216   -0.0000    0.0000   -0.0000    0.0000   -0.0000   -0.0000    0.0000    0.0000   -0.0003
       19 FE2    5s        -0.0123   -0.0000    0.0000   -0.0000    0.0000   -0.0000   -0.0000    0.0000    0.0000   -0.0000
       20 FE2    2px       -0.0000    0.0001    0.0000   -0.0001    0.0000   -0.0000    0.0000    0.0000    0.0000   -0.0000
       21 FE2    3px       -0.0000    0.0013    0.0002   -0.0010    0.0001   -0.0000    0.0000    0.0001    0.0001   -0.0000
       22 FE2    4px        0.0000   -0.0056    0.0102    0.0082   -0.0008   -0.0000    0.0000    0.0031    0.0012    0.0000
       23 FE2    5px        0.0000   -0.0033    0.0040    0.0042   -0.0004   -0.0000    0.0000    0.0007    0.0003    0.0000
[...]
   6    -0.001705   -0.029009   -0.018301   -0.171740   -0.017783   -0.075940   -0.021401   -0.046188   -0.382067    0.000070
   7    -0.001705   -0.029009   -0.018301   -0.171742   -0.017783   -0.075940   -0.021401   -0.046188   -0.382070    0.000026
   8    -0.001705   -0.029009   -0.018301   -0.171741   -0.017783   -0.075940   -0.021401   -0.046188   -0.382068    0.000008
   9    -0.001705   -0.029009   -0.018301   -0.171741   -0.017783   -0.075940   -0.021401   -0.046188   -0.382068    0.000003
  10    -0.001705   -0.029009   -0.018301   -0.171741   -0.017783   -0.075940   -0.021401   -0.046188   -0.382068    0.000002
-------------------------------------------------------------------------------------------------------------------
 
  FINAL CASPT2 RESULT:
 
  Correlation energy /Case, /Symm, and sums:
 VJTU     -0.00170475 -0.00170475
 VJTIP    -0.00957015 -0.00957015
 VJTIM    -0.01943872 -0.01943872
 ATVX     -0.01830141 -0.01830141
 AIVX     -0.17174109 -0.17174109
 VJAIP    -0.01458144 -0.01458144
 VJAIM    -0.00320170 -0.00320170
 BVATP    -0.02137282 -0.02137282
 BVATM    -0.05456691 -0.05456691
 BJATP    -0.01250870 -0.01250870
 BJATM    -0.00889247 -0.00889247
 BJAIP    -0.03154721 -0.03154721
 BJAIM    -0.01464069 -0.01464069
 Summed:  -0.38206805 -0.38206805
 
      Reference energy:       -1345.4494654686
      E2 (Non-variational):      -0.3820680453
      E2 (Variational):          -0.3820680016
      Total energy:           -1345.8315334703
      Residual norm:              0.0000007894
      Reference weight:           0.93792
 
      Contributions to the CASPT2 correlation energy
      Active & Virtual Only:         -0.0942411357
      One Inactive Excited:          -0.1948470016
      Two Inactive Excited:          -0.0929799081
 
 
++ Denominators, etc.
----------------------------------------------------------------------------------------------------
 Report on small energy denominators, large coefficients, and large energy contributions.
CASE  SYMM ACTIVE-MIX  NON-ACTIVE INDICES          DENOMINATOR     RHS VALUE       COEFFICIENT     CONTRIBUTION
ATVX     1  Mu1.0001  Se1.026                      -0.16702140      0.00000000      0.00000000      0.00000000
ATVX     1  Mu1.0002  Se1.026                      -0.14866280     -0.00000000      0.00000000     -0.00000000
ATVX     1  Mu1.0003  Se1.026                      -0.14865025     -0.00000000     -0.00000000      0.00000000
ATVX     1  Mu1.0004  Se1.026                      -0.11006012      0.00000000      0.00000000      0.00000000
ATVX     1  Mu1.0005  Se1.026                      -0.06725090      0.00000000      0.00000000      0.00000000
ATVX     1  Mu1.0006  Se1.026                      -0.06725089      0.00000000      0.00000000      0.00000000
ATVX     1  Mu1.0007  Se1.026                       0.20515742     -0.00000000      0.00000000     -0.00000000
ATVX     1  Mu1.0008  Se1.026                       0.20515743     -0.00000000      0.00000000     -0.00000000
ATVX     1  Mu1.0009  Se1.026                       0.20670295      0.00000000     -0.00000000     -0.00000000
ATVX     1  Mu1.0010  Se1.026                       0.20670295     -0.00000000      0.00000000     -0.00000000
ATVX     1  Mu1.0011  Se1.026                       0.22371827      0.00000761     -0.00010702     -0.00000000
ATVX     1  Mu1.0012  Se1.026                       0.22374153      0.00002597     -0.00036522     -0.00000001
ATVX     1  Mu1.0013  Se1.026                       0.22509140      0.00000000     -0.00000002     -0.00000000
ATVX     1  Mu1.0014  Se1.026                       0.22510506      0.00000000     -0.00000002     -0.00000000
ATVX     1  Mu1.0015  Se1.026                       0.22696992     -0.00000000      0.00000000     -0.00000000
ATVX     1  Mu1.0016  Se1.026                       0.22764895      0.00000582     -0.00005910     -0.00000000
ATVX     1  Mu1.0017  Se1.026                       0.22766233      0.00000359     -0.00003641     -0.00000000
ATVX     1  Mu1.0018  Se1.026                       0.23119906     -0.00000000      0.00000000     -0.00000000
ATVX     1  Mu1.0019  Se1.026                       0.23121215     -0.00000000      0.00000000     -0.00000000
ATVX     1  Mu1.0020  Se1.026                       0.23306965      0.00000650     -0.00003792     -0.00000000
ATVX     1  Mu1.0021  Se1.026                       0.23321376     -0.00000026      0.00000154     -0.00000000
ATVX     1  Mu1.0022  Se1.026                       0.23806741     -0.00000000     -0.00000000      0.00000000
ATVX     1  Mu1.0023  Se1.026                       0.23806782      0.00000000     -0.00000000     -0.00000000
ATVX     1  Mu1.0024  Se1.026                       0.23952039      0.00000000     -0.00000000     -0.00000000
ATVX     1  Mu1.0025  Se1.026                       0.23967532      0.00000000     -0.00000000     -0.00000000
ATVX     1  Mu1.0026  Se1.026                       0.25711262     -0.00000000      0.00000000     -0.00000000
ATVX     1  Mu1.0027  Se1.026                       0.25713703     -0.00000000      0.00000000     -0.00000000
ATVX     1  Mu1.0028  Se1.026                       0.26372732      0.00000000     -0.00000000     -0.00000000
ATVX     1  Mu1.0029  Se1.026                       0.26374064     -0.00000000      0.00000000     -0.00000000
ATVX     1  Mu1.0030  Se1.026                       0.26583717     -0.00000000      0.00000000     -0.00000000
ATVX     1  Mu1.0031  Se1.026                       0.26583726      0.00000000     -0.00000000     -0.00000000
ATVX     1  Mu1.0032  Se1.026                       0.26654041      0.00000000     -0.00000000     -0.00000000
ATVX     1  Mu1.0033  Se1.026                       0.26656482     -0.00000000      0.00000000     -0.00000000
ATVX     1  Mu1.0034  Se1.026                       0.27538796      0.00102081     -0.00361815     -0.00000369
ATVX     1  Mu1.0035  Se1.026                       0.27764890     -0.00000000      0.00000000     -0.00000000
ATVX     1  Mu1.0036  Se1.026                       0.27766378     -0.00000000      0.00000000     -0.00000000
ATVX     1  Mu1.0037  Se1.026                       0.27997862     -0.00001296      0.00003746     -0.00000000
ATVX     1  Mu1.0038  Se1.026                       0.27999286      0.00002048     -0.00005916     -0.00000000
ATVX     1  Mu1.0039  Se1.026                       0.29881516     -0.00000000      0.00000000     -0.00000000
ATVX     1  Mu1.0040  Se1.026                       0.29887277      0.00000000     -0.00000000     -0.00000000
ATVX     1  Mu1.0001  Se1.027                      -0.01789949     -0.00000000      0.00000000     -0.00000000
ATVX     1  Mu1.0002  Se1.027                       0.00045911      0.00000000     -0.00000000     -0.00000000
ATVX     1  Mu1.0003  Se1.027                       0.00047167     -0.00000051     -0.00688344      0.00000000
ATVX     1  Mu1.0004  Se1.027                       0.03906180     -0.00000000     -0.00000000      0.00000000
ATVX     1  Mu1.0005  Se1.027                       0.08187102      0.00000818      0.00010755      0.00000000
ATVX     1  Mu1.0006  Se1.027                       0.08187103      0.00005458      0.00071776      0.00000004
ATVX     1  Mu1.0001  Se1.028                      -0.01789670     -0.00000000     -0.00000000      0.00000000
ATVX     1  Mu1.0002  Se1.028                       0.00046190     -0.00000051     -0.00703248      0.00000000
ATVX     1  Mu1.0003  Se1.028                       0.00047445      0.00000000      0.00000000      0.00000000
ATVX     1  Mu1.0004  Se1.028                       0.03906459     -0.00000000      0.00000000     -0.00000000
ATVX     1  Mu1.0005  Se1.028                       0.08187380     -0.00005458     -0.00071831      0.00000004
ATVX     1  Mu1.0006  Se1.028                       0.08187382      0.00000818      0.00010764      0.00000000
ATVX     1  Mu1.0001  Se1.029                       0.01764883     -0.00000000      0.00000000     -0.00000000
ATVX     1  Mu1.0002  Se1.029                       0.03600743      0.00000000     -0.00000000     -0.00000000
ATVX     1  Mu1.0003  Se1.029                       0.03601998      0.00000000     -0.00000000     -0.00000000
ATVX     1  Mu1.0004  Se1.029                       0.07461012     -0.00000000      0.00000000     -0.00000000
ATVX     1  Mu1.0005  Se1.029                       0.11741933     -0.00000000      0.00000000     -0.00000000
ATVX     1  Mu1.0006  Se1.029                       0.11741935     -0.00000000      0.00000000     -0.00000000
ATVX     1  Mu1.0001  Se1.030                       0.16570230      0.00000000     -0.00000000     -0.00000000
ATVX     1  Mu1.0002  Se1.030                       0.18406091     -0.00000000      0.00000000     -0.00000000
ATVX     1  Mu1.0003  Se1.030                       0.18407346     -0.00000000      0.00000000     -0.00000000
ATVX     1  Mu1.0004  Se1.030                       0.22266359      0.00000000     -0.00000000     -0.00000000
ATVX     1  Mu1.0005  Se1.030                       0.26547281      0.00000000     -0.00000000     -0.00000000
ATVX     1  Mu1.0006  Se1.030                       0.26547282      0.00000000     -0.00000000     -0.00000000
ATVX     1  Mu1.0220  Se1.031                       2.17775846      0.07166087     -0.03426120     -0.00245519
ATVX     1  Mu1.0221  Se1.032                       2.17775857     -0.07166085      0.03426119     -0.00245519
AIVX     1  Mu1.0105  In1.011 Se1.033               3.23628165      0.08174981     -0.02544442     -0.00208008
AIVX     1  Mu1.0169  In1.009 Se1.034               6.56634873      0.17878443     -0.02722753     -0.00486786
AIVX     1  Mu1.0169  In1.010 Se1.035               6.56635343      0.17878765     -0.02722801     -0.00486803
AIVX     1  Mu1.0027  In1.011 Se1.037               3.48022765      0.12886893     -0.03559111     -0.00458659
AIVX     1  Mu1.0059  In1.011 Se1.038               3.73015621      0.14891674     -0.03845255     -0.00572623
AIVX     1  Mu1.0031  In1.011 Se1.041               3.53182752      0.10129004     -0.02751253     -0.00278675
BVATM    1  Mu1.0001  Se1.032 Se1.031               1.97527087     -0.07121932      0.03634022     -0.00258813
BVATM    1  Mu1.0001  Se1.038 Se1.037               5.01190337      0.12970640     -0.02587969     -0.00335676
BJATP    1  Mu1.0002  In1.011 Se1.033 Se1.031       2.98149636     -0.08210241      0.02738675     -0.00224852
BJATP    1  Mu1.0001  In1.011 Se1.033 Se1.032       2.98149645     -0.08210242      0.02738675     -0.00224852
BJATM    1  Mu1.0002  In1.011 Se1.033 Se1.031       2.98149636      0.07739471     -0.02779906     -0.00215150
BJATM    1  Mu1.0001  In1.011 Se1.033 Se1.032       2.98149645      0.07739471     -0.02779906     -0.00215150
BJAIP    1  Se1.033 In1.011 Se1.033 In1.011         3.98767368      0.11909655     -0.03192019     -0.00380158
--
 
   (Skipping property calculation,
    use PROP keyword to activate)
--
 
  Total CASPT2 energies:
::    CASPT2 Root  1     Total energy:  -1345.83153347
 
  A NEW JOBIPH FILE NAMED 'JOBMIX' IS PREPARED.
********************************************************************************
--- Stop Module: caspt2 at Wed Dec 18 01:11:24 2024 /rc=_RC_ALL_IS_WELL_ ---
*** files: xmldump
    saved to directory /home/grierjones/DDCASPT2/iron_oxo_DDCASPT2/cluster/4.25
--- Module caspt2 spent 5 minutes 32 seconds ---

>>> EXPORT i = B

>>> EXPORT j = P

>>> IF (-FILE GMJ_e2_${i}_${j}.csv)

>>> COPY /tmp/4.25/GMJ_RHS_B_P.csv /home/grierjones/DDCASPT2/iron_oxo_DDCASPT2/cluster/4.25/GMJ_RHS_B_P.csv

>>> COPY /tmp/4.25/GMJ_IVECW_B_P.csv /home/grierjones/DDCASPT2/iron_oxo_DDCASPT2/cluster/4.25/GMJ_IVECW_B_P.csv

>>> COPY /tmp/4.25/GMJ_IVECX_B_P.csv /home/grierjones/DDCASPT2/iron_oxo_DDCASPT2/cluster/4.25/GMJ_IVECX_B_P.csv

>>> COPY /tmp/4.25/GMJ_IVECC2_B_P.csv /home/grierjones/DDCASPT2/iron_oxo_DDCASPT2/cluster/4.25/GMJ_IVECC2_B_P.csv

>>> COPY /tmp/4.25/GMJ_e2_B_P.csv /home/grierjones/DDCASPT2/iron_oxo_DDCASPT2/cluster/4.25/GMJ_e2_B_P.csv

>>> END FOREACH

>>> EXPORT j = M

>>> IF (-FILE GMJ_e2_${i}_${j}.csv)

>>> COPY /tmp/4.25/GMJ_RHS_B_M.csv /home/grierjones/DDCASPT2/iron_oxo_DDCASPT2/cluster/4.25/GMJ_RHS_B_M.csv

>>> COPY /tmp/4.25/GMJ_IVECW_B_M.csv /home/grierjones/DDCASPT2/iron_oxo_DDCASPT2/cluster/4.25/GMJ_IVECW_B_M.csv

>>> COPY /tmp/4.25/GMJ_IVECX_B_M.csv /home/grierjones/DDCASPT2/iron_oxo_DDCASPT2/cluster/4.25/GMJ_IVECX_B_M.csv

>>> COPY /tmp/4.25/GMJ_IVECC2_B_M.csv /home/grierjones/DDCASPT2/iron_oxo_DDCASPT2/cluster/4.25/GMJ_IVECC2_B_M.csv

>>> COPY /tmp/4.25/GMJ_e2_B_M.csv /home/grierjones/DDCASPT2/iron_oxo_DDCASPT2/cluster/4.25/GMJ_e2_B_M.csv

>>> END FOREACH

>>> END FOREACH

>>> EXPORT i = E

>>> EXPORT j = P

>>> IF (-FILE GMJ_e2_${i}_${j}.csv)

>>> COPY /tmp/4.25/GMJ_RHS_E_P.csv /home/grierjones/DDCASPT2/iron_oxo_DDCASPT2/cluster/4.25/GMJ_RHS_E_P.csv

>>> COPY /tmp/4.25/GMJ_IVECW_E_P.csv /home/grierjones/DDCASPT2/iron_oxo_DDCASPT2/cluster/4.25/GMJ_IVECW_E_P.csv

>>> COPY /tmp/4.25/GMJ_IVECX_E_P.csv /home/grierjones/DDCASPT2/iron_oxo_DDCASPT2/cluster/4.25/GMJ_IVECX_E_P.csv

>>> COPY /tmp/4.25/GMJ_IVECC2_E_P.csv /home/grierjones/DDCASPT2/iron_oxo_DDCASPT2/cluster/4.25/GMJ_IVECC2_E_P.csv

>>> COPY /tmp/4.25/GMJ_e2_E_P.csv /home/grierjones/DDCASPT2/iron_oxo_DDCASPT2/cluster/4.25/GMJ_e2_E_P.csv

>>> END FOREACH

>>> EXPORT j = M

>>> IF (-FILE GMJ_e2_${i}_${j}.csv)

>>> COPY /tmp/4.25/GMJ_RHS_E_M.csv /home/grierjones/DDCASPT2/iron_oxo_DDCASPT2/cluster/4.25/GMJ_RHS_E_M.csv

>>> COPY /tmp/4.25/GMJ_IVECW_E_M.csv /home/grierjones/DDCASPT2/iron_oxo_DDCASPT2/cluster/4.25/GMJ_IVECW_E_M.csv

>>> COPY /tmp/4.25/GMJ_IVECX_E_M.csv /home/grierjones/DDCASPT2/iron_oxo_DDCASPT2/cluster/4.25/GMJ_IVECX_E_M.csv

>>> COPY /tmp/4.25/GMJ_IVECC2_E_M.csv /home/grierjones/DDCASPT2/iron_oxo_DDCASPT2/cluster/4.25/GMJ_IVECC2_E_M.csv

>>> COPY /tmp/4.25/GMJ_e2_E_M.csv /home/grierjones/DDCASPT2/iron_oxo_DDCASPT2/cluster/4.25/GMJ_e2_E_M.csv

>>> END FOREACH

>>> END FOREACH

>>> EXPORT i = F

>>> EXPORT j = P

>>> IF (-FILE GMJ_e2_${i}_${j}.csv)

>>> COPY /tmp/4.25/GMJ_RHS_F_P.csv /home/grierjones/DDCASPT2/iron_oxo_DDCASPT2/cluster/4.25/GMJ_RHS_F_P.csv

>>> COPY /tmp/4.25/GMJ_IVECW_F_P.csv /home/grierjones/DDCASPT2/iron_oxo_DDCASPT2/cluster/4.25/GMJ_IVECW_F_P.csv

>>> COPY /tmp/4.25/GMJ_IVECX_F_P.csv /home/grierjones/DDCASPT2/iron_oxo_DDCASPT2/cluster/4.25/GMJ_IVECX_F_P.csv

>>> COPY /tmp/4.25/GMJ_IVECC2_F_P.csv /home/grierjones/DDCASPT2/iron_oxo_DDCASPT2/cluster/4.25/GMJ_IVECC2_F_P.csv

>>> COPY /tmp/4.25/GMJ_e2_F_P.csv /home/grierjones/DDCASPT2/iron_oxo_DDCASPT2/cluster/4.25/GMJ_e2_F_P.csv

>>> END FOREACH

>>> EXPORT j = M

>>> IF (-FILE GMJ_e2_${i}_${j}.csv)

>>> COPY /tmp/4.25/GMJ_RHS_F_M.csv /home/grierjones/DDCASPT2/iron_oxo_DDCASPT2/cluster/4.25/GMJ_RHS_F_M.csv

>>> COPY /tmp/4.25/GMJ_IVECW_F_M.csv /home/grierjones/DDCASPT2/iron_oxo_DDCASPT2/cluster/4.25/GMJ_IVECW_F_M.csv

>>> COPY /tmp/4.25/GMJ_IVECX_F_M.csv /home/grierjones/DDCASPT2/iron_oxo_DDCASPT2/cluster/4.25/GMJ_IVECX_F_M.csv

>>> COPY /tmp/4.25/GMJ_IVECC2_F_M.csv /home/grierjones/DDCASPT2/iron_oxo_DDCASPT2/cluster/4.25/GMJ_IVECC2_F_M.csv

>>> COPY /tmp/4.25/GMJ_e2_F_M.csv /home/grierjones/DDCASPT2/iron_oxo_DDCASPT2/cluster/4.25/GMJ_e2_F_M.csv

>>> END FOREACH

>>> END FOREACH

>>> EXPORT i = G

>>> EXPORT j = P

>>> IF (-FILE GMJ_e2_${i}_${j}.csv)

>>> COPY /tmp/4.25/GMJ_RHS_G_P.csv /home/grierjones/DDCASPT2/iron_oxo_DDCASPT2/cluster/4.25/GMJ_RHS_G_P.csv

>>> COPY /tmp/4.25/GMJ_IVECW_G_P.csv /home/grierjones/DDCASPT2/iron_oxo_DDCASPT2/cluster/4.25/GMJ_IVECW_G_P.csv

>>> COPY /tmp/4.25/GMJ_IVECX_G_P.csv /home/grierjones/DDCASPT2/iron_oxo_DDCASPT2/cluster/4.25/GMJ_IVECX_G_P.csv

>>> COPY /tmp/4.25/GMJ_IVECC2_G_P.csv /home/grierjones/DDCASPT2/iron_oxo_DDCASPT2/cluster/4.25/GMJ_IVECC2_G_P.csv

>>> COPY /tmp/4.25/GMJ_e2_G_P.csv /home/grierjones/DDCASPT2/iron_oxo_DDCASPT2/cluster/4.25/GMJ_e2_G_P.csv

>>> END FOREACH

>>> EXPORT j = M

>>> IF (-FILE GMJ_e2_${i}_${j}.csv)

>>> COPY /tmp/4.25/GMJ_RHS_G_M.csv /home/grierjones/DDCASPT2/iron_oxo_DDCASPT2/cluster/4.25/GMJ_RHS_G_M.csv

>>> COPY /tmp/4.25/GMJ_IVECW_G_M.csv /home/grierjones/DDCASPT2/iron_oxo_DDCASPT2/cluster/4.25/GMJ_IVECW_G_M.csv

>>> COPY /tmp/4.25/GMJ_IVECX_G_M.csv /home/grierjones/DDCASPT2/iron_oxo_DDCASPT2/cluster/4.25/GMJ_IVECX_G_M.csv

>>> COPY /tmp/4.25/GMJ_IVECC2_G_M.csv /home/grierjones/DDCASPT2/iron_oxo_DDCASPT2/cluster/4.25/GMJ_IVECC2_G_M.csv

>>> COPY /tmp/4.25/GMJ_e2_G_M.csv /home/grierjones/DDCASPT2/iron_oxo_DDCASPT2/cluster/4.25/GMJ_e2_G_M.csv

>>> END FOREACH

>>> END FOREACH

>>> EXPORT i = H

>>> EXPORT j = P

>>> IF (-FILE GMJ_e2_${i}_${j}.csv)

>>> COPY /tmp/4.25/GMJ_RHS_H_P.csv /home/grierjones/DDCASPT2/iron_oxo_DDCASPT2/cluster/4.25/GMJ_RHS_H_P.csv

>>> COPY /tmp/4.25/GMJ_IVECW_H_P.csv /home/grierjones/DDCASPT2/iron_oxo_DDCASPT2/cluster/4.25/GMJ_IVECW_H_P.csv

>>> COPY /tmp/4.25/GMJ_IVECX_H_P.csv /home/grierjones/DDCASPT2/iron_oxo_DDCASPT2/cluster/4.25/GMJ_IVECX_H_P.csv

>>> COPY /tmp/4.25/GMJ_IVECC2_H_P.csv /home/grierjones/DDCASPT2/iron_oxo_DDCASPT2/cluster/4.25/GMJ_IVECC2_H_P.csv

>>> COPY /tmp/4.25/GMJ_e2_H_P.csv /home/grierjones/DDCASPT2/iron_oxo_DDCASPT2/cluster/4.25/GMJ_e2_H_P.csv

>>> END FOREACH

>>> EXPORT j = M

>>> IF (-FILE GMJ_e2_${i}_${j}.csv)

>>> COPY /tmp/4.25/GMJ_RHS_H_M.csv /home/grierjones/DDCASPT2/iron_oxo_DDCASPT2/cluster/4.25/GMJ_RHS_H_M.csv

>>> COPY /tmp/4.25/GMJ_IVECW_H_M.csv /home/grierjones/DDCASPT2/iron_oxo_DDCASPT2/cluster/4.25/GMJ_IVECW_H_M.csv

>>> COPY /tmp/4.25/GMJ_IVECX_H_M.csv /home/grierjones/DDCASPT2/iron_oxo_DDCASPT2/cluster/4.25/GMJ_IVECX_H_M.csv

>>> COPY /tmp/4.25/GMJ_IVECC2_H_M.csv /home/grierjones/DDCASPT2/iron_oxo_DDCASPT2/cluster/4.25/GMJ_IVECC2_H_M.csv

>>> COPY /tmp/4.25/GMJ_e2_H_M.csv /home/grierjones/DDCASPT2/iron_oxo_DDCASPT2/cluster/4.25/GMJ_e2_H_M.csv

>>> END FOREACH

>>> END FOREACH

>>> EXPORT i = A

>>> IF (-FILE GMJ_e2_$i.csv)

>>> COPY /tmp/4.25/GMJ_RHS_A.csv /home/grierjones/DDCASPT2/iron_oxo_DDCASPT2/cluster/4.25/GMJ_RHS_A.csv

>>> COPY /tmp/4.25/GMJ_IVECW_A.csv /home/grierjones/DDCASPT2/iron_oxo_DDCASPT2/cluster/4.25/GMJ_IVECW_A.csv

>>> COPY /tmp/4.25/GMJ_IVECX_A.csv /home/grierjones/DDCASPT2/iron_oxo_DDCASPT2/cluster/4.25/GMJ_IVECX_A.csv

>>> COPY /tmp/4.25/GMJ_IVECC2_A.csv /home/grierjones/DDCASPT2/iron_oxo_DDCASPT2/cluster/4.25/GMJ_IVECC2_A.csv

>>> COPY /tmp/4.25/GMJ_e2_A.csv /home/grierjones/DDCASPT2/iron_oxo_DDCASPT2/cluster/4.25/GMJ_e2_A.csv

>>> END FOREACH

>>> EXPORT i = C

>>> IF (-FILE GMJ_e2_$i.csv)

>>> COPY /tmp/4.25/GMJ_RHS_C.csv /home/grierjones/DDCASPT2/iron_oxo_DDCASPT2/cluster/4.25/GMJ_RHS_C.csv

>>> COPY /tmp/4.25/GMJ_IVECW_C.csv /home/grierjones/DDCASPT2/iron_oxo_DDCASPT2/cluster/4.25/GMJ_IVECW_C.csv

>>> COPY /tmp/4.25/GMJ_IVECX_C.csv /home/grierjones/DDCASPT2/iron_oxo_DDCASPT2/cluster/4.25/GMJ_IVECX_C.csv

>>> COPY /tmp/4.25/GMJ_IVECC2_C.csv /home/grierjones/DDCASPT2/iron_oxo_DDCASPT2/cluster/4.25/GMJ_IVECC2_C.csv

>>> COPY /tmp/4.25/GMJ_e2_C.csv /home/grierjones/DDCASPT2/iron_oxo_DDCASPT2/cluster/4.25/GMJ_e2_C.csv

>>> END FOREACH

>>> EXPORT i = D

>>> IF (-FILE GMJ_e2_$i.csv)

>>> COPY /tmp/4.25/GMJ_RHS_D.csv /home/grierjones/DDCASPT2/iron_oxo_DDCASPT2/cluster/4.25/GMJ_RHS_D.csv

>>> COPY /tmp/4.25/GMJ_IVECW_D.csv /home/grierjones/DDCASPT2/iron_oxo_DDCASPT2/cluster/4.25/GMJ_IVECW_D.csv

>>> COPY /tmp/4.25/GMJ_IVECX_D.csv /home/grierjones/DDCASPT2/iron_oxo_DDCASPT2/cluster/4.25/GMJ_IVECX_D.csv

>>> COPY /tmp/4.25/GMJ_IVECC2_D.csv /home/grierjones/DDCASPT2/iron_oxo_DDCASPT2/cluster/4.25/GMJ_IVECC2_D.csv

>>> COPY /tmp/4.25/GMJ_e2_D.csv /home/grierjones/DDCASPT2/iron_oxo_DDCASPT2/cluster/4.25/GMJ_e2_D.csv

>>> END FOREACH

.########################.
.# Non-zero return code #.
.########################.

    Timing: Wall=436.36 User=432.83 System=3.41
************************************
*** WorkDir at /tmp/4.25 cleaned ***
************************************
