   This run of MOLCAS is using the pymolcas driver

                             OPE
                             OPE          NMOL  CASOP  ENMOLC A   SO
                 OPE        NMOLC        AS  OP EN  MO LC     AS  OP
                OPENM       OL CA        SO  PE NM  OL CA     SOP EN
                OP EN      MO   LC       AS  OP ENMOL  CASO   PENMOL
                OP  EN     MO   LC       AS  OP EN     MO     LC ASO
               OP   E  NMOL  C  AS       OP  EN MO     LC     AS  OP
               OP  E   NMO   LC AS        OPEN  MO     LCASOP EN   M
               O  PEN   MO  LCA  SO
            OPE   NMO   L   CAS    OP
        OPENMOL  CASOP     ENMOL   CASOPE
     OPENMOLCA   SOPENMOLCASOPEN   MOLCASOPE
    OPENMOLCAS   OP           EN   MOL    CAS
    OPENMOLCAS       OP  ENM        O     LCA
    OPENMOLCAS    OPEN  MOLCASO     P  E  NMO
    OPENMOLCAS     OP               E  N  MOL
    OPENMOLCA   SO           PENM   O  L  CAS    OPEN    MO    LCAS
    OPENMOLCA   SOP           ENM   O  L  CAS   OP  EN  MOLC  AS   O
    OPENMOLCA   SOPE           NM      O  LCA   S      OP  EN MO
    OPENMOLC                AS         O  PEN   M      OL  CA  SOPE
    OPENMO        LCASOPE  NMOL        C  ASO   P      ENMOLC     AS
    OPE     NMO      LCA  SO     P     E   NM   OL  CA SO  PE N   MO
          OPENMOLCA            SOPE   NMO        LCAS  O    P  ENMO
     OPENMOLCASOPENMOLCASOPENMOLCASOPENMOLCA
        OPENMOLCASOPENMOLCASOPENMOLCASOPE
            OPENMOLCASOPENMOLCASOPENM
               OPENMOLCASOPENMOLCA        version: ea724fe96-dirty
                   OPENMOLCASO
                       OPE                tag:

 OpenMolcas is free software; you can redistribute it and/or modify it
 under the terms of the GNU Lesser General Public License version 2.1.
 OpenMolcas is distributed in the hope that it will be useful, but it
 is provided "as is" and without any express or implied warranties.
 For more details see the full text of the license in the file
 LICENSE or in <http://www.gnu.org/licenses/>.

                 Copyright (C) The OpenMolcas Authors
           For the author list and the recommended citation,
                   consult the file CONTRIBUTORS.md

           *************************************************
           * pymolcas version py2.28                       *
           *   build c4a6d18ded8cb6cad61d2372a9abd97c      *
           *   (after the EMIL interpreter by V. Veryazov) *
           *************************************************

configuration info
------------------
C Compiler ID: Intel
C flags: -std=gnu99
Fortran Compiler ID: Intel
Fortran flags: -fpp -i8 -r8 -heap-arrays
Definitions: _MOLCAS_;_I8_;_LINUX_
Parallel: OFF (GA=OFF)


   -------------------------------------------------------------------------------
  |
  |              Project: 7.96
  |       Submitted from: /home/grierjones/DDCASPT2/iron_oxo_DDCASPT2/cluster/7.96
  |         Scratch area: /tmp/7.96
  |      Save outputs to: /home/grierjones/DDCASPT2/iron_oxo_DDCASPT2/cluster/7.96
  |               Molcas: /home/grierjones/Test/build
  |
  | Scratch area is empty
  |
  |       MOLCAS_DRIVER = /usr/local/pymolcas
  | MOLCAS_KEEP_WORKDIR = NO
  |  MOLCAS_NEW_WORKDIR = YES
  |       MOLCAS_NPROCS = 1
  |        MOLCAS_PRINT = NORMAL
  |       MOLCAS_SOURCE = /home/grierjones/Test/build
  |    MOLCAS_STRUCTURE = 0
  |
   -------------------------------------------------------------------------------

++ ---------   Input file   ---------

&GATEWAY
coord=7.96.xyz
Basis = ANO-RCC-VDZP
Group = nosymm
Expert
End of Input

&SEWARD
End of Input

&SCF
UHF
charge
2
spin
5

>>> COPY $WorkDir/7.96.scf.h5 $CurrDir/

&RASSCF
Title= RASSCF
FileOrb
/home/grierjones/DDCASPT2/iron_oxo_DDCASPT2/cluster/7.95/7.95.RasOrb
NACTEL
10 0 0
RAS2
14
Symmetry
1
Spin
5
charge
2
orblisting
all
ITERation
300 200

>>> COPY $WorkDir/7.96.rasscf.h5 $CurrDir/

>>> COPY $WorkDir/GMJ_Fock_MO.csv $CurrDir/7.96.GMJ_Fock_MO.csv

>>> COPY $WorkDir/GMJ_PT2_Fock_MO.csv $CurrDir/7.96.GMJ_PT2_Fock_MO.csv

&MOTRA
Frozen=0
LUMORB

>>> COPY $WorkDir/GMJ_one_int_indx.csv $CurrDir/7.96.GMJ_one_int_indx.csv

>>> COPY $WorkDir/GMJ_one_int.csv $CurrDir/7.96.GMJ_one_int.csv

>>> COPY $WorkDir/GMJ_two_int_indx.csv $CurrDir/7.96.GMJ_two_int_indx.csv

>>> COPY $WorkDir/GMJ_two_int.csv $CurrDir/7.96.GMJ_two_int.csv

&CASPT2
Frozen
0
MAXITER
50

>>> FOREACH i IN (B,E,F,G,H)

  >>> FOREACH j IN (P,M)

    >>> IF (-FILE GMJ_e2_${i}_${j}.csv)

      >>> COPY $WorkDir/GMJ_RHS_${i}_${j}.csv $CurrDir/GMJ_RHS_${i}_${j}.csv

      >>> COPY $WorkDir/GMJ_IVECW_${i}_${j}.csv $CurrDir/GMJ_IVECW_${i}_${j}.csv

      >>> COPY $WorkDir/GMJ_IVECX_${i}_${j}.csv $CurrDir/GMJ_IVECX_${i}_${j}.csv

      >>> COPY $WorkDir/GMJ_IVECC2_${i}_${j}.csv $CurrDir/GMJ_IVECC2_${i}_${j}.csv

      >>> COPY $WorkDir/GMJ_e2_${i}_${j}.csv $CurrDir/GMJ_e2_${i}_${j}.csv

    >>> END IF

  >>> END FOREACH

>>> END FOREACH

>>> FOREACH i IN (A,C,D)

  >>> IF (-FILE GMJ_e2_$i.csv)

    >>> COPY $WorkDir/GMJ_RHS_$i.csv $CurrDir/GMJ_RHS_$i.csv

    >>> COPY $WorkDir/GMJ_IVECW_$i.csv $CurrDir/GMJ_IVECW_$i.csv

    >>> COPY $WorkDir/GMJ_IVECX_$i.csv $CurrDir/GMJ_IVECX_$i.csv

    >>> COPY $WorkDir/GMJ_IVECC2_$i.csv $CurrDir/GMJ_IVECC2_$i.csv

    >>> COPY $WorkDir/GMJ_e2_$i.csv $CurrDir/GMJ_e2_$i.csv

  >>> END IF

>>> END FOREACH

-- ----------------------------------

--- Start Module: gateway at Sun Dec 22 16:48:01 2024 ---
 
()()()()()()()()()()()()()()()()()()()()()()()()()()()()()()()()()()()()()()()()()()()()()()()()()()

                                              &GATEWAY

                                   only a single process is used
                       available to each process: 2.0 GB of memory, 1 thread?
()()()()()()()()()()()()()()()()()()()()()()()()()()()()()()()()()()()()()()()()()()()()()()()()()()
 
 ###############################################################################
 ###############################################################################
 ###                                                                         ###
 ###                                                                         ###
 ###                                                                         ###
 ###    WARNING: EXPERT option is ON!                                        ###
 ###                                                                         ###
 ###                                                                         ###
 ###############################################################################
 ###############################################################################
 
++    Symmetry information:
      ---------------------
 
                    Character Table for C1 
 
                             E  
                    a        1  x, y, xy, Rz, z, xz, Ry, yz, Rx, I
--
 
 
++    Basis set information:
      ----------------------
 
 
      Basis set label: O.ANO-RCC...3S2P1D.
 
      Electronic valence basis set:
      ------------------
      Associated Effective Charge   8.000000 au
      Associated Actual Charge      8.000000 au
      Nuclear Model: Point charge
 
      Shell  nPrim  nBasis  Cartesian Spherical Contaminant
         s      14       3        X                  
         p       9       2        X                  
         d       4       1                 X         
 
 
      Basis set label: FE.ANO-RCC...5S4P2D1F.
 
      Electronic valence basis set:
      ------------------
      Associated Effective Charge  26.000000 au
      Associated Actual Charge     26.000000 au
      Nuclear Model: Point charge
 
      Shell  nPrim  nBasis  Cartesian Spherical Contaminant
         s      21       5        X                  
         p      15       4        X                  
         d      10       2                 X         
         f       6       1                 X         
--
 
 
++    Molecular structure info:
      -------------------------
 
                    ************************************************ 
                    **** Cartesian Coordinates / Bohr, Angstrom **** 
                    ************************************************ 
 
     Center  Label                x              y              z                     x              y              z
        1      O1               0.000000       0.000000       9.033193              0.000000       0.000000       4.780160
        2      FE2              0.000000       0.000000      -6.009631              0.000000       0.000000      -3.180160
--
 
 
            Nuclear Potential Energy             13.82719034 au
 
 ###############################################################################
 ###############################################################################
 ###                                                                         ###
 ###                                                                         ###
 ###    There were warnings during the execution                             ###
 ###    Please, check the output with care!                                  ###
 ###                                                                         ###
 ###                                                                         ###
 ###############################################################################
 ###############################################################################
--- Stop Module: gateway at Sun Dec 22 16:48:01 2024 /rc=_RC_ALL_IS_WELL_ ---
*** files: xmldump
    saved to directory /home/grierjones/DDCASPT2/iron_oxo_DDCASPT2/cluster/7.96

--- Start Module: seward at Sun Dec 22 16:48:01 2024 ---
 
()()()()()()()()()()()()()()()()()()()()()()()()()()()()()()()()()()()()()()()()()()()()()()()()()()

                                              &SEWARD

                                   only a single process is used
                       available to each process: 2.0 GB of memory, 1 thread?
()()()()()()()()()()()()()()()()()()()()()()()()()()()()()()()()()()()()()()()()()()()()()()()()()()
 
 ###############################################################################
 ###############################################################################
 ###                                                                         ###
 ###                                                                         ###
 ###                                                                         ###
 ###    WARNING: EXPERT option is ON!                                        ###
 ###                                                                         ###
 ###                                                                         ###
 ###############################################################################
 ###############################################################################
               SEWARD will generate:
                  Multipole Moment integrals up to order  2
                  Kinetic Energy integrals
                  Nuclear Attraction integrals (point charge)
                  One-Electron Hamiltonian integrals
                  Velocity integrals
                  Relativistic Douglas-Kroll-Hess integrals:
                    - Parametrization         : EXP
                    - DKH order of Hamiltonian: 2
                    - DKH order of Properties : 0
                         - multipole moment operators
                         - electric potential operators
                         - contact operators
                  Atomic mean-field integrals
                  Two-Electron Repulsion integrals
 
                   Integrals are discarded if absolute value <: 0.10E-13
                   Integral cutoff threshold is set to       <: 0.10E-15
 
            Nuclear Potential Energy             13.82719034 au
 
 
      Basis set specifications :
      Symmetry species         a  
      Basis functions           48
 
 
  Input file to MOLDEN was generated!
 
 ###############################################################################
 ###############################################################################
 ###                                                                         ###
 ###                                                                         ###
 ###    There were warnings during the execution                             ###
 ###    Please, check the output with care!                                  ###
 ###                                                                         ###
 ###                                                                         ###
 ###############################################################################
 ###############################################################################
--- Stop Module: seward at Sun Dec 22 16:48:02 2024 /rc=_RC_ALL_IS_WELL_ ---
*** files: 7.96.GssOrb 7.96.guessorb.h5 7.96.guessorb.molden xmldump
    saved to directory /home/grierjones/DDCASPT2/iron_oxo_DDCASPT2/cluster/7.96

*** symbolic link created: INPORB -> 7.96.GssOrb
--- Start Module: scf at Sun Dec 22 16:48:02 2024 ---
 
()()()()()()()()()()()()()()()()()()()()()()()()()()()()()()()()()()()()()()()()()()()()()()()()()()

                                                &SCF

                                   only a single process is used
                       available to each process: 2.0 GB of memory, 1 thread?
()()()()()()()()()()()()()()()()()()()()()()()()()()()()()()()()()()()()()()()()()()()()()()()()()()
 
 *** Possible bug in opening file
 *** isFreeUnit resets the unit number
++    Input section:
      --------------
 
      Header of the integral files:
      
       Integrals generated by seward 4.2.0  , Sun Dec 22 16:48:01 2024
 
 
      Cartesian coordinates in Angstrom:
      -----------------------------------------------------
      No.  Label        X            Y            Z        
      -----------------------------------------------------
       1   O1         0.00000000   0.00000000   4.78016000
       2   FE2        0.00000000   0.00000000  -3.18016000
      -----------------------------------------------------
      Nuclear repulsion energy =   13.82719034
--
 
++    Orbital specifications:
      -----------------------
 
      Symmetry species               1
                                     a
      Frozen orbitals                0
      Start temperature = 0.500
      End temperature   = 0.010
      Temperature Factor= 0.460
      Deleted orbitals               0
      Total number of orbitals      48
      Number of basis functions     48
--
 
      Molecular charge                           2.000
 
++    Optimization specifications:
      ----------------------------
 
      SCF Algorithm: Conventional USCF
      D(i)-D(i-1) density differences are used
      Number of density matrices in core                5
      Maximum number of NDDO SCF iterations           400
      Maximum number of HF SCF iterations             400
      Threshold for SCF energy change            0.10E-08
      Threshold for density matrix               0.10E-03
      Threshold for Fock matrix                  0.15E-03
      Threshold for linear dependence            0.10E-08
      Threshold at which DIIS is turned on       0.15E+00
      Threshold at which QNR/C2DIIS is turned on 0.75E-01
      Threshold for Norm(delta) (QNR/C2DIIS)     0.20E-04
      DIIS extrapolation of the SCF procedure
      All orbitals punched on: UHFORB
--
 
      Input vectors read from INPORB
      Orbital file label: *Guess orbitals
 
 
++ Convergence information
                               UHF SCF        iterations: Energy and convergence statistics
 
Iter     Tot. SCF        One-elec.       Two-elec.     Energy      Max Dij or  Max Fij      DNorm      TNorm      AccCon     Time
         Energy          Energy          Energy        Change      Delta Norm                                                in Sec.
 
 The total and one-electron energies are shifted by a value of      1000. a.u.
 
   1  -343.334373820  -862.412882666   505.251318505   0.00E+00    0.16E+00*   0.35E+00*    0.75E+01   0.18E+03   None         0.
   2  -343.514438144  -858.556965093   501.215336608  -0.18E+00*   0.11E+00*   0.13E+00*    0.10E+01   0.17E+03   EDIIS        0.
   3  -341.582153646  -906.687779206   551.278435218   0.19E+01*   0.61E-01*   0.13E+00*    0.18E+01   0.18E+03   EDIIS        0.
   4  -342.712838886  -844.950533118   488.410503890  -0.11E+01*   0.77E-01*   0.59E-01*    0.15E+01   0.17E+03   EDIIS        0.
   5  -344.058307838  -880.465695403   522.580197224  -0.13E+01*   0.28E-01*   0.33E-01*    0.86E+00   0.18E+03   EDIIS        0.
   6  -344.032434783  -851.204433155   493.344808030   0.26E-01*   0.79E-01*   0.69E-01*    0.18E+01   0.17E+03   EDIIS        0.
   7  -343.931896730  -887.121778167   529.362691096   0.10E+00*   0.75E-01*   0.34E-01*    0.14E+01   0.18E+03   EDIIS        0.
   8  -344.347050425  -854.407954101   496.233713334  -0.42E+00*   0.31E-01*   0.33E-01*    0.10E+01   0.17E+03   EDIIS        0.
   9  -344.132844161  -880.072920136   522.112885633   0.21E+00*   0.18E+00*   0.11E+00*    0.23E+01   0.18E+03   EDIIS        0.
  10  -345.032930224  -873.158546009   514.298425444  -0.90E+00*   0.15E+00*   0.92E-01*    0.13E+01   0.18E+03   EDIIS        0.
  11  -345.156035888  -856.174417289   497.191191059  -0.12E+00*   0.16E+00*   0.17E+00*    0.16E+01   0.17E+03   EDIIS        0.
  12  -345.291114637  -862.367976400   503.249671421  -0.14E+00*   0.81E-01*   0.89E-01*    0.72E+00   0.18E+03   EDIIS        0.
  13  -345.297057751  -861.763088386   502.638840294  -0.59E-02*   0.25E-01*   0.16E-01*    0.17E+00   0.18E+03   EDIIS        0.
 
       Fermi aufbau procedure completed!
      nOcc(alpha)=   18
      nOcc(beta) =   14
 
  14  -345.297908526  -862.042725803   502.917626935  -0.85E-03*   0.16E-01*   0.92E-02*    0.64E-01   0.18E+03   EDIIS        0.
  15  -345.298103034  -861.962020988   502.836727612  -0.19E-03*   0.74E-02*   0.41E-02*    0.29E-01   0.18E+03   EDIIS        0.
  16  -345.298157084  -861.995186279   502.869838853  -0.54E-04*   0.47E-02*   0.26E-02*    0.15E-01   0.18E+03   EDIIS        0.
  17  -345.298173590  -861.983987490   502.858623558  -0.17E-04*   0.26E-02*   0.14E-02*    0.83E-02   0.18E+03   EDIIS        0.
  18  -345.298178875  -861.988302572   502.862933356  -0.53E-05*   0.32E-03*   0.18E-02*    0.47E-02   0.18E+03   c2DIIS       0.
  19  -345.298181446  -861.984820515   502.859448728  -0.26E-05*   0.27E-03*   0.10E-03     0.79E-03   0.18E+03   QNRc2DIIS    0.
  20  -345.298181478  -861.987900877   502.862529058  -0.32E-07*   0.23E-03*   0.54E-04     0.38E-03   0.18E+03   QNRc2DIIS    0.
  21  -345.298181490  -861.987450368   502.862078537  -0.12E-07*   0.82E-04*   0.18E-04     0.32E-03   0.18E+03   QNRc2DIIS    0.
  22  -345.298181491  -861.987025022   502.861653189  -0.12E-08*   0.12E-04    0.27E-05     0.12E-03   0.18E+03   QNRc2DIIS    0.
  23  -345.298181491  -861.987027895   502.861656062  -0.27E-10    0.18E-05    0.71E-06     0.17E-04   0.18E+03   QNRc2DIIS    0.
 
       Convergence after 23 Macro Iterations
--
 
 *****************************************************************************************************************************
 *                                                                                                                           *
 *                                             SCF/KS-DFT Program, Final results                                             *
 *                                                                                                                           *
 *                                                                                                                           *
 *                                                                                                                           *
 *                                                       Final Results                                                       *
 *                                                                                                                           *
 *****************************************************************************************************************************
 
::    Total SCF energy                              -1345.2981814910
      One-electron energy                           -1861.9870278949
      Two-electron energy                             502.8616560623
      Nuclear repulsion energy                         13.8271903415
      Kinetic energy (interpolated)                  1399.7989126712
      Virial theorem                                    0.9610653140
      Total spin, S(S+1)                                8.0092211846
      Total spin, S                                     2.3738860772
      Max non-diagonal density matrix element           0.0000013476
      Max non-diagonal Fock matrix element              0.0000002441
 
 
      All orbitals with orbital energies smaller than  E(LUMO)+0.5 are printed
 
++    Molecular orbitals:
      -------------------
 
      Title: UHF orbitals (alpha)

      Molecular orbitals for symmetry species 1: a  
 
          Orbital            1         2         3         4         5         6         7         8         9        10    
          Energy         -264.6184  -33.4960  -28.5598  -28.5598  -28.5598  -20.7667   -5.4441   -3.9841   -3.9841   -3.9841
          Occ. No.          1.0000    1.0000    1.0000    1.0000    1.0000    1.0000    1.0000    1.0000    1.0000    1.0000
 
        1 O1     1s         0.0000   -0.0000   -0.0000    0.0000    0.0000    1.0000   -0.0000   -0.0000    0.0000   -0.0000
        2 O1     2s         0.0000   -0.0000   -0.0000    0.0000    0.0000   -0.0022   -0.0000   -0.0000    0.0000   -0.0000
        3 O1     3s         0.0000   -0.0000   -0.0000    0.0000    0.0000    0.0004   -0.0000   -0.0000    0.0000   -0.0000
        4 O1     2px       -0.0000    0.0000   -0.0000   -0.0000   -0.0000    0.0000   -0.0000   -0.0000    0.0000    0.0000
        5 O1     3px        0.0000   -0.0000   -0.0000   -0.0000   -0.0000   -0.0000    0.0000   -0.0000    0.0000    0.0000
        6 O1     2py        0.0000   -0.0000   -0.0000    0.0000   -0.0000   -0.0000   -0.0000   -0.0000   -0.0000   -0.0000
        7 O1     3py       -0.0000   -0.0000   -0.0000    0.0000   -0.0000    0.0000   -0.0000   -0.0000   -0.0000   -0.0000
        8 O1     2pz       -0.0000    0.0000    0.0000   -0.0000   -0.0000   -0.0000    0.0000    0.0000   -0.0000    0.0000
        9 O1     3pz       -0.0000    0.0000    0.0000   -0.0000   -0.0000    0.0000    0.0001    0.0000   -0.0000    0.0001
       10 O1     3d2-       0.0000   -0.0000   -0.0000    0.0000    0.0000    0.0000   -0.0000   -0.0000   -0.0000    0.0000
       11 O1     3d1-      -0.0000    0.0000    0.0000   -0.0000    0.0000    0.0000    0.0000    0.0000    0.0000   -0.0000
       12 O1     3d0        0.0000   -0.0000   -0.0000    0.0000    0.0000    0.0009   -0.0000   -0.0000    0.0000   -0.0000
       13 O1     3d1+      -0.0000   -0.0000    0.0000    0.0000    0.0000    0.0000    0.0000    0.0000   -0.0000   -0.0000
       14 O1     3d2+       0.0000   -0.0000   -0.0000   -0.0000   -0.0000    0.0000   -0.0000   -0.0000    0.0000   -0.0000
       15 FE2    1s         1.0000   -0.0000   -0.0000    0.0000    0.0000   -0.0000    0.0000   -0.0000    0.0000    0.0000
       16 FE2    2s         0.0000    1.0000   -0.0000    0.0000    0.0000    0.0000   -0.0035   -0.0000    0.0000   -0.0000
       17 FE2    3s        -0.0000    0.0035    0.0000   -0.0000   -0.0000    0.0000    0.9999    0.0000   -0.0000   -0.0000
       18 FE2    4s         0.0000   -0.0003    0.0000   -0.0000   -0.0000   -0.0000   -0.0077   -0.0000    0.0000   -0.0000
       19 FE2    5s        -0.0000    0.0004    0.0000   -0.0000   -0.0000   -0.0000    0.0081    0.0000   -0.0000    0.0000
       20 FE2    2px        0.0000   -0.0000    0.0000    0.9999    0.0138    0.0000   -0.0000   -0.0035    0.0001    0.0000
       21 FE2    3px        0.0000   -0.0000    0.0000    0.0035    0.0000    0.0000   -0.0000    0.9995   -0.0156   -0.0000
       22 FE2    4px        0.0000    0.0000   -0.0000   -0.0006   -0.0000   -0.0000    0.0000   -0.0192    0.0003    0.0000
       23 FE2    5px        0.0000   -0.0000    0.0000    0.0015    0.0000    0.0000   -0.0000    0.0182   -0.0003   -0.0000
       24 FE2    2py        0.0000   -0.0000    0.0000   -0.0138    0.9999   -0.0000   -0.0000   -0.0001   -0.0035   -0.0000
       25 FE2    3py       -0.0000   -0.0000    0.0000   -0.0000    0.0035   -0.0000    0.0000    0.0156    0.9995    0.0000
       26 FE2    4py        0.0000    0.0000   -0.0000    0.0000   -0.0006    0.0000    0.0000   -0.0003   -0.0192   -0.0000
       27 FE2    5py       -0.0000   -0.0000    0.0000   -0.0000    0.0015   -0.0000   -0.0000    0.0003    0.0182    0.0000
       28 FE2    2pz        0.0000    0.0000    1.0000   -0.0000   -0.0000    0.0000   -0.0000   -0.0000    0.0000   -0.0035
       29 FE2    3pz       -0.0000    0.0000    0.0035   -0.0000   -0.0000    0.0000    0.0000    0.0000   -0.0000    0.9996
       30 FE2    4pz       -0.0000    0.0000   -0.0006    0.0000    0.0000   -0.0000    0.0000   -0.0000    0.0000   -0.0192
       31 FE2    5pz       -0.0000    0.0000    0.0015   -0.0000   -0.0000   -0.0000    0.0000    0.0000   -0.0000    0.0182
       32 FE2    3d2-       0.0000   -0.0000    0.0000   -0.0000   -0.0000   -0.0000    0.0000   -0.0000    0.0000    0.0000
       33 FE2    4d2-      -0.0000    0.0000   -0.0000    0.0000    0.0000    0.0000   -0.0000    0.0000    0.0000   -0.0000
       34 FE2    3d1-       0.0000   -0.0000    0.0000   -0.0000    0.0000   -0.0000   -0.0000    0.0000    0.0000    0.0000
       35 FE2    4d1-      -0.0000    0.0000   -0.0000    0.0000   -0.0000    0.0000    0.0000   -0.0000   -0.0000   -0.0000
       36 FE2    3d0       -0.0000    0.0000    0.0000   -0.0000   -0.0000   -0.0000   -0.0000    0.0000   -0.0000    0.0000
       37 FE2    4d0       -0.0000    0.0000    0.0000   -0.0000   -0.0000   -0.0000    0.0000   -0.0000    0.0000   -0.0000
       38 FE2    3d1+       0.0000   -0.0000    0.0000    0.0000    0.0000   -0.0000    0.0000    0.0000   -0.0000   -0.0000
       39 FE2    4d1+      -0.0000    0.0000   -0.0000   -0.0000   -0.0000    0.0000   -0.0000   -0.0000    0.0000    0.0000
       40 FE2    3d2+      -0.0000    0.0000    0.0000   -0.0000   -0.0000   -0.0000   -0.0000    0.0000   -0.0000   -0.0000
       41 FE2    4d2+       0.0000   -0.0000   -0.0000    0.0000    0.0000   -0.0000    0.0000   -0.0000    0.0000    0.0000
       42 FE2    4f3-       0.0000   -0.0000    0.0000   -0.0000   -0.0000   -0.0000   -0.0000   -0.0000    0.0000    0.0000
       43 FE2    4f2-      -0.0000    0.0000    0.0000    0.0000   -0.0000    0.0000   -0.0000    0.0000    0.0000   -0.0000
       44 FE2    4f1-      -0.0000    0.0000   -0.0000    0.0000   -0.0000    0.0000    0.0000   -0.0000   -0.0000   -0.0000
       45 FE2    4f0       -0.0000    0.0000    0.0000   -0.0000    0.0000   -0.0000   -0.0000   -0.0000    0.0000   -0.0000
       46 FE2    4f1+      -0.0000    0.0000   -0.0000   -0.0000   -0.0000   -0.0000   -0.0000   -0.0000    0.0000    0.0000
       47 FE2    4f2+       0.0000   -0.0000    0.0000    0.0000   -0.0000   -0.0000    0.0000   -0.0000   -0.0000   -0.0000
       48 FE2    4f3+      -0.0000    0.0000   -0.0000    0.0000   -0.0000   -0.0000   -0.0000   -0.0000   -0.0000   -0.0000
 
          Orbital           11        12        13        14        15        16        17        18        19        20    
          Energy           -1.6647   -1.6647   -1.6647   -1.6647   -1.6647   -1.2121   -0.9516   -0.6517   -0.4834   -0.4834
          Occ. No.          1.0000    1.0000    1.0000    1.0000    1.0000    1.0000    1.0000    1.0000    0.0000    0.0000
 
        1 O1     1s         0.0000    0.0000    0.0000    0.0000    0.0000    0.0021    0.0000    0.0000   -0.0000    0.0000
        2 O1     2s         0.0000    0.0000    0.0000    0.0000    0.0000    0.9993    0.0004    0.0071   -0.0000    0.0000
        3 O1     3s         0.0000    0.0000    0.0000    0.0000    0.0000    0.0221    0.0005   -0.0044   -0.0000    0.0000
        4 O1     2px        0.0000   -0.0000    0.0000   -0.0000   -0.0000   -0.0000    0.0000    0.0000   -0.0001   -0.0001
        5 O1     3px        0.0000   -0.0000    0.0000   -0.0000   -0.0000    0.0000   -0.0000    0.0000   -0.0001   -0.0002
        6 O1     2py        0.0000   -0.0000    0.0000    0.0000   -0.0000    0.0000   -0.0000    0.0000   -0.0001    0.0001
        7 O1     3py        0.0000    0.0000    0.0000    0.0000   -0.0000   -0.0000   -0.0000    0.0000   -0.0002    0.0001
        8 O1     2pz       -0.0000   -0.0000   -0.0000   -0.0000   -0.0000   -0.0069   -0.0008    0.9988    0.0000    0.0000
        9 O1     3pz       -0.0000   -0.0000   -0.0000   -0.0000   -0.0001   -0.0025   -0.0017    0.0480    0.0000   -0.0000
       10 O1     3d2-       0.0000   -0.0000   -0.0000   -0.0000    0.0000    0.0000    0.0000   -0.0000    0.0000    0.0000
       11 O1     3d1-      -0.0000   -0.0000   -0.0000   -0.0000    0.0000    0.0000   -0.0000   -0.0000    0.0000   -0.0000
       12 O1     3d0        0.0000    0.0000    0.0000    0.0000    0.0000    0.0290    0.0000   -0.0021   -0.0000    0.0000
       13 O1     3d1+       0.0000    0.0000   -0.0000    0.0000    0.0000    0.0000   -0.0000   -0.0000    0.0000    0.0000
       14 O1     3d2+       0.0000    0.0000    0.0000    0.0000    0.0000    0.0000   -0.0000    0.0000    0.0000    0.0000
       15 FE2    1s        -0.0000    0.0000   -0.0000   -0.0000    0.0000   -0.0000   -0.0000    0.0000   -0.0000   -0.0000
       16 FE2    2s         0.0000   -0.0000    0.0000    0.0000   -0.0000    0.0000    0.0004    0.0000   -0.0000   -0.0000
       17 FE2    3s        -0.0000    0.0000   -0.0000    0.0000    0.0000    0.0000    0.0101    0.0000   -0.0000   -0.0000
       18 FE2    4s        -0.0000   -0.0000   -0.0000   -0.0000   -0.0000    0.0000    0.9290    0.0005   -0.0000    0.0000
       19 FE2    5s         0.0000    0.0000    0.0000    0.0000    0.0000   -0.0001   -0.3700    0.0007    0.0000   -0.0000
       20 FE2    2px        0.0000    0.0000   -0.0000    0.0000   -0.0000   -0.0000   -0.0000    0.0000    0.0002    0.0004
       21 FE2    3px       -0.0000    0.0000   -0.0000    0.0000   -0.0000    0.0000    0.0000   -0.0000    0.0084    0.0166
       22 FE2    4px       -0.0000    0.0000   -0.0000    0.0000   -0.0000   -0.0000   -0.0000   -0.0000    0.4505    0.8920
       23 FE2    5px       -0.0000    0.0000    0.0000   -0.0000    0.0000   -0.0000   -0.0000    0.0000    0.0145    0.0288
       24 FE2    2py        0.0000    0.0000   -0.0000   -0.0000   -0.0000    0.0000    0.0000   -0.0000    0.0004   -0.0002
       25 FE2    3py       -0.0000    0.0000   -0.0000   -0.0000    0.0000   -0.0000   -0.0000    0.0000    0.0166   -0.0084
       26 FE2    4py       -0.0000   -0.0000   -0.0000   -0.0000    0.0000   -0.0000    0.0000   -0.0000    0.8920   -0.4505
       27 FE2    5py        0.0000    0.0000    0.0000    0.0000   -0.0000    0.0000    0.0000   -0.0000    0.0288   -0.0145
       28 FE2    2pz       -0.0000   -0.0000   -0.0000   -0.0000   -0.0000    0.0000   -0.0000    0.0000    0.0000   -0.0000
       29 FE2    3pz       -0.0000   -0.0000   -0.0000   -0.0000   -0.0000   -0.0000   -0.0000    0.0000    0.0000   -0.0000
       30 FE2    4pz       -0.0000   -0.0000   -0.0000   -0.0000   -0.0000   -0.0000   -0.0005    0.0006    0.0000   -0.0000
       31 FE2    5pz        0.0000    0.0000    0.0000    0.0000    0.0000   -0.0000   -0.0000    0.0001    0.0000   -0.0000
       32 FE2    3d2-       0.9906   -0.0131   -0.0000   -0.0000   -0.0000    0.0000    0.0000   -0.0000   -0.0000   -0.0000
       33 FE2    4d2-      -0.1364    0.0018    0.0000    0.0000    0.0000    0.0000    0.0000   -0.0000    0.0000    0.0000
       34 FE2    3d1-       0.0000    0.0000    0.1646    0.9769   -0.0000   -0.0000   -0.0000   -0.0000    0.0000   -0.0000
       35 FE2    4d1-      -0.0000   -0.0000   -0.0227   -0.1345    0.0000   -0.0000    0.0000   -0.0000   -0.0001    0.0000
       36 FE2    3d0        0.0000    0.0000    0.0000    0.0000    0.9907   -0.0000    0.0000    0.0000    0.0000    0.0000
       37 FE2    4d0       -0.0000   -0.0000   -0.0000   -0.0000   -0.1364   -0.0000   -0.0000    0.0000   -0.0000    0.0000
       38 FE2    3d1+       0.0000   -0.0000    0.9769   -0.1646    0.0000   -0.0000    0.0000   -0.0000    0.0000    0.0000
       39 FE2    4d1+      -0.0000    0.0000   -0.1345    0.0227   -0.0000   -0.0000    0.0000   -0.0000   -0.0000   -0.0001
       40 FE2    3d2+       0.0131    0.9906    0.0000   -0.0000   -0.0000   -0.0000   -0.0000   -0.0000   -0.0000    0.0000
       41 FE2    4d2+      -0.0018   -0.1364   -0.0000    0.0000    0.0000   -0.0000    0.0000   -0.0000   -0.0000    0.0000
       42 FE2    4f3-       0.0000   -0.0000   -0.0000    0.0000    0.0000   -0.0000   -0.0000    0.0000    0.0000    0.0000
       43 FE2    4f2-       0.0000   -0.0000    0.0000    0.0000   -0.0000    0.0000   -0.0000   -0.0000   -0.0000    0.0000
       44 FE2    4f1-       0.0000    0.0000    0.0000    0.0000   -0.0000   -0.0000   -0.0000   -0.0000   -0.0000    0.0000
       45 FE2    4f0       -0.0000    0.0000    0.0000    0.0000    0.0000   -0.0000   -0.0000   -0.0000   -0.0000   -0.0000
       46 FE2    4f1+      -0.0000   -0.0000    0.0000   -0.0000    0.0000   -0.0000   -0.0000    0.0000   -0.0000   -0.0000
       47 FE2    4f2+       0.0000    0.0000    0.0000    0.0000   -0.0000   -0.0000    0.0000   -0.0000   -0.0000    0.0000
       48 FE2    4f3+       0.0000   -0.0000    0.0000    0.0000    0.0000   -0.0000   -0.0000   -0.0000   -0.0000   -0.0000
 
          Orbital           21        22        23        24    
          Energy           -0.4833   -0.2499   -0.0443   -0.0443
          Occ. No.          0.0000    0.0000    0.0000    0.0000
 
        1 O1     1s        -0.0000   -0.0002   -0.0000    0.0000
        2 O1     2s        -0.0008   -0.0023   -0.0000   -0.0000
        3 O1     3s        -0.0004   -0.0002    0.0000    0.0000
        4 O1     2px       -0.0000   -0.0000   -0.0001   -0.9443
        5 O1     3px        0.0000    0.0000   -0.0000   -0.3290
        6 O1     2py        0.0000    0.0000    0.9443   -0.0001
        7 O1     3py        0.0000    0.0000    0.3290   -0.0000
        8 O1     2pz        0.0013    0.0044   -0.0000    0.0000
        9 O1     3pz        0.0017   -0.0003   -0.0000    0.0000
       10 O1     3d2-      -0.0000    0.0000   -0.0000    0.0000
       11 O1     3d1-       0.0000   -0.0000   -0.0021    0.0000
       12 O1     3d0       -0.0000    0.0000    0.0000   -0.0000
       13 O1     3d1+       0.0000    0.0000    0.0000    0.0021
       14 O1     3d2+       0.0000    0.0000   -0.0000    0.0000
       15 FE2    1s        -0.0000    0.0000   -0.0000   -0.0000
       16 FE2    2s         0.0000   -0.0002    0.0000    0.0000
       17 FE2    3s         0.0000   -0.0047    0.0000   -0.0000
       18 FE2    4s         0.0003    0.3700   -0.0000    0.0000
       19 FE2    5s        -0.0005    0.9290   -0.0000    0.0000
       20 FE2    2px       -0.0000    0.0000    0.0000    0.0000
       21 FE2    3px        0.0000   -0.0000    0.0000    0.0000
       22 FE2    4px        0.0000    0.0000    0.0000    0.0004
       23 FE2    5px        0.0000    0.0000   -0.0000   -0.0002
       24 FE2    2py       -0.0000    0.0000   -0.0000    0.0000
       25 FE2    3py       -0.0000   -0.0000   -0.0000    0.0000
       26 FE2    4py       -0.0000   -0.0000   -0.0004    0.0000
       27 FE2    5py       -0.0000    0.0000    0.0002   -0.0000
       28 FE2    2pz        0.0005    0.0000   -0.0000   -0.0000
       29 FE2    3pz        0.0186    0.0000   -0.0000    0.0000
       30 FE2    4pz        0.9993    0.0004   -0.0000    0.0000
       31 FE2    5pz        0.0323   -0.0001    0.0000   -0.0000
       32 FE2    3d2-       0.0000   -0.0000   -0.0000    0.0000
       33 FE2    4d2-       0.0000   -0.0000   -0.0000    0.0000
       34 FE2    3d1-      -0.0000    0.0000    0.0001   -0.0000
       35 FE2    4d1-       0.0000    0.0000    0.0005   -0.0000
       36 FE2    3d0        0.0000   -0.0000    0.0000   -0.0000
       37 FE2    4d0       -0.0002   -0.0001    0.0000   -0.0000
       38 FE2    3d1+      -0.0000   -0.0000   -0.0000   -0.0001
       39 FE2    4d1+       0.0000   -0.0000   -0.0000   -0.0005
       40 FE2    3d2+       0.0000   -0.0000   -0.0000   -0.0000
       41 FE2    4d2+       0.0000    0.0000    0.0000   -0.0000
       42 FE2    4f3-      -0.0000    0.0000    0.0000   -0.0000
       43 FE2    4f2-       0.0000    0.0000    0.0000   -0.0000
       44 FE2    4f1-       0.0000    0.0000    0.0000   -0.0000
       45 FE2    4f0       -0.0000   -0.0000    0.0000    0.0000
       46 FE2    4f1+      -0.0000    0.0000   -0.0000   -0.0000
       47 FE2    4f2+       0.0000    0.0000   -0.0000   -0.0000
       48 FE2    4f3+       0.0000    0.0000   -0.0000   -0.0000
--
 
 
  Input file to MOLDEN was generated!
 
 
++    Static properties:
      ------------------
 
 
      LoProp Charges per center
 

                   O1       FE2   
      Nuclear      8.0000  26.0000
      Electronic  -8.0000 -24.0000
 
      Total       -0.0000   2.0000
--
 
 
      All orbitals with orbital energies smaller than  E(LUMO)+0.5 are printed
 
++    Molecular orbitals:
      -------------------
 
      Title: UHF orbitals (beta)

      Molecular orbitals for symmetry species 1: a  
 
          Orbital            1         2         3         4         5         6         7         8         9        10    
          Energy         -264.6106  -33.3193  -28.3874  -28.3874  -28.3874  -20.8514   -4.9700   -3.4216   -3.4216   -3.4216
          Occ. No.          1.0000    1.0000    1.0000    1.0000    1.0000    1.0000    1.0000    1.0000    1.0000    1.0000
 
        1 O1     1s         0.0000   -0.0000    0.0000    0.0000    0.0000    1.0000    0.0000    0.0000   -0.0000    0.0000
        2 O1     2s         0.0000   -0.0000    0.0000    0.0000    0.0000    0.0019    0.0000    0.0000   -0.0000    0.0000
        3 O1     3s         0.0000   -0.0000    0.0000    0.0000    0.0000   -0.0017    0.0000    0.0000   -0.0000    0.0000
        4 O1     2px       -0.0000    0.0000    0.0000    0.0000   -0.0000    0.0000   -0.0000    0.0000   -0.0000    0.0000
        5 O1     3px        0.0000   -0.0000    0.0000    0.0000   -0.0000   -0.0000    0.0000    0.0000   -0.0000   -0.0000
        6 O1     2py        0.0000   -0.0000   -0.0000    0.0000   -0.0000   -0.0000   -0.0000    0.0000    0.0000    0.0000
        7 O1     3py       -0.0000   -0.0000   -0.0000    0.0000   -0.0000    0.0000   -0.0000    0.0000    0.0000    0.0000
        8 O1     2pz       -0.0000   -0.0000   -0.0000   -0.0000   -0.0000   -0.0000    0.0000    0.0000    0.0000   -0.0000
        9 O1     3pz       -0.0000   -0.0000   -0.0000   -0.0000   -0.0000    0.0000    0.0000   -0.0000    0.0000   -0.0000
       10 O1     3d2-       0.0000   -0.0000   -0.0000    0.0000   -0.0000   -0.0000   -0.0000   -0.0000   -0.0000    0.0000
       11 O1     3d1-      -0.0000    0.0000    0.0000   -0.0000    0.0000   -0.0000    0.0000   -0.0000   -0.0000   -0.0000
       12 O1     3d0        0.0000    0.0000    0.0000    0.0000    0.0000   -0.0004   -0.0000    0.0000   -0.0000    0.0000
       13 O1     3d1+      -0.0000   -0.0000   -0.0000   -0.0000    0.0000   -0.0000    0.0000   -0.0000    0.0000   -0.0000
       14 O1     3d2+       0.0000   -0.0000   -0.0000   -0.0000   -0.0000   -0.0000   -0.0000   -0.0000    0.0000   -0.0000
       15 FE2    1s         1.0000   -0.0000   -0.0000   -0.0000   -0.0000    0.0000    0.0000   -0.0000    0.0000    0.0000
       16 FE2    2s         0.0000    1.0000   -0.0000   -0.0000   -0.0000    0.0000    0.0011    0.0000    0.0000   -0.0000
       17 FE2    3s        -0.0000   -0.0011    0.0000    0.0000    0.0000   -0.0000    1.0000   -0.0000    0.0000   -0.0000
       18 FE2    4s         0.0000    0.0002   -0.0000   -0.0000   -0.0000    0.0000   -0.0028   -0.0000    0.0000   -0.0000
       19 FE2    5s        -0.0000   -0.0002   -0.0000   -0.0000   -0.0000    0.0000    0.0032    0.0000    0.0000   -0.0000
       20 FE2    2px       -0.0000   -0.0000    0.9695    0.2451   -0.0000    0.0000   -0.0000    0.0032   -0.0003   -0.0000
       21 FE2    3px        0.0000   -0.0000   -0.0031   -0.0008    0.0000    0.0000   -0.0000    0.9965   -0.0826   -0.0000
       22 FE2    4px        0.0000    0.0000    0.0004    0.0001   -0.0000   -0.0000    0.0000   -0.0114    0.0009    0.0000
       23 FE2    5px        0.0000   -0.0000   -0.0011   -0.0003    0.0000    0.0000   -0.0000    0.0055   -0.0005   -0.0000
       24 FE2    2py       -0.0000   -0.0000   -0.2451    0.9695   -0.0000   -0.0000   -0.0000    0.0003    0.0032    0.0000
       25 FE2    3py       -0.0000   -0.0000    0.0008   -0.0031    0.0000    0.0000    0.0000    0.0826    0.9965    0.0000
       26 FE2    4py        0.0000    0.0000   -0.0001    0.0004   -0.0000    0.0000    0.0000   -0.0009   -0.0114   -0.0000
       27 FE2    5py       -0.0000   -0.0000    0.0003   -0.0011    0.0000   -0.0000   -0.0000    0.0005    0.0055    0.0000
       28 FE2    2pz        0.0000    0.0000    0.0000    0.0000    1.0000    0.0000   -0.0000    0.0000   -0.0000    0.0032
       29 FE2    3pz       -0.0000    0.0000   -0.0000   -0.0000   -0.0032   -0.0000    0.0000    0.0000   -0.0000    0.9999
       30 FE2    4pz       -0.0000   -0.0000    0.0000    0.0000    0.0005    0.0000    0.0000   -0.0000    0.0000   -0.0114
       31 FE2    5pz       -0.0000   -0.0000   -0.0000   -0.0000   -0.0011    0.0000    0.0000    0.0000   -0.0000    0.0055
       32 FE2    3d2-       0.0000   -0.0000   -0.0000   -0.0000    0.0000    0.0000    0.0000    0.0000    0.0000   -0.0000
       33 FE2    4d2-      -0.0000    0.0000    0.0000    0.0000   -0.0000   -0.0000   -0.0000   -0.0000    0.0000   -0.0000
       34 FE2    3d1-       0.0000   -0.0000   -0.0000    0.0000   -0.0000   -0.0000   -0.0000    0.0000    0.0000    0.0000
       35 FE2    4d1-      -0.0000    0.0000    0.0000   -0.0000    0.0000    0.0000    0.0000   -0.0000   -0.0000   -0.0000
       36 FE2    3d0       -0.0000   -0.0000    0.0000    0.0000    0.0000    0.0000   -0.0000    0.0000   -0.0000    0.0000
       37 FE2    4d0       -0.0000   -0.0000   -0.0000   -0.0000   -0.0000    0.0000   -0.0000   -0.0000    0.0000   -0.0000
       38 FE2    3d1+       0.0000   -0.0000    0.0000    0.0000   -0.0000   -0.0000    0.0000    0.0000   -0.0000   -0.0000
       39 FE2    4d1+      -0.0000    0.0000   -0.0000   -0.0000    0.0000    0.0000   -0.0000   -0.0000    0.0000    0.0000
       40 FE2    3d2+      -0.0000    0.0000   -0.0000   -0.0000    0.0000    0.0000   -0.0000    0.0000   -0.0000   -0.0000
       41 FE2    4d2+       0.0000   -0.0000    0.0000    0.0000   -0.0000   -0.0000    0.0000   -0.0000    0.0000    0.0000
       42 FE2    4f3-       0.0000   -0.0000   -0.0000   -0.0000    0.0000   -0.0000   -0.0000   -0.0000    0.0000    0.0000
       43 FE2    4f2-      -0.0000    0.0000    0.0000    0.0000    0.0000    0.0000   -0.0000    0.0000    0.0000   -0.0000
       44 FE2    4f1-      -0.0000    0.0000    0.0000   -0.0000    0.0000    0.0000   -0.0000   -0.0000   -0.0000   -0.0000
       45 FE2    4f0       -0.0000   -0.0000   -0.0000    0.0000   -0.0000    0.0000   -0.0000   -0.0000    0.0000   -0.0000
       46 FE2    4f1+      -0.0000    0.0000   -0.0000   -0.0000    0.0000   -0.0000   -0.0000   -0.0000    0.0000    0.0000
       47 FE2    4f2+       0.0000   -0.0000    0.0000   -0.0000    0.0000   -0.0000    0.0000   -0.0000   -0.0000   -0.0000
       48 FE2    4f3+      -0.0000    0.0000    0.0000    0.0000   -0.0000   -0.0000   -0.0000   -0.0000   -0.0000   -0.0000
 
          Orbital           11        12        13        14        15        16        17        18        19        20    
          Energy           -1.5541   -0.8448   -0.8448   -0.7458   -0.5752   -0.5734   -0.5734   -0.5734   -0.5734   -0.5734
          Occ. No.          1.0000    1.0000    1.0000    1.0000    0.0000    0.0000    0.0000    0.0000    0.0000    0.0000
 
        1 O1     1s        -0.0020   -0.0000   -0.0000    0.0000    0.0000   -0.0000    0.0000    0.0000   -0.0000    0.0000
        2 O1     2s         0.9994   -0.0000    0.0000    0.0054    0.0002   -0.0000    0.0000   -0.0000    0.0000   -0.0000
        3 O1     3s        -0.0282   -0.0000   -0.0000   -0.0041    0.0001    0.0000    0.0000    0.0000   -0.0000    0.0000
        4 O1     2px       -0.0000    0.9989    0.0028    0.0000   -0.0000    0.0000    0.0000   -0.0000   -0.0000    0.0000
        5 O1     3px        0.0000   -0.0460   -0.0001   -0.0000   -0.0000   -0.0000    0.0000   -0.0000   -0.0000   -0.0000
        6 O1     2py       -0.0000    0.0028   -0.9989    0.0000   -0.0000   -0.0000   -0.0000   -0.0000    0.0000   -0.0000
        7 O1     3py        0.0000   -0.0001    0.0460   -0.0000    0.0000    0.0000    0.0000   -0.0000    0.0000    0.0000
        8 O1     2pz       -0.0056   -0.0000    0.0000    0.9999    0.0000   -0.0000   -0.0000   -0.0000   -0.0000    0.0000
        9 O1     3pz       -0.0012    0.0000   -0.0000   -0.0107   -0.0004    0.0000   -0.0000    0.0000   -0.0000    0.0001
       10 O1     3d2-      -0.0000   -0.0000   -0.0000    0.0000    0.0000    0.0000    0.0000   -0.0000    0.0000    0.0000
       11 O1     3d1-      -0.0000   -0.0000    0.0020   -0.0000    0.0000   -0.0000    0.0000   -0.0000    0.0000    0.0000
       12 O1     3d0       -0.0215    0.0000   -0.0000   -0.0026    0.0000    0.0000   -0.0000    0.0000   -0.0000    0.0000
       13 O1     3d1+      -0.0000   -0.0020   -0.0000   -0.0000    0.0000    0.0000    0.0000   -0.0000   -0.0000    0.0000
       14 O1     3d2+      -0.0000    0.0000   -0.0000    0.0000   -0.0000    0.0000   -0.0000    0.0000   -0.0000   -0.0000
       15 FE2    1s        -0.0000    0.0000    0.0000    0.0000   -0.0000    0.0000   -0.0000   -0.0000    0.0000   -0.0000
       16 FE2    2s        -0.0000   -0.0000   -0.0000    0.0000   -0.0002   -0.0000   -0.0000    0.0000    0.0000   -0.0000
       17 FE2    3s         0.0000    0.0000   -0.0000   -0.0000    0.0035    0.0000    0.0000    0.0000   -0.0000    0.0000
       18 FE2    4s        -0.0000    0.0000   -0.0000    0.0001    0.9689    0.0000    0.0000    0.0000   -0.0000    0.0073
       19 FE2    5s        -0.0001   -0.0000    0.0000    0.0006   -0.2474   -0.0000   -0.0000   -0.0000    0.0000   -0.0019
       20 FE2    2px       -0.0000   -0.0000   -0.0000    0.0000   -0.0000    0.0000   -0.0000   -0.0000   -0.0000   -0.0000
       21 FE2    3px        0.0000   -0.0000   -0.0000   -0.0000    0.0000   -0.0000   -0.0000   -0.0000   -0.0000   -0.0000
       22 FE2    4px       -0.0000   -0.0000   -0.0000   -0.0000   -0.0000    0.0000    0.0000   -0.0001   -0.0000   -0.0000
       23 FE2    5px       -0.0000   -0.0000   -0.0000    0.0000    0.0000    0.0000   -0.0000   -0.0000   -0.0000    0.0000
       24 FE2    2py        0.0000   -0.0000    0.0000   -0.0000    0.0000    0.0000   -0.0000   -0.0000    0.0000   -0.0000
       25 FE2    3py       -0.0000   -0.0000    0.0000    0.0000   -0.0000    0.0000   -0.0000   -0.0000    0.0000    0.0000
       26 FE2    4py       -0.0000   -0.0000    0.0000   -0.0000    0.0000    0.0000    0.0000   -0.0000    0.0001    0.0000
       27 FE2    5py        0.0000   -0.0000    0.0000   -0.0000    0.0000    0.0000    0.0000   -0.0000    0.0000    0.0000
       28 FE2    2pz       -0.0000    0.0000    0.0000    0.0000    0.0000   -0.0000    0.0000   -0.0000    0.0000   -0.0000
       29 FE2    3pz       -0.0000   -0.0000   -0.0000    0.0000   -0.0000   -0.0000   -0.0000    0.0000    0.0000   -0.0000
       30 FE2    4pz       -0.0000   -0.0000    0.0000    0.0003   -0.0003   -0.0000   -0.0000    0.0000    0.0000   -0.0001
       31 FE2    5pz       -0.0000    0.0000    0.0000    0.0001   -0.0000   -0.0000   -0.0000   -0.0000    0.0000   -0.0000
       32 FE2    3d2-      -0.0000   -0.0000   -0.0000    0.0000   -0.0000    0.4494    0.8843   -0.0000   -0.0000   -0.0000
       33 FE2    4d2-       0.0000   -0.0000   -0.0000   -0.0000   -0.0000    0.0573    0.1127   -0.0000   -0.0000   -0.0000
       34 FE2    3d1-       0.0000   -0.0000    0.0000    0.0000    0.0000   -0.0000   -0.0000    0.1425   -0.9817   -0.0000
       35 FE2    4d1-      -0.0000   -0.0000    0.0000   -0.0000    0.0000   -0.0000   -0.0000    0.0182   -0.1251   -0.0000
       36 FE2    3d0       -0.0000   -0.0000   -0.0000    0.0001   -0.0075    0.0000   -0.0000    0.0000   -0.0000    0.9919
       37 FE2    4d0       -0.0000    0.0000    0.0000    0.0000   -0.0010    0.0000   -0.0000    0.0000   -0.0000    0.1264
       38 FE2    3d1+       0.0000   -0.0000   -0.0000    0.0000   -0.0000    0.0000    0.0000    0.9817    0.1425    0.0000
       39 FE2    4d1+      -0.0000   -0.0000   -0.0000   -0.0000   -0.0000    0.0000    0.0000    0.1251    0.0182    0.0000
       40 FE2    3d2+       0.0000   -0.0000    0.0000    0.0000    0.0000    0.8843   -0.4494    0.0000   -0.0000   -0.0000
       41 FE2    4d2+      -0.0000    0.0000   -0.0000    0.0000    0.0000    0.1127   -0.0573    0.0000   -0.0000   -0.0000
       42 FE2    4f3-      -0.0000    0.0000   -0.0000    0.0000   -0.0000   -0.0000    0.0000   -0.0000    0.0000    0.0000
       43 FE2    4f2-       0.0000    0.0000   -0.0000   -0.0000   -0.0000    0.0000    0.0000    0.0000   -0.0000   -0.0000
       44 FE2    4f1-      -0.0000   -0.0000    0.0000   -0.0000    0.0000   -0.0000   -0.0000    0.0000   -0.0000   -0.0000
       45 FE2    4f0       -0.0000   -0.0000   -0.0000    0.0000   -0.0000    0.0000   -0.0000    0.0000   -0.0000    0.0000
       46 FE2    4f1+      -0.0000   -0.0000   -0.0000    0.0000   -0.0000   -0.0000    0.0000    0.0000    0.0000    0.0000
       47 FE2    4f2+      -0.0000    0.0000   -0.0000   -0.0000    0.0000    0.0000   -0.0000    0.0000   -0.0000   -0.0000
       48 FE2    4f3+      -0.0000    0.0000    0.0000   -0.0000   -0.0000   -0.0000    0.0000   -0.0000    0.0000    0.0000
 
          Orbital           21        22        23        24    
          Energy           -0.3932   -0.3932   -0.3932   -0.2281
          Occ. No.          0.0000    0.0000    0.0000    0.0000
 
        1 O1     1s        -0.0000    0.0000   -0.0001   -0.0001
        2 O1     2s        -0.0000    0.0000   -0.0007   -0.0020
        3 O1     3s        -0.0000    0.0000   -0.0003    0.0001
        4 O1     2px       -0.0000   -0.0001    0.0000    0.0000
        5 O1     3px       -0.0000   -0.0001    0.0000    0.0000
        6 O1     2py       -0.0001    0.0000    0.0000    0.0000
        7 O1     3py       -0.0001    0.0000    0.0000    0.0000
        8 O1     2pz        0.0000    0.0000    0.0012    0.0032
        9 O1     3pz        0.0000   -0.0000    0.0009   -0.0013
       10 O1     3d2-       0.0000    0.0000   -0.0000    0.0000
       11 O1     3d1-      -0.0000    0.0000    0.0000    0.0000
       12 O1     3d0        0.0000   -0.0000    0.0000    0.0001
       13 O1     3d1+      -0.0000   -0.0000    0.0000    0.0000
       14 O1     3d2+      -0.0000    0.0000   -0.0000   -0.0000
       15 FE2    1s        -0.0000   -0.0000   -0.0000    0.0000
       16 FE2    2s        -0.0000   -0.0000   -0.0000    0.0002
       17 FE2    3s        -0.0000   -0.0000    0.0000   -0.0024
       18 FE2    4s        -0.0000    0.0000    0.0002    0.2474
       19 FE2    5s         0.0000    0.0000   -0.0006    0.9689
       20 FE2    2px       -0.0000   -0.0003   -0.0000    0.0000
       21 FE2    3px        0.0013    0.0109    0.0000   -0.0000
       22 FE2    4px        0.1210    0.9900    0.0000   -0.0000
       23 FE2    5px        0.0087    0.0715    0.0000    0.0000
       24 FE2    2py       -0.0003    0.0000    0.0000    0.0000
       25 FE2    3py        0.0109   -0.0013   -0.0000   -0.0000
       26 FE2    4py        0.9900   -0.1210   -0.0000   -0.0000
       27 FE2    5py        0.0715   -0.0087   -0.0000    0.0000
       28 FE2    2pz       -0.0000    0.0000   -0.0003   -0.0000
       29 FE2    3pz        0.0000   -0.0000    0.0110    0.0000
       30 FE2    4pz        0.0000   -0.0000    0.9974    0.0006
       31 FE2    5pz        0.0000   -0.0000    0.0720   -0.0000
       32 FE2    3d2-      -0.0000   -0.0000    0.0000    0.0000
       33 FE2    4d2-       0.0000    0.0000    0.0000   -0.0000
       34 FE2    3d1-       0.0001   -0.0000   -0.0000   -0.0000
       35 FE2    4d1-      -0.0000    0.0000    0.0000    0.0000
       36 FE2    3d0        0.0000    0.0000    0.0001    0.0000
       37 FE2    4d0       -0.0000    0.0000   -0.0001   -0.0001
       38 FE2    3d1+       0.0000    0.0001   -0.0000   -0.0000
       39 FE2    4d1+      -0.0000   -0.0000   -0.0000   -0.0000
       40 FE2    3d2+       0.0000    0.0000    0.0000   -0.0000
       41 FE2    4d2+      -0.0000    0.0000    0.0000   -0.0000
       42 FE2    4f3-       0.0000    0.0000   -0.0000    0.0000
       43 FE2    4f2-      -0.0000    0.0000    0.0000   -0.0000
       44 FE2    4f1-      -0.0000    0.0000    0.0000    0.0000
       45 FE2    4f0       -0.0000   -0.0000   -0.0000   -0.0000
       46 FE2    4f1+      -0.0000   -0.0000   -0.0000    0.0000
       47 FE2    4f2+      -0.0000    0.0000    0.0000    0.0000
       48 FE2    4f3+       0.0000   -0.0000    0.0000    0.0000
--
 
 
++    Molecular charges:
      ------------------
 
      Mulliken charges per centre and basis function type
      ---------------------------------------------------
 
                            O1                      FE2   
                     alpha        beta       alpha        beta
      1s           1.0000      1.0000      1.0000      1.0000
      2s           0.9987      0.9987      1.0000      1.0000
      2px          0.0000      0.9979      1.0000      1.0000
      2pz          0.9977      0.9999      1.0000      1.0000
      2py          0.0000      0.9979      1.0000      1.0000
      3s           0.0005      0.0008      1.0000      1.0000
      3px         -0.0000      0.0021      0.9993      0.9998
      3pz          0.0023      0.0001      0.9993      0.9998
      3py         -0.0000      0.0021      0.9993      0.9998
      4s           0.0000      0.0000      0.8631      0.0000
      3d2+        -0.0000      0.0000      0.9814      0.0000
      3d1+        -0.0000      0.0000      0.9814      0.0000
      3d0          0.0008      0.0005      0.9814      0.0000
      3d1-        -0.0000      0.0000      0.9814      0.0000
      3d2-        -0.0000      0.0000      0.9814      0.0000
      4px          0.0000      0.0000      0.0004      0.0001
      4pz          0.0000      0.0000      0.0004      0.0001
      4py          0.0000      0.0000      0.0004      0.0001
      5s           0.0000      0.0000      0.1369      0.0000
      4d2+         0.0000      0.0000      0.0186      0.0000
      4d1+         0.0000      0.0000      0.0186     -0.0000
      4d0          0.0000      0.0000      0.0186     -0.0000
      4d1-         0.0000      0.0000      0.0186     -0.0000
      4d2-         0.0000      0.0000      0.0186      0.0000
      5px          0.0000      0.0000      0.0003      0.0000
      5pz          0.0000      0.0000      0.0003      0.0000
      5py          0.0000      0.0000      0.0003      0.0000
      4f3+         0.0000      0.0000      0.0000      0.0000
      4f2+         0.0000      0.0000      0.0000      0.0000
      4f1+         0.0000      0.0000      0.0000      0.0000
      4f0          0.0000      0.0000      0.0000      0.0000
      4f1-         0.0000      0.0000      0.0000      0.0000
      4f2-         0.0000      0.0000      0.0000      0.0000
      4f3-         0.0000      0.0000      0.0000      0.0000
      Total        3.0000      5.0000     15.0000      9.0000
      Total              8.0000                 24.0000
 
      Charge           -0.0000                  2.0000
 
      Total electronic charge=   32.000000
 
      Total            charge=    2.000000
--
 
 
  Input file to MOLDEN was generated!
 
 
++    Static properties:
      ------------------
 
 
      LoProp Charges per center
 

                   O1       FE2   
      Nuclear      8.0000  26.0000
      Electronic  -8.0000 -24.0000
 
      Total       -0.0000   2.0000
--
 
 
++    Natural Bond Order analysis
      ---------------------------
      Based on LoProp computed density
      -------------------------------------------------------------------------------------
      Atom A       Atom B       Bond Order
      -------------------------------------------------------------------------------------
      NBO located     20.000 core electrons.
      NBO located      3.996 lone pair electrons.
      NBO located      1.000 non-bonded electrons on atom O1        
      NBO located      1.000 non-bonded electrons on atom O1        
      NBO located      1.000 non-bonded electrons on atom FE2       
      NBO located      1.000 non-bonded electrons on atom FE2       
      NBO located      1.000 non-bonded electrons on atom FE2       
      NBO located      1.000 non-bonded electrons on atom FE2       
      NBO located      1.000 non-bonded electrons on atom FE2       
      NBO located      1.000 non-bonded electrons on atom FE2       
      The remaining    0.005 electrons are to be considered as diffuse
--
 
 
++    Molecular orbitals:
      -------------------
 
      Title: Natural orbitals

      Molecular orbitals for symmetry species 1: a  
 
          Orbital            1         2         3         4         5         6         7         8         9        10    
          Energy         -264.6145  -33.0575  -27.7153  -27.7139  -27.7131  -20.7872   -5.5573   -4.4606   -4.4622   -4.4630
          Occ. No.          2.0000    2.0000    2.0000    2.0000    2.0000    2.0000    2.0000    1.9999    1.9999    1.9999
 
        1 O1     1s         0.0000    0.0004    0.0063   -0.0000    0.0000   -0.9994   -0.0036   -0.0002    0.0000    0.0000
        2 O1     2s         0.0000   -0.0000   -0.0002    0.0000   -0.0000    0.0336    0.0001   -0.0001    0.0000    0.0000
        3 O1     3s         0.0000   -0.0000   -0.0000    0.0000   -0.0000    0.0005   -0.0000   -0.0000    0.0000    0.0000
        4 O1     2px       -0.0000    0.0000   -0.0000    0.0000    0.0000   -0.0000   -0.0000   -0.0000   -0.0000    0.0000
        5 O1     3px        0.0000   -0.0000   -0.0000   -0.0000   -0.0000    0.0000    0.0000   -0.0000   -0.0000    0.0000
        6 O1     2py        0.0000   -0.0000   -0.0000   -0.0000    0.0000    0.0000   -0.0000    0.0000   -0.0000   -0.0000
        7 O1     3py       -0.0000    0.0000   -0.0000    0.0000   -0.0000   -0.0000   -0.0000   -0.0000   -0.0000   -0.0000
        8 O1     2pz       -0.0000   -0.0000   -0.0001    0.0000   -0.0000    0.0003   -0.0001    0.0011   -0.0000   -0.0000
        9 O1     3pz       -0.0000   -0.0000   -0.0000   -0.0000    0.0000   -0.0001    0.0001    0.0000   -0.0000   -0.0000
       10 O1     3d2-       0.0000   -0.0000   -0.0000    0.0000    0.0000   -0.0000   -0.0000    0.0000   -0.0000   -0.0000
       11 O1     3d1-      -0.0000    0.0000    0.0000   -0.0000    0.0000   -0.0000    0.0000   -0.0000    0.0000    0.0000
       12 O1     3d0        0.0000    0.0000    0.0000   -0.0000    0.0000   -0.0002   -0.0000   -0.0000    0.0000    0.0000
       13 O1     3d1+      -0.0000   -0.0000    0.0000    0.0000    0.0000   -0.0000    0.0000    0.0000    0.0000   -0.0000
       14 O1     3d2+       0.0000    0.0000    0.0000    0.0000   -0.0000   -0.0000   -0.0000   -0.0000   -0.0000    0.0000
       15 FE2    1s         1.0000   -0.0000    0.0000    0.0000    0.0000   -0.0000    0.0000    0.0000   -0.0000   -0.0000
       16 FE2    2s         0.0000    0.9939    0.0001    0.0000    0.0000   -0.0000    0.1103    0.0000   -0.0000   -0.0000
       17 FE2    3s        -0.0000   -0.1103    0.0001   -0.0000    0.0000   -0.0036    0.9939    0.0001   -0.0000   -0.0000
       18 FE2    4s         0.0000    0.0005   -0.0000    0.0000   -0.0000    0.0000   -0.0022   -0.0000    0.0000    0.0000
       19 FE2    5s        -0.0000   -0.0006    0.0000   -0.0000    0.0000   -0.0000    0.0045    0.0000   -0.0000   -0.0000
       20 FE2    2px       -0.0000   -0.0000    0.0000    0.9845    0.0136   -0.0000   -0.0000    0.0000    0.1750   -0.0010
       21 FE2    3px        0.0000    0.0000   -0.0000   -0.1749   -0.0024    0.0000    0.0000    0.0000    0.9844   -0.0054
       22 FE2    4px       -0.0000   -0.0000    0.0000    0.0026    0.0000   -0.0000   -0.0000   -0.0000   -0.0151    0.0001
       23 FE2    5px        0.0000    0.0000   -0.0000   -0.0019   -0.0000    0.0000    0.0000    0.0000    0.0117   -0.0001
       24 FE2    2py       -0.0000   -0.0000    0.0000   -0.0136    0.9845    0.0000   -0.0000    0.0000    0.0010    0.1751
       25 FE2    3py        0.0000    0.0000   -0.0000    0.0024   -0.1750   -0.0000    0.0000    0.0000    0.0054    0.9844
       26 FE2    4py       -0.0000   -0.0000    0.0000   -0.0000    0.0026    0.0000   -0.0000   -0.0000   -0.0001   -0.0151
       27 FE2    5py        0.0000    0.0000   -0.0000    0.0000   -0.0019   -0.0000    0.0000    0.0000    0.0001    0.0117
       28 FE2    2pz       -0.0000   -0.0001    0.9846   -0.0000   -0.0000    0.0062   -0.0001    0.1748   -0.0000   -0.0000
       29 FE2    3pz       -0.0000    0.0000   -0.1748    0.0000    0.0000   -0.0013   -0.0001    0.9844   -0.0000   -0.0000
       30 FE2    4pz        0.0000   -0.0000    0.0026   -0.0000   -0.0000    0.0000   -0.0000   -0.0151    0.0000    0.0000
       31 FE2    5pz       -0.0000    0.0000   -0.0019    0.0000    0.0000   -0.0000   -0.0000    0.0117   -0.0000   -0.0000
       32 FE2    3d2-       0.0000   -0.0000    0.0000   -0.0000    0.0000   -0.0000    0.0000   -0.0000   -0.0000    0.0000
       33 FE2    4d2-      -0.0000    0.0000    0.0000    0.0000   -0.0000    0.0000   -0.0000   -0.0000    0.0000    0.0000
       34 FE2    3d1-       0.0000   -0.0000   -0.0000    0.0000   -0.0000   -0.0000   -0.0000    0.0000    0.0000    0.0000
       35 FE2    4d1-      -0.0000    0.0000    0.0000   -0.0000    0.0000    0.0000    0.0000   -0.0000   -0.0000   -0.0000
       36 FE2    3d0       -0.0000    0.0000   -0.0000    0.0000    0.0000   -0.0000   -0.0000    0.0000   -0.0000   -0.0000
       37 FE2    4d0       -0.0000   -0.0000    0.0000   -0.0000   -0.0000   -0.0000    0.0000   -0.0000    0.0000    0.0000
       38 FE2    3d1+       0.0000   -0.0000   -0.0000   -0.0000   -0.0000    0.0000    0.0000    0.0000    0.0000   -0.0000
       39 FE2    4d1+      -0.0000    0.0000    0.0000    0.0000    0.0000   -0.0000   -0.0000   -0.0000   -0.0000    0.0000
       40 FE2    3d2+      -0.0000    0.0000    0.0000   -0.0000   -0.0000    0.0000    0.0000   -0.0000    0.0000   -0.0000
       41 FE2    4d2+       0.0000   -0.0000   -0.0000    0.0000   -0.0000   -0.0000    0.0000    0.0000   -0.0000    0.0000
       42 FE2    4f3-       0.0000   -0.0000   -0.0000   -0.0000   -0.0000    0.0000   -0.0000    0.0000   -0.0000    0.0000
       43 FE2    4f2-      -0.0000    0.0000    0.0000   -0.0000   -0.0000   -0.0000   -0.0000   -0.0000    0.0000    0.0000
       44 FE2    4f1-      -0.0000    0.0000    0.0000   -0.0000    0.0000    0.0000    0.0000   -0.0000   -0.0000   -0.0000
       45 FE2    4f0       -0.0000    0.0000    0.0000   -0.0000   -0.0000   -0.0000   -0.0000   -0.0000    0.0000    0.0000
       46 FE2    4f1+      -0.0000    0.0000    0.0000    0.0000    0.0000   -0.0000   -0.0000   -0.0000   -0.0000    0.0000
       47 FE2    4f2+       0.0000   -0.0000   -0.0000    0.0000    0.0000    0.0000    0.0000    0.0000   -0.0000   -0.0000
       48 FE2    4f3+      -0.0000    0.0000    0.0000    0.0000    0.0000    0.0000   -0.0000   -0.0000   -0.0000   -0.0000
 
          Orbital           11        12        13        14        15        16        17        18        19        20    
          Energy           -0.6990   -1.4002   -0.7429   -0.7428   -1.0854   -1.0854   -1.0854   -0.7606   -0.7428   -0.7428
          Occ. No.          1.9983    1.9975    1.0000    1.0000    1.0000    1.0000    1.0000    1.0000    1.0000    1.0000
 
        1 O1     1s         0.0019    0.0336   -0.0000   -0.0000    0.0000   -0.0000    0.0000   -0.0000   -0.0000   -0.0000
        2 O1     2s         0.0474    0.9983   -0.0000   -0.0000    0.0000   -0.0000    0.0000   -0.0004   -0.0000   -0.0000
        3 O1     3s        -0.0044   -0.0029   -0.0000   -0.0000    0.0000   -0.0000    0.0000   -0.0005   -0.0000   -0.0000
        4 O1     2px        0.0000   -0.0000   -0.6965    0.1177    0.0000   -0.0000   -0.0000   -0.0000    0.6966   -0.1172
        5 O1     3px        0.0000    0.0000    0.0321   -0.0054   -0.0000    0.0000   -0.0000   -0.0000   -0.0321    0.0054
        6 O1     2py        0.0000   -0.0000   -0.1177   -0.6965    0.0000    0.0000    0.0000   -0.0000    0.1172    0.6966
        7 O1     3py        0.0000   -0.0000    0.0054    0.0321   -0.0000   -0.0000    0.0000   -0.0000   -0.0054   -0.0321
        8 O1     2pz        0.9987   -0.0474    0.0000    0.0000   -0.0000    0.0000   -0.0001    0.0004   -0.0000   -0.0000
        9 O1     3pz        0.0185   -0.0025    0.0000    0.0000   -0.0000    0.0000   -0.0001    0.0017    0.0000    0.0000
       10 O1     3d2-      -0.0000   -0.0000    0.0000   -0.0000    0.0000   -0.0000    0.0000   -0.0000   -0.0000    0.0000
       11 O1     3d1-      -0.0000    0.0000    0.0002    0.0014   -0.0000   -0.0000   -0.0000    0.0000   -0.0002   -0.0014
       12 O1     3d0       -0.0022    0.0038   -0.0000   -0.0000    0.0000   -0.0000    0.0000   -0.0000   -0.0000   -0.0000
       13 O1     3d1+      -0.0000    0.0000    0.0014   -0.0002   -0.0000    0.0000    0.0000    0.0000   -0.0014    0.0002
       14 O1     3d2+      -0.0000   -0.0000   -0.0000   -0.0000    0.0000    0.0000    0.0000    0.0000    0.0000    0.0000
       15 FE2    1s         0.0000   -0.0000    0.0000    0.0000   -0.0000    0.0000   -0.0000    0.0000    0.0000    0.0000
       16 FE2    2s         0.0000   -0.0000    0.0000    0.0000   -0.0000    0.0000    0.0000    0.0003    0.0000    0.0000
       17 FE2    3s         0.0001    0.0000   -0.0000   -0.0000    0.0000   -0.0000    0.0000   -0.0038   -0.0000   -0.0000
       18 FE2    4s         0.0001    0.0000   -0.0000   -0.0000    0.0000   -0.0000    0.0000   -0.9290   -0.0000   -0.0000
       19 FE2    5s         0.0007   -0.0001    0.0000    0.0000   -0.0000    0.0000   -0.0000    0.3700    0.0000    0.0000
       20 FE2    2px       -0.0000    0.0000   -0.0000    0.0000    0.0000    0.0000    0.0000    0.0000   -0.0000    0.0000
       21 FE2    3px        0.0000   -0.0000   -0.0000    0.0000    0.0000    0.0000    0.0000    0.0000   -0.0000    0.0000
       22 FE2    4px       -0.0000    0.0000    0.0000   -0.0000    0.0000    0.0000    0.0000    0.0000   -0.0000    0.0000
       23 FE2    5px        0.0000   -0.0000    0.0000   -0.0000   -0.0000    0.0000   -0.0000   -0.0000   -0.0000    0.0000
       24 FE2    2py        0.0000   -0.0000   -0.0000   -0.0000   -0.0000    0.0000   -0.0000    0.0000   -0.0000   -0.0000
       25 FE2    3py       -0.0000    0.0000   -0.0000   -0.0000   -0.0000    0.0000   -0.0000    0.0000   -0.0000   -0.0000
       26 FE2    4py       -0.0000   -0.0000    0.0000    0.0000   -0.0000    0.0000   -0.0000    0.0000   -0.0000   -0.0000
       27 FE2    5py       -0.0000    0.0000    0.0000    0.0000    0.0000   -0.0000    0.0000   -0.0000   -0.0000   -0.0000
       28 FE2    2pz       -0.0001    0.0000   -0.0000   -0.0000    0.0000   -0.0000   -0.0000   -0.0000   -0.0000   -0.0000
       29 FE2    3pz       -0.0011    0.0002    0.0000    0.0000    0.0000   -0.0000   -0.0000    0.0000    0.0000    0.0000
       30 FE2    4pz        0.0005   -0.0001    0.0000    0.0000   -0.0000    0.0000   -0.0000    0.0005    0.0000    0.0000
       31 FE2    5pz        0.0001   -0.0000    0.0000    0.0000   -0.0000    0.0000    0.0000    0.0000    0.0000    0.0000
       32 FE2    3d2-       0.0000   -0.0000    0.0000   -0.0000    0.9906   -0.0131    0.0000    0.0000   -0.0000   -0.0000
       33 FE2    4d2-      -0.0000    0.0000   -0.0000    0.0000   -0.1364    0.0018   -0.0000   -0.0000    0.0000    0.0000
       34 FE2    3d1-       0.0000   -0.0000    0.1167    0.6907    0.0000   -0.0000    0.0000   -0.0000    0.1162    0.6908
       35 FE2    4d1-      -0.0000   -0.0000   -0.0161   -0.0951   -0.0000    0.0000   -0.0000    0.0000   -0.0160   -0.0951
       36 FE2    3d0        0.0001   -0.0000    0.0000   -0.0000   -0.0000    0.0000    0.9907    0.0000    0.0000   -0.0000
       37 FE2    4d0        0.0000   -0.0000   -0.0000    0.0000    0.0000   -0.0000   -0.1364    0.0000   -0.0000    0.0000
       38 FE2    3d1+       0.0000    0.0000    0.6907   -0.1167   -0.0000   -0.0000   -0.0000   -0.0000    0.6908   -0.1162
       39 FE2    4d1+      -0.0000   -0.0000   -0.0951    0.0161    0.0000    0.0000    0.0000    0.0000   -0.0951    0.0160
       40 FE2    3d2+       0.0000   -0.0000    0.0000    0.0000    0.0131    0.9906   -0.0000   -0.0000    0.0000    0.0000
       41 FE2    4d2+      -0.0000   -0.0000   -0.0000   -0.0000   -0.0018   -0.1364    0.0000    0.0000   -0.0000   -0.0000
       42 FE2    4f3-       0.0000   -0.0000   -0.0000   -0.0000    0.0000   -0.0000    0.0000    0.0000   -0.0000    0.0000
       43 FE2    4f2-      -0.0000    0.0000    0.0000   -0.0000    0.0000   -0.0000    0.0000    0.0000    0.0000   -0.0000
       44 FE2    4f1-      -0.0000   -0.0000    0.0000    0.0000    0.0000   -0.0000    0.0000   -0.0000    0.0000    0.0000
       45 FE2    4f0       -0.0000   -0.0000    0.0000    0.0000   -0.0000    0.0000    0.0000    0.0000    0.0000    0.0000
       46 FE2    4f1+       0.0000   -0.0000    0.0000   -0.0000   -0.0000   -0.0000   -0.0000   -0.0000    0.0000   -0.0000
       47 FE2    4f2+      -0.0000   -0.0000    0.0000    0.0000    0.0000    0.0000   -0.0000   -0.0000    0.0000    0.0000
       48 FE2    4f3+      -0.0000   -0.0000    0.0000    0.0000    0.0000   -0.0000    0.0000    0.0000    0.0000   -0.0000
 
          Orbital           21        22        23        24        25        26        27        28        29        30    
          Energy            1.3948    0.4493    0.9441    0.9441    0.9444   -0.2415    1.3871   -0.0437   -0.0437   -0.0376
          Occ. No.          0.0025    0.0017    0.0001    0.0001    0.0001    0.0000    0.0000    0.0000    0.0000    0.0000
 
        1 O1     1s         0.0002   -0.0000   -0.0000   -0.0000    0.0001    0.0002   -0.0007    0.0000   -0.0000    0.0000
        2 O1     2s        -0.0005    0.0016   -0.0000   -0.0000    0.0009    0.0021   -0.0049    0.0000   -0.0000    0.0010
        3 O1     3s         0.7052    0.0300   -0.0000   -0.0000    0.0023    0.0068   -0.7071   -0.0000    0.0000   -0.0418
        4 O1     2px        0.0000   -0.0000   -0.0001    0.0001    0.0000   -0.0000   -0.0000   -0.0001   -0.0003   -0.0000
        5 O1     3px        0.0000    0.0000   -0.0007    0.0006    0.0000    0.0000    0.0000   -0.0013   -0.0025    0.0000
        6 O1     2py        0.0000   -0.0000   -0.0001   -0.0001   -0.0000    0.0000    0.0000   -0.0003    0.0001    0.0000
        7 O1     3py       -0.0000    0.0000   -0.0006   -0.0007   -0.0000    0.0000   -0.0000   -0.0025    0.0013    0.0000
        8 O1     2pz        0.0057   -0.0183    0.0000    0.0000   -0.0017   -0.0034   -0.0010   -0.0000    0.0000   -0.0023
        9 O1     3pz       -0.0517    0.9986    0.0000    0.0000   -0.0111   -0.0211   -0.0086   -0.0000    0.0000   -0.0116
       10 O1     3d2-      -0.0000   -0.0000    0.0000   -0.0000    0.0000   -0.0000   -0.0000    0.0000   -0.0000   -0.0000
       11 O1     3d1-       0.0000    0.0000    0.0000    0.0000    0.0000   -0.0000    0.0000    0.0002   -0.0001    0.0000
       12 O1     3d0        0.7071    0.0432   -0.0000   -0.0000    0.0006    0.0007    0.7043    0.0000   -0.0000    0.0462
       13 O1     3d1+       0.0000    0.0000    0.0000   -0.0000   -0.0000   -0.0000    0.0000    0.0001    0.0002    0.0000
       14 O1     3d2+      -0.0000   -0.0000    0.0000   -0.0000   -0.0000   -0.0000   -0.0000   -0.0000    0.0000   -0.0000
       15 FE2    1s        -0.0000    0.0000   -0.0000    0.0000   -0.0000   -0.0000   -0.0000   -0.0000   -0.0000   -0.0000
       16 FE2    2s        -0.0000    0.0000    0.0000   -0.0000    0.0000    0.0000   -0.0000   -0.0000    0.0000   -0.0000
       17 FE2    3s        -0.0000    0.0000    0.0000   -0.0000    0.0000    0.0033    0.0000    0.0000   -0.0000    0.0000
       18 FE2    4s         0.0006    0.0004   -0.0000   -0.0000    0.0002   -0.3701   -0.0006   -0.0000    0.0000   -0.0008
       19 FE2    5s        -0.0001    0.0035    0.0000    0.0000   -0.0003   -0.9293   -0.0006   -0.0000    0.0000   -0.0010
       20 FE2    2px        0.0000   -0.0000   -0.0001    0.0001    0.0000   -0.0000    0.0000   -0.0000   -0.0000   -0.0000
       21 FE2    3px       -0.0000   -0.0000   -0.0137    0.0117    0.0000    0.0000   -0.0000    0.0032    0.0062    0.0000
       22 FE2    4px        0.0000   -0.0000   -0.3927    0.3354    0.0000    0.0000   -0.0000    0.3868    0.7638    0.0000
       23 FE2    5px       -0.0000    0.0000    0.6510   -0.5560   -0.0000   -0.0000   -0.0000    0.2334    0.4609    0.0000
       24 FE2    2py        0.0000   -0.0000   -0.0001   -0.0001   -0.0000   -0.0000    0.0000   -0.0000    0.0000    0.0000
       25 FE2    3py       -0.0000    0.0000   -0.0117   -0.0137   -0.0000   -0.0000   -0.0000    0.0062   -0.0032   -0.0000
       26 FE2    4py       -0.0000   -0.0000   -0.3354   -0.3927   -0.0000   -0.0000   -0.0000    0.7638   -0.3868   -0.0000
       27 FE2    5py       -0.0000   -0.0000    0.5560    0.6510    0.0000   -0.0000   -0.0000    0.4609   -0.2334   -0.0000
       28 FE2    2pz       -0.0000    0.0000   -0.0000   -0.0000    0.0002   -0.0000   -0.0000    0.0000   -0.0000    0.0000
       29 FE2    3pz       -0.0000    0.0001   -0.0000   -0.0000    0.0181    0.0000    0.0004   -0.0000    0.0000   -0.0070
       30 FE2    4pz       -0.0001    0.0054   -0.0000   -0.0000    0.5164    0.0007    0.0550   -0.0000    0.0000   -0.8545
       31 FE2    5pz        0.0002   -0.0001    0.0000    0.0000   -0.8562    0.0004    0.0334   -0.0000    0.0000   -0.5156
       32 FE2    3d2-       0.0000   -0.0000    0.0000    0.0000    0.0000    0.0000    0.0000    0.0000    0.0000   -0.0000
       33 FE2    4d2-       0.0000   -0.0000    0.0000    0.0000    0.0000    0.0000    0.0000    0.0000    0.0000   -0.0000
       34 FE2    3d1-      -0.0000   -0.0000   -0.0000   -0.0000   -0.0000   -0.0000   -0.0000    0.0001   -0.0000   -0.0000
       35 FE2    4d1-      -0.0000   -0.0000   -0.0001   -0.0001   -0.0000   -0.0000   -0.0000    0.0005   -0.0003   -0.0000
       36 FE2    3d0        0.0000   -0.0000   -0.0000   -0.0000    0.0000   -0.0000    0.0002   -0.0000    0.0000   -0.0001
       37 FE2    4d0       -0.0000   -0.0002   -0.0000   -0.0000    0.0001   -0.0001    0.0012   -0.0000    0.0000   -0.0007
       38 FE2    3d1+      -0.0000   -0.0000   -0.0000    0.0000    0.0000   -0.0000   -0.0000    0.0000    0.0001    0.0000
       39 FE2    4d1+      -0.0000   -0.0000   -0.0001    0.0001    0.0000   -0.0000   -0.0000    0.0003    0.0005    0.0000
       40 FE2    3d2+      -0.0000   -0.0000   -0.0000    0.0000    0.0000   -0.0000    0.0000    0.0000   -0.0000   -0.0000
       41 FE2    4d2+       0.0000   -0.0000    0.0000    0.0000    0.0000   -0.0000    0.0000    0.0000   -0.0000   -0.0000
       42 FE2    4f3-       0.0000   -0.0000   -0.0000    0.0000    0.0000   -0.0000   -0.0000    0.0000    0.0000    0.0000
       43 FE2    4f2-       0.0000    0.0000    0.0000   -0.0000    0.0000    0.0000    0.0000   -0.0000   -0.0000   -0.0000
       44 FE2    4f1-       0.0000    0.0000   -0.0000   -0.0000   -0.0000   -0.0000   -0.0000    0.0000   -0.0000   -0.0000
       45 FE2    4f0        0.0000   -0.0000   -0.0000   -0.0000    0.0000   -0.0000    0.0000   -0.0000    0.0000   -0.0000
       46 FE2    4f1+      -0.0000    0.0000   -0.0000    0.0000    0.0000    0.0000   -0.0000    0.0000    0.0000   -0.0000
       47 FE2    4f2+      -0.0000   -0.0000   -0.0000    0.0000    0.0000    0.0000    0.0000   -0.0000   -0.0000   -0.0000
       48 FE2    4f3+      -0.0000   -0.0000   -0.0000    0.0000   -0.0000    0.0000   -0.0000   -0.0000   -0.0000    0.0000
 
          Orbital           31        32        33        34        35        36        37        38        39        40    
          Energy            0.2676    0.4485    0.2676    0.4489    0.2678    0.2678    0.2726    3.1043    2.3434    2.0481
          Occ. No.          0.0000    0.0000    0.0000    0.0000    0.0000    0.0000    0.0000    0.0000    0.0000    0.0000
 
        1 O1     1s        -0.0000   -0.0000   -0.0000    0.0000    0.0000   -0.0000    0.0000    0.0000    0.0000   -0.0000
        2 O1     2s         0.0000    0.0000    0.0000   -0.0000   -0.0000    0.0000   -0.0000   -0.0000   -0.0000    0.0000
        3 O1     3s        -0.0000   -0.0000   -0.0000    0.0000    0.0005   -0.0000    0.0000    0.0000    0.0000   -0.0000
        4 O1     2px       -0.0001    0.0009   -0.0001   -0.0459    0.0000   -0.0002    0.0010    0.0000    0.0024   -0.0002
        5 O1     3px       -0.0021    0.0205   -0.0025   -0.9984    0.0006   -0.0046    0.0185    0.0000    0.0167   -0.0003
        6 O1     2py       -0.0000    0.0460   -0.0001    0.0010    0.0000   -0.0001    0.0002    0.0000    0.0006    0.0019
        7 O1     3py       -0.0007    0.9987   -0.0029    0.0207    0.0001   -0.0027    0.0035    0.0000    0.0060    0.0005
        8 O1     2pz       -0.0000   -0.0000   -0.0000    0.0000    0.0004   -0.0000    0.0000    0.0000    0.0000   -0.0000
        9 O1     3pz       -0.0000   -0.0000   -0.0000    0.0000    0.0045   -0.0000    0.0000    0.0002    0.0000   -0.0000
       10 O1     3d2-       0.0001    0.0002    0.0000    0.0004   -0.0000    0.0001   -0.0002   -0.0000    0.0002    0.0001
       11 O1     3d1-      -0.0003   -0.0024   -0.0002    0.0029   -0.0000    0.0009    0.0081   -0.0000    0.1738    0.9666
       12 O1     3d0        0.0000    0.0000    0.0000   -0.0000   -0.0009    0.0000   -0.0000   -0.0000   -0.0000   -0.0000
       13 O1     3d1+      -0.0014   -0.0050    0.0006    0.0147   -0.0000   -0.0043    0.0366   -0.0000    0.8023   -0.0963
       14 O1     3d2+       0.0003    0.0009    0.0000    0.0022   -0.0000    0.0003   -0.0010   -0.0000    0.0011    0.0003
       15 FE2    1s        -0.0000   -0.0000   -0.0000    0.0000    0.0000   -0.0000    0.0000    0.0000    0.0000   -0.0000
       16 FE2    2s        -0.0000   -0.0000   -0.0000    0.0000    0.0000   -0.0000    0.0000    0.0000    0.0000   -0.0000
       17 FE2    3s        -0.0000   -0.0000   -0.0000    0.0000    0.0000   -0.0000    0.0000    0.0000    0.0000   -0.0000
       18 FE2    4s        -0.0000   -0.0000   -0.0000    0.0000    0.0000   -0.0000    0.0000   -0.0000    0.0000   -0.0000
       19 FE2    5s         0.0000    0.0000    0.0000   -0.0000   -0.0000    0.0000   -0.0000   -0.0000   -0.0000   -0.0000
       20 FE2    2px        0.0000   -0.0000    0.0000    0.0000   -0.0000    0.0000   -0.0000    0.0000    0.0000   -0.0000
       21 FE2    3px        0.0000    0.0000   -0.0000   -0.0000    0.0000   -0.0000    0.0000   -0.0000   -0.0000    0.0000
       22 FE2    4px        0.0000    0.0000   -0.0000   -0.0008    0.0000   -0.0002    0.0005   -0.0000   -0.0001    0.0000
       23 FE2    5px        0.0000    0.0000   -0.0000   -0.0003    0.0000   -0.0001    0.0002   -0.0000   -0.0000    0.0000
       24 FE2    2py        0.0000   -0.0000    0.0000   -0.0000   -0.0000    0.0000    0.0000   -0.0000   -0.0000    0.0000
       25 FE2    3py       -0.0000    0.0000   -0.0000    0.0000    0.0000   -0.0000   -0.0000    0.0000   -0.0000   -0.0000
       26 FE2    4py       -0.0000    0.0008   -0.0000    0.0000    0.0000   -0.0005   -0.0002    0.0000   -0.0000   -0.0001
       27 FE2    5py       -0.0000    0.0003   -0.0000    0.0000    0.0000   -0.0002   -0.0001    0.0000   -0.0000   -0.0000
       28 FE2    2pz       -0.0000   -0.0000   -0.0000    0.0000    0.0000   -0.0000    0.0000    0.0000    0.0000   -0.0000
       29 FE2    3pz        0.0000    0.0000    0.0000   -0.0000   -0.0000    0.0000   -0.0000    0.0000   -0.0000    0.0000
       30 FE2    4pz        0.0000    0.0000    0.0000   -0.0000   -0.0007    0.0000   -0.0000   -0.0000   -0.0000    0.0000
       31 FE2    5pz        0.0000    0.0000    0.0000   -0.0000   -0.0003    0.0000   -0.0000   -0.0000   -0.0000    0.0000
       32 FE2    3d2-       0.1363    0.0001    0.0062   -0.0003    0.0000   -0.0002   -0.0006   -0.0000    0.0003   -0.0000
       33 FE2    4d2-       0.9896    0.0008    0.0447   -0.0022    0.0000   -0.0012   -0.0042   -0.0000    0.0018   -0.0000
       34 FE2    3d1-       0.0003    0.0001   -0.0001    0.0002   -0.0000    0.1291    0.0440   -0.0000   -0.0016   -0.0000
       35 FE2    4d1-       0.0025    0.0008   -0.0006    0.0014   -0.0000    0.9376    0.3195   -0.0000   -0.0116   -0.0001
       36 FE2    3d0       -0.0000   -0.0000   -0.0000    0.0001    0.1364   -0.0000    0.0000    0.0010    0.0000   -0.0000
       37 FE2    4d0       -0.0000   -0.0001   -0.0000    0.0006    0.9906   -0.0000    0.0000    0.0070    0.0000   -0.0000
       38 FE2    3d1+      -0.0005    0.0006    0.0005   -0.0024    0.0000    0.0440   -0.1289    0.0000    0.0060    0.0000
       39 FE2    4d1+      -0.0039    0.0042    0.0034   -0.0173    0.0000    0.3197   -0.9363    0.0000    0.0436    0.0001
       40 FE2    3d2+       0.0062   -0.0004   -0.1363    0.0003   -0.0000    0.0001   -0.0005    0.0000    0.0001   -0.0000
       41 FE2    4d2+       0.0447   -0.0029   -0.9896    0.0022   -0.0000    0.0005   -0.0036    0.0000    0.0007   -0.0003
       42 FE2    4f3-      -0.0009   -0.0048    0.0001    0.0088   -0.0000    0.0021    0.0247   -0.0000    0.5376   -0.2050
       43 FE2    4f2-      -0.0005    0.0003   -0.0000    0.0004   -0.0000   -0.0014    0.0047    0.0000   -0.0107   -0.0001
       44 FE2    4f1-      -0.0000    0.0025    0.0001    0.0021   -0.0000   -0.0052    0.0065   -0.0000    0.1593    0.1074
       45 FE2    4f0        0.0000    0.0000   -0.0000   -0.0000   -0.0071   -0.0000    0.0000    1.0000    0.0000   -0.0000
       46 FE2    4f1+       0.0004    0.0004   -0.0000    0.0016   -0.0000    0.0028   -0.0043    0.0000   -0.0713   -0.0495
       47 FE2    4f2+      -0.0013    0.0008   -0.0000    0.0009   -0.0000   -0.0038    0.0131    0.0000   -0.0296   -0.0003
       48 FE2    4f3+      -0.0003   -0.0011   -0.0000   -0.0036    0.0000   -0.0006   -0.0012    0.0000   -0.0577    0.0211
 
          Orbital           41        42        43        44        45        46        47    
          Energy            1.9780    2.7857    1.9780    3.1037    3.1039    3.1044    3.1045
          Occ. No.          0.0000    0.0000    0.0000    0.0000    0.0000    0.0000    0.0000
 
        1 O1     1s         0.0000   -0.0000   -0.0000    0.0000    0.0000   -0.0000    0.0000
        2 O1     2s         0.0000    0.0000   -0.0000   -0.0000   -0.0000    0.0000   -0.0000
        3 O1     3s        -0.0000   -0.0000    0.0000    0.0000    0.0000   -0.0000    0.0000
        4 O1     2px       -0.0000   -0.0011    0.0001    0.0001    0.0001    0.0001    0.0001
        5 O1     3px       -0.0000   -0.0016    0.0023    0.0009    0.0008    0.0026    0.0022
        6 O1     2py       -0.0000   -0.0000   -0.0000   -0.0000   -0.0000   -0.0001   -0.0001
        7 O1     3py       -0.0000   -0.0011   -0.0009   -0.0005   -0.0004   -0.0017   -0.0014
        8 O1     2pz       -0.0000   -0.0000    0.0000    0.0000    0.0000   -0.0000    0.0000
        9 O1     3pz       -0.0000   -0.0000    0.0000    0.0000    0.0000   -0.0000    0.0000
       10 O1     3d2-       0.9808   -0.0001    0.1949    0.0000    0.0000   -0.0000   -0.0000
       11 O1     3d1-       0.0000    0.0014   -0.0004    0.0052    0.0047   -0.0005   -0.0005
       12 O1     3d0       -0.0000    0.0000    0.0000   -0.0000   -0.0000    0.0000   -0.0000
       13 O1     3d1+       0.0000   -0.5336   -0.0013    0.0170    0.0155   -0.0017   -0.0015
       14 O1     3d2+      -0.1949   -0.0007    0.9808    0.0000    0.0000   -0.0000   -0.0000
       15 FE2    1s        -0.0000   -0.0000    0.0000   -0.0000   -0.0000   -0.0000    0.0000
       16 FE2    2s        -0.0000   -0.0000    0.0000    0.0000    0.0000   -0.0000    0.0000
       17 FE2    3s        -0.0000   -0.0000    0.0000    0.0000    0.0000   -0.0000    0.0000
       18 FE2    4s        -0.0000   -0.0000    0.0000    0.0000    0.0000   -0.0000    0.0000
       19 FE2    5s         0.0000    0.0000   -0.0000    0.0000   -0.0000    0.0000   -0.0000
       20 FE2    2px        0.0000   -0.0000   -0.0000    0.0000    0.0000   -0.0000    0.0000
       21 FE2    3px       -0.0000    0.0000    0.0000   -0.0000   -0.0000    0.0000    0.0000
       22 FE2    4px       -0.0000    0.0001    0.0000   -0.0000   -0.0000    0.0000   -0.0000
       23 FE2    5px       -0.0000    0.0000    0.0000   -0.0000   -0.0000    0.0000   -0.0000
       24 FE2    2py        0.0000    0.0000    0.0000    0.0000    0.0000    0.0000    0.0000
       25 FE2    3py       -0.0000    0.0000   -0.0000   -0.0000   -0.0000   -0.0000    0.0000
       26 FE2    4py       -0.0000   -0.0000   -0.0000   -0.0000   -0.0000   -0.0000   -0.0000
       27 FE2    5py       -0.0000   -0.0000   -0.0000   -0.0000   -0.0000   -0.0000   -0.0000
       28 FE2    2pz       -0.0000   -0.0000    0.0000   -0.0000    0.0000   -0.0000    0.0000
       29 FE2    3pz        0.0000    0.0000   -0.0000   -0.0000   -0.0000    0.0000   -0.0000
       30 FE2    4pz        0.0000    0.0000   -0.0000   -0.0000   -0.0000    0.0000   -0.0000
       31 FE2    5pz        0.0000    0.0000   -0.0000   -0.0000   -0.0000    0.0000   -0.0000
       32 FE2    3d2-      -0.0000   -0.0000   -0.0000    0.0002    0.0001   -0.0001   -0.0000
       33 FE2    4d2-      -0.0000   -0.0001   -0.0003    0.0011    0.0009   -0.0004   -0.0003
       34 FE2    3d1-      -0.0000   -0.0000    0.0000   -0.0001   -0.0001    0.0000    0.0000
       35 FE2    4d1-      -0.0000   -0.0000    0.0000   -0.0008   -0.0007    0.0000    0.0000
       36 FE2    3d0       -0.0000   -0.0000    0.0000    0.0000    0.0000   -0.0000    0.0000
       37 FE2    4d0       -0.0000   -0.0000    0.0000    0.0000    0.0000   -0.0000    0.0000
       38 FE2    3d1+       0.0000   -0.0000   -0.0002    0.0016    0.0015   -0.0002   -0.0002
       39 FE2    4d1+       0.0000   -0.0002   -0.0011    0.0116    0.0106   -0.0014   -0.0012
       40 FE2    3d2+       0.0000   -0.0000   -0.0000    0.0000    0.0000   -0.0000   -0.0000
       41 FE2    4d2+       0.0000   -0.0002   -0.0000    0.0001    0.0001   -0.0000   -0.0000
       42 FE2    4f3-       0.0000    0.5955    0.0000    0.0150    0.0136   -0.1040   -0.0013
       43 FE2    4f2-       0.0000    0.0000    0.0000    0.8844   -0.4666    0.0000    0.0000
       44 FE2    4f1-      -0.0000    0.5424   -0.0000   -0.0000   -0.0000   -0.0000    0.4190
       45 FE2    4f0        0.0000   -0.0000   -0.0000    0.0000    0.0000   -0.0000   -0.0000
       46 FE2    4f1+      -0.0000   -0.2503    0.0000   -0.0000   -0.0000    0.0000    0.9080
       47 FE2    4f2+      -0.0000    0.0001    0.0000    0.4661    0.8841    0.0000    0.0001
       48 FE2    4f3+       0.0000   -0.0613   -0.0000   -0.0016   -0.0015   -0.9946    0.0001
--
 
 
++    Molecular properties:
      ---------------------
 
      Charge (e):
                      =    2.0000
      Dipole Moment (Debye):
      Origin of the operator (Ang)=    0.0000    0.0000    0.0000
                   X=  7.0317E-13               Y= -3.8040E-12               Z= -3.0494E+01           Total=  3.0494E+01
      Center of Charge (Ang)
                     X=    0.00000000               Y=   -0.00000000               Z=   -3.17430204
      Quadrupole Moment (Debye*Ang):
      Origin of the operator (Ang)=    0.0000    0.0000   -1.4100
                  XX= -1.4217E+01              XY= -1.8452E-13              XZ= -8.0832E-12              YY= -1.4217E+01
                  YZ= -3.9532E-10              ZZ=  1.5121E+01
      In traceless form (Debye*Ang)
                  XX= -1.4669E+01              XY= -2.7677E-13              XZ= -1.2125E-11              YY= -1.4669E+01
                  YZ= -5.9297E-10              ZZ=  2.9338E+01
--
 
 
  Input file to MOLDEN was generated!
 
 ###############################################################################
 ###############################################################################
 ###                                                                         ###
 ###                                                                         ###
 ###    RunFile label nBas                                                   ###
 ###    was used       86 times                                              ###
 ###                                                                         ###
 ###                                                                         ###
 ###############################################################################
 ###############################################################################
--- Stop Module: scf at Sun Dec 22 16:48:03 2024 /rc=_RC_ALL_IS_WELL_ ---
*** files: 7.96.LprOrb 7.96.LoProp.molden 7.96.scf.molden 7.96.scf.h5 7.96.UhfOrb 7.96.UnaOrb xmldump
    saved to directory /home/grierjones/DDCASPT2/iron_oxo_DDCASPT2/cluster/7.96

>>> COPY /tmp/7.96/7.96.scf.h5 /home/grierjones/DDCASPT2/iron_oxo_DDCASPT2/cluster/7.96/

*** symbolic link created: INPORB -> 7.96.UnaOrb
--- Start Module: rasscf at Sun Dec 22 16:48:03 2024 ---
 
()()()()()()()()()()()()()()()()()()()()()()()()()()()()()()()()()()()()()()()()()()()()()()()()()()

                                              &RASSCF

                                   only a single process is used
                       available to each process: 2.0 GB of memory, 1 thread?
()()()()()()()()()()()()()()()()()()()()()()()()()()()()()()()()()()()()()()()()()()()()()()()()()()
 
 ###############################################################################
 ###############################################################################
 ###                                                                         ###
 ###                                                                         ###
 ###    LUMORB input error.                                                  ###
 ###                                                                         ###
 ###                                                                         ###
 ###############################################################################
 ###############################################################################
  Keyword LUMORB used with file name StartOrbFile=
 /home/grierjones/DDCASPT2/iron_oxo_DDCASPT2/cluster/7.95/7.95.RasOrb           
                                                  
  but that file cannot be used. Perhaps it does
  not exist?
 
 *************** WARNING ****************
 ###############################################################################
 ###############################################################################
 ###                                                                         ###
 ###                                                                         ###
 ###    Too many macro-iterations.                                           ###
 ###                                                                         ###
 ###                                                                         ###
 ###############################################################################
 ###############################################################################
 Too many macro-iterations requested.
 Reset to maximum, new MAXIT=     200
 ****************************************
 
 *************** WARNING ****************
 ###############################################################################
 ###############################################################################
 ###                                                                         ###
 ###                                                                         ###
 ###    Too many SX-iterations.                                              ###
 ###                                                                         ###
 ###                                                                         ###
 ###############################################################################
 ###############################################################################
 Too many SX-iterations requested.
 Reset to maximum, new ITMAX=     100
 ****************************************
 
      Header of the ONEINT file:
      --------------------------
      
      Integrals generated by seward 4.2.0  , Sun Dec 22 16:48:01 2024
 
 
      OrdInt status: non-squared
 
 
      Cartesian coordinates in Angstrom:
      -----------------------------------------------------
      No.  Label        X            Y            Z        
      -----------------------------------------------------
       1   O1         0.00000000   0.00000000   4.78016000
       2   FE2        0.00000000   0.00000000  -3.18016000
      -----------------------------------------------------
      Nuclear repulsion energy =   13.82719034
 
++    Wave function specifications:
      -----------------------------
 
      Number of closed shell electrons          22
      Number of electrons in active shells      10
      Max number of holes in RAS1 space          0
      Max nr of electrons in RAS3 space          0
      Number of inactive orbitals               11
      Number of active orbitals                 14
      Number of secondary orbitals              23
      Spin quantum number                      2.0
      State symmetry                             1
--
 
++    Orbital specifications:
      -----------------------
 
      Symmetry species                           1
                                                 a
      Frozen orbitals                            0
      Inactive orbitals                         11
      Active orbitals                           14
      RAS1 orbitals                              0
      RAS2 orbitals                             14
      RAS3 orbitals                              0
      Secondary orbitals                        23
      Deleted orbitals                           0
      Number of basis functions                 48
--
 
++    CI expansion specifications:
      ----------------------------
 
      Number of CSFs                        975975
      Number of determinants               1249248
      Number of root(s) required                 1
      Root chosen for geometry opt.              1
      CI root used                               1
         
      highest root included in the CI            1
      max. size of the explicit Hamiltonian    200
--
 
++    Optimization specifications:
      ----------------------------
 
      RASSCF algorithm: Conventional
      Maximum number of macro iterations       200
      Maximum number of SX iterations          100
      Threshold for RASSCF energy            0.100E-07
      Threshold for max MO rotation          0.100E+00
      Threshold for max BLB element          0.100E-03
      Level shift parameter                  0.500E+00
      Make Quasi-Newton update
--
 
 RdVec: File 
 /home/grierjones/DDCASPT2/iron_oxo_DDCASPT2/cluster/7.95/7.95.RasOrb 
  not found!
[ process      0]: xquit (rc =    128): _INTERNAL_ERROR_
abort: 
--- Stop Module: rasscf at Sun Dec 22 16:48:03 2024 /rc=_RC_FLOATING_EXCEPTION_ ---
*** files: xmldump
    saved to directory /home/grierjones/DDCASPT2/iron_oxo_DDCASPT2/cluster/7.96

.########################.
.# Non-zero return code #.
.########################.

    Timing: Wall=1.61 User=1.33 System=0.28
************************************
*** WorkDir at /tmp/7.96 cleaned ***
************************************
