[Molden Format]
[N_Atoms]
                     2
[Atoms] (AU)
BE1         1      4           0.00000000      0.00000000      0.00000000
F2          2      9           0.00000000      0.00000000      4.53534270
[Charge] (Mulliken)
  0.200895549835847     
 -0.200895549835877     
[GTO] (AU)
   1
   s  14
  2.262859900E+04  8.443999941E-05
  3.372318100E+03  4.601499968E-04
  7.603504000E+02  2.285389984E-03
  2.117404800E+02  9.648129932E-03
  6.722346800E+01  3.494469975E-02
  2.337217700E+01  1.061099893E-01
  8.721373000E+00  2.458240383E-01
  3.468091000E+00  3.862428773E-01
  1.452144000E+00  3.105526078E-01
  6.086150000E-01  6.415933955E-02
  2.576860000E-01 -2.265049984E-03
  1.041760000E-01 -5.217499963E-04
  4.242700000E-02 -8.757499938E-04
  1.484900000E-02  1.242199991E-04
   s  14
  2.262859900E+04 -1.586999994E-05
  3.372318100E+03 -8.656999968E-05
  7.603504000E+02 -4.302199984E-04
  2.117404800E+02 -1.825079993E-03
  6.722346800E+01 -6.682749976E-03
  2.337217700E+01 -2.095119992E-02
  8.721373000E+00 -5.200308981E-02
  3.468091000E+00 -9.849176964E-02
  1.452144000E+00 -1.355800695E-01
  6.086150000E-01 -6.429875976E-02
  2.576860000E-01  3.125414989E-01
  1.041760000E-01  6.270468577E-01
  4.242700000E-02  2.110231492E-01
  1.484900000E-02 -4.104669985E-03
   p   9
  3.371018400E+01  1.069960000E-03
  8.057649500E+00  6.828550001E-03
  2.836471400E+00  2.119065000E-02
  1.099965700E+00  5.843696001E-02
  4.433964000E-01  2.020920800E-01
  1.822264000E-01  4.582953101E-01
  7.572410000E-02  3.691239601E-01
  3.168540000E-02  6.611471001E-02
  1.108990000E-02  1.405160000E-03
 
   2
   s  14
  1.031094600E+05  1.713099991E-04
  1.528100700E+04  7.123999962E-04
  3.441539200E+03  2.990479984E-03
  9.670948300E+02  1.164036994E-02
  3.140353400E+02  3.968642979E-02
  1.134423000E+02  1.128546094E-01
  4.464472700E+01  2.473650687E-01
  1.894287400E+01  3.672702681E-01
  8.532743000E+00  2.896286985E-01
  3.919401000E+00  7.786681959E-02
  1.568157000E+00  4.562139976E-03
  6.232900000E-01  2.468879987E-03
  2.408610000E-01  1.106309994E-03
  8.430100000E-02  1.739699991E-04
   s  14
  1.031094600E+05 -4.044999995E-05
  1.528100700E+04 -1.682299998E-04
  3.441539200E+03 -7.084299991E-04
  9.670948300E+02 -2.767999996E-03
  3.140353400E+02 -9.611379987E-03
  1.134423000E+02 -2.833957996E-02
  4.464472700E+01 -6.839343991E-02
  1.894287400E+01 -1.237379298E-01
  8.532743000E+00 -1.512859698E-01
  3.919401000E+00 -9.099909988E-03
  1.568157000E+00  3.716257695E-01
  6.232900000E-01  5.500214393E-01
  2.408610000E-01  2.092318697E-01
  8.430100000E-02  8.074639989E-03
   p   9
  2.453302900E+02  1.024860004E-03
  5.691900500E+01  8.344290032E-03
  1.760456800E+01  4.078927016E-02
  6.274995000E+00  1.351370605E-01
  2.447030000E+00  2.798830811E-01
  9.950600000E-01  3.597966414E-01
  4.039730000E-01  3.055347412E-01
  1.548100000E-01  1.354703905E-01
  5.418400000E-02  2.804449011E-02
 
[MO]
Sym=     1a  
Ene=   -26.2960
Spin= Alpha
Occup=    1.00000
   1        -0.00001231
   2        -0.00018154
   3         0.00000000
   4         0.00000000
   5        -0.00024163
   6         1.00000354
   7        -0.00232299
   8         0.00000000
   9         0.00000000
  10        -0.00024470
Sym=     1a  
Ene=   -26.2610
Spin= Beta
Occup=    1.00000
   1        -0.00000901
   2        -0.00006605
   3         0.00000000
   4         0.00000000
   5        -0.00009238
   6         0.99999508
   7        -0.00380591
   8         0.00000000
   9         0.00000000
  10        -0.00017719
Sym=     2a  
Ene=    -4.7651
Spin= Alpha
Occup=    1.00000
   1         0.99999513
   2         0.00211673
   3        -0.00000000
   4         0.00000000
   5        -0.00061712
   6         0.00001064
   7         0.00019478
   8        -0.00000000
   9         0.00000000
  10        -0.00017480
Sym=     2a  
Ene=    -4.7593
Spin= Beta
Occup=    1.00000
   1         0.99999490
   2         0.00241606
   3        -0.00000000
   4         0.00000000
   5         0.00068139
   6        -0.00001705
   7        -0.00001558
   8        -0.00000000
   9         0.00000000
  10        -0.00015938
Sym=     3a  
Ene=    -1.5781
Spin= Alpha
Occup=    1.00000
   1        -0.00200514
   2         0.00215189
   3        -0.00000000
   4         0.00000000
   5         0.00307991
   6         0.00230639
   7         0.99885634
   8        -0.00000000
   9         0.00000000
  10        -0.02314946
Sym=     3a  
Ene=    -1.4384
Spin= Beta
Occup=    1.00000
   1        -0.00176797
   2         0.01943311
   3        -0.00000000
   4         0.00000000
   5         0.01699887
   6         0.00331348
   7         0.99414903
   8         0.00000000
   9         0.00000000
  10         0.00645849
Sym=     4a  
Ene=    -0.7264
Spin= Alpha
Occup=    1.00000
   1         0.01217821
   2        -0.01769221
   3        -0.00000000
   4        -0.00000000
   5        -0.01108585
   6         0.00062224
   7         0.02814979
   8         0.00000000
   9         0.00000000
  10         0.99544424
Sym=     4a  
Ene=    -0.6121
Spin= Beta
Occup=    1.00000
   1         0.00000000
   2        -0.00000000
   3         0.00033284
   4         0.01447651
   5        -0.00000000
   6         0.00000000
   7         0.00000000
   8         0.02295676
   9         0.99847834
  10         0.00000000
Sym=     5a  
Ene=    -0.6479
Spin= Alpha
Occup=    1.00000
   1        -0.00000000
   2         0.00000000
   3         0.00009950
   4         0.00497004
   5        -0.00000000
   6         0.00000000
   7        -0.00000000
   8         0.02000763
   9         0.99939144
  10        -0.00000000
Sym=     5a  
Ene=    -0.6121
Spin= Beta
Occup=    1.00000
   1        -0.00000000
   2         0.00000000
   3         0.01447651
   4        -0.00033284
   5         0.00000000
   6        -0.00000000
   7        -0.00000000
   8         0.99847834
   9        -0.02295676
  10        -0.00000000
Sym=     6a  
Ene=    -0.6479
Spin= Alpha
Occup=    1.00000
   1        -0.00000000
   2         0.00000000
   3         0.00497004
   4        -0.00009950
   5         0.00000000
   6        -0.00000000
   7        -0.00000000
   8         0.99939144
   9        -0.02000763
  10        -0.00000000
Sym=     6a  
Ene=    -0.3446
Spin= Beta
Occup=    1.00000
   1         0.00671000
   2        -0.80470597
   3         0.00000000
   4        -0.00000000
   5        -0.32065110
   6         0.01420563
   7         0.17264696
   8         0.00000000
   9        -0.00000000
  10         0.38739334
Sym=     7a  
Ene=    -0.3479
Spin= Alpha
Occup=    1.00000
   1        -0.00112581
   2         0.94356629
   3         0.00000000
   4        -0.00000000
   5        -0.34093027
   6        -0.00264873
   7        -0.03977201
   8        -0.00000000
   9         0.00000000
  10         0.08437637
Sym=     7a  
Ene=     0.0363
Spin= Beta
Occup=    0.00000
   1         0.00663069
   2         0.61244931
   3        -0.00000000
   4         0.00000000
   5        -0.48817748
   6         0.00345060
   7         0.02270176
   8         0.00000000
   9        -0.00000000
  10         0.62647816
Sym=     8a  
Ene=     0.0795
Spin= Alpha
Occup=    0.00000
   1         0.00000000
   2        -0.00000000
   3         0.99272916
   4         0.14440046
   5         0.00000000
   6         0.00000000
   7         0.00000000
   8        -0.08399150
   9        -0.01221724
  10         0.00000000
Sym=     8a  
Ene=     0.0953
Spin= Beta
Occup=    0.00000
   1        -0.00000000
   2         0.00000000
   3         0.99241928
   4         0.14588239
   5         0.00000000
   6        -0.00000000
   7        -0.00000000
   8        -0.09334403
   9        -0.01372127
  10        -0.00000000
Sym=     9a  
Ene=     0.0795
Spin= Alpha
Occup=    0.00000
   1        -0.00000000
   2         0.00000000
   3        -0.14440046
   4         0.99272916
   5        -0.00000000
   6         0.00000000
   7        -0.00000000
   8         0.01221724
   9        -0.08399150
  10         0.00000000
Sym=     9a  
Ene=     0.0953
Spin= Beta
Occup=    0.00000
   1         0.00000000
   2        -0.00000000
   3        -0.14588239
   4         0.99241928
   5        -0.00000000
   6         0.00000000
   7         0.00000000
   8         0.01372127
   9        -0.09334403
  10         0.00000000
Sym=    10a  
Ene=     0.1361
Spin= Alpha
Occup=    0.00000
   1         0.00285475
   2         0.37847119
   3        -0.00000000
   4         0.00000000
   5         0.97726132
   6        -0.02231620
   7        -0.23831550
   8        -0.00000000
   9         0.00000000
  10         0.22241310
Sym=    10a  
Ene=     0.2013
Spin= Beta
Occup=    0.00000
   1         0.00837154
   2         0.10416620
   3        -0.00000000
   4        -0.00000000
   5         0.85438993
   6        -0.01740602
   7        -0.19549634
   8         0.00000000
   9        -0.00000000
  10         0.71094439
