[Molden Format]
[N_Atoms]
                     2
[Atoms] (AU)
LI1         1      3           0.00000000      0.00000000      0.00000000
LI2         2      3           0.00000000      0.00000000      3.21253441
[Charge] (Mulliken)
   1.00089261395375     
  0.999107386046245     
[GTO] (AU)
   1
   s  14
  9.497934400E+03  9.668999974E-05
  1.416811200E+03  6.087099984E-04
  3.214599400E+02  3.101519992E-03
  9.112416300E+01  1.266904997E-02
  2.999989100E+01  4.248012989E-02
  1.101763100E+01  1.150183297E-01
  4.372801000E+00  2.398650094E-01
  1.831256000E+00  3.584300090E-01
  8.022610000E-01  3.048527792E-01
  3.626480000E-01  8.824261976E-02
  1.139950000E-01 -8.445899977E-04
  5.123700000E-02 -7.943959979E-03
  2.246800000E-02 -3.764419990E-03
  7.860000000E-03 -8.868999976E-05
   s  14
  9.497934400E+03 -1.244999993E-05
  1.416811200E+03 -7.838999954E-05
  3.214599400E+02 -4.007099976E-04
  9.112416300E+01 -1.645249990E-03
  2.999989100E+01 -5.634599967E-03
  1.101763100E+01 -1.590780991E-02
  4.372801000E+00 -3.612581979E-02
  1.831256000E+00 -6.459927962E-02
  8.022610000E-01 -1.008321794E-01
  3.626480000E-01 -9.757613942E-02
  1.139950000E-01  2.301215886E-01
  5.123700000E-02  6.102389764E-01
  2.246800000E-02  2.849406083E-01
  7.860000000E-03  4.026899976E-03
   p   9
  1.311950400E+01  1.524940000E-03
  3.077424200E+00  8.314830000E-03
  1.098800500E+00  1.933203000E-02
  4.357784000E-01  4.934293000E-02
  1.802432000E-01  1.623554000E-01
  7.613330000E-02  3.847505400E-01
  3.254650000E-02  4.336100400E-01
  1.401820000E-02  1.287005900E-01
  4.906400000E-03 -1.018520000E-03
 
   2
   s  14
  9.497934400E+03  9.668999974E-05
  1.416811200E+03  6.087099984E-04
  3.214599400E+02  3.101519992E-03
  9.112416300E+01  1.266904997E-02
  2.999989100E+01  4.248012989E-02
  1.101763100E+01  1.150183297E-01
  4.372801000E+00  2.398650094E-01
  1.831256000E+00  3.584300090E-01
  8.022610000E-01  3.048527792E-01
  3.626480000E-01  8.824261976E-02
  1.139950000E-01 -8.445899977E-04
  5.123700000E-02 -7.943959979E-03
  2.246800000E-02 -3.764419990E-03
  7.860000000E-03 -8.868999976E-05
   s  14
  9.497934400E+03 -1.244999993E-05
  1.416811200E+03 -7.838999954E-05
  3.214599400E+02 -4.007099976E-04
  9.112416300E+01 -1.645249990E-03
  2.999989100E+01 -5.634599967E-03
  1.101763100E+01 -1.590780991E-02
  4.372801000E+00 -3.612581979E-02
  1.831256000E+00 -6.459927962E-02
  8.022610000E-01 -1.008321794E-01
  3.626480000E-01 -9.757613942E-02
  1.139950000E-01  2.301215886E-01
  5.123700000E-02  6.102389764E-01
  2.246800000E-02  2.849406083E-01
  7.860000000E-03  4.026899976E-03
   p   9
  1.311950400E+01  1.524940000E-03
  3.077424200E+00  8.314830000E-03
  1.098800500E+00  1.933203000E-02
  4.357784000E-01  4.934293000E-02
  1.802432000E-01  1.623554000E-01
  7.613330000E-02  3.847505400E-01
  3.254650000E-02  4.336100400E-01
  1.401820000E-02  1.287005900E-01
  4.906400000E-03 -1.018520000E-03
 
[MO]
Sym=     1a  
Ene=    -3.1047
Spin= Alpha
Occup=    2.00000
   1         0.00674083
   2        -0.00984819
   3        -0.00000000
   4        -0.00000000
   5        -0.00042938
   6         1.00127326
   7         0.01994101
   8         0.00000000
   9         0.00000000
  10        -0.00905857
Sym=     2a  
Ene=    -3.1043
Spin= Alpha
Occup=    1.99994
   1        -1.00117576
   2        -0.01911455
   3        -0.00000000
   4        -0.00000000
   5        -0.00863909
   6         0.02213213
   7         0.00913864
   8        -0.00000000
   9        -0.00000000
  10        -0.00001211
Sym=     3a  
Ene=    -0.0016
Spin= Alpha
Occup=    0.00006
   1        -1.17882392
   2        -4.40392199
   3        -0.00000000
   4         0.00000000
   5        -1.72776892
   6         0.96765613
   7         4.83871828
   8        -0.00000000
   9         0.00000000
  10        -2.38741434
Sym=     4a  
Ene=    -0.3509
Spin= Alpha
Occup=    0.00000
   1         0.02413998
   2         0.11939244
   3         0.00000000
   4        -0.00000000
   5         0.51725384
   6        -0.13113671
   7         0.41627588
   8         0.00000000
   9        -0.00000000
  10         0.41693609
Sym=     5a  
Ene=    -0.3504
Spin= Alpha
Occup=    0.00000
   1         0.00000000
   2         0.00000000
   3        -0.50713525
   4         0.16966405
   5         0.00000000
   6        -0.00000000
   7         0.00000000
   8        -0.50698603
   9         0.16961413
  10         0.00000000
Sym=     6a  
Ene=    -0.3504
Spin= Alpha
Occup=    0.00000
   1         0.00000000
   2         0.00000000
   3         0.16966405
   4         0.50713525
   5         0.00000000
   6        -0.00000000
   7         0.00000000
   8         0.16961413
   9         0.50698603
  10         0.00000000
Sym=     7a  
Ene=    -0.2893
Spin= Alpha
Occup=    0.00000
   1        -0.15567423
   2        -0.74212743
   3        -0.00000000
   4         0.00000000
   5         0.90720633
   6        -0.08210490
   7        -0.16886353
   8        -0.00000000
   9        -0.00000000
  10        -0.87929550
Sym=     8a  
Ene=    -0.2348
Spin= Alpha
Occup=    0.00000
   1         0.00000000
   2         0.00000000
   3        -1.38914939
   4        -0.24842126
   5         0.00000000
   6        -0.00000000
   7        -0.00000000
   8         1.38920807
   9         0.24843175
  10        -0.00000000
Sym=     9a  
Ene=    -0.2348
Spin= Alpha
Occup=    0.00000
   1        -0.00000000
   2        -0.00000000
   3        -0.24842126
   4         1.38914939
   5        -0.00000000
   6         0.00000000
   7         0.00000000
   8         0.24843175
   9        -1.38920807
  10         0.00000000
Sym=    10a  
Ene=     0.0514
Spin= Alpha
Occup=    0.00000
   1        -1.05907747
   2        -5.57157512
   3         0.00000000
   4        -0.00000000
   5        -2.27328625
   6         1.25505061
   7         5.23325634
   8         0.00000000
   9         0.00000000
  10        -1.61147137
