[Molden Format]
[N_Atoms]
                     2
[Atoms] (AU)
LI1         1      3           0.00000000      0.00000000      0.00000000
LI2         2      3           0.00000000      0.00000000      3.21253441
[Charge] (Mulliken)
  5.528910662633280E-013
 -5.622169396701793E-013
[GTO] (AU)
   1
   s  14
  9.497934400E+03  9.668999974E-05
  1.416811200E+03  6.087099984E-04
  3.214599400E+02  3.101519992E-03
  9.112416300E+01  1.266904997E-02
  2.999989100E+01  4.248012989E-02
  1.101763100E+01  1.150183297E-01
  4.372801000E+00  2.398650094E-01
  1.831256000E+00  3.584300090E-01
  8.022610000E-01  3.048527792E-01
  3.626480000E-01  8.824261976E-02
  1.139950000E-01 -8.445899977E-04
  5.123700000E-02 -7.943959979E-03
  2.246800000E-02 -3.764419990E-03
  7.860000000E-03 -8.868999976E-05
   s  14
  9.497934400E+03 -1.244999993E-05
  1.416811200E+03 -7.838999954E-05
  3.214599400E+02 -4.007099976E-04
  9.112416300E+01 -1.645249990E-03
  2.999989100E+01 -5.634599967E-03
  1.101763100E+01 -1.590780991E-02
  4.372801000E+00 -3.612581979E-02
  1.831256000E+00 -6.459927962E-02
  8.022610000E-01 -1.008321794E-01
  3.626480000E-01 -9.757613942E-02
  1.139950000E-01  2.301215886E-01
  5.123700000E-02  6.102389764E-01
  2.246800000E-02  2.849406083E-01
  7.860000000E-03  4.026899976E-03
   p   9
  1.311950400E+01  1.524940000E-03
  3.077424200E+00  8.314830000E-03
  1.098800500E+00  1.933203000E-02
  4.357784000E-01  4.934293000E-02
  1.802432000E-01  1.623554000E-01
  7.613330000E-02  3.847505400E-01
  3.254650000E-02  4.336100400E-01
  1.401820000E-02  1.287005900E-01
  4.906400000E-03 -1.018520000E-03
 
   2
   s  14
  9.497934400E+03  9.668999974E-05
  1.416811200E+03  6.087099984E-04
  3.214599400E+02  3.101519992E-03
  9.112416300E+01  1.266904997E-02
  2.999989100E+01  4.248012989E-02
  1.101763100E+01  1.150183297E-01
  4.372801000E+00  2.398650094E-01
  1.831256000E+00  3.584300090E-01
  8.022610000E-01  3.048527792E-01
  3.626480000E-01  8.824261976E-02
  1.139950000E-01 -8.445899977E-04
  5.123700000E-02 -7.943959979E-03
  2.246800000E-02 -3.764419990E-03
  7.860000000E-03 -8.868999976E-05
   s  14
  9.497934400E+03 -1.244999993E-05
  1.416811200E+03 -7.838999954E-05
  3.214599400E+02 -4.007099976E-04
  9.112416300E+01 -1.645249990E-03
  2.999989100E+01 -5.634599967E-03
  1.101763100E+01 -1.590780991E-02
  4.372801000E+00 -3.612581979E-02
  1.831256000E+00 -6.459927962E-02
  8.022610000E-01 -1.008321794E-01
  3.626480000E-01 -9.757613942E-02
  1.139950000E-01  2.301215886E-01
  5.123700000E-02  6.102389764E-01
  2.246800000E-02  2.849406083E-01
  7.860000000E-03  4.026899976E-03
   p   9
  1.311950400E+01  1.524940000E-03
  3.077424200E+00  8.314830000E-03
  1.098800500E+00  1.933203000E-02
  4.357784000E-01  4.934293000E-02
  1.802432000E-01  1.623554000E-01
  7.613330000E-02  3.847505400E-01
  3.254650000E-02  4.336100400E-01
  1.401820000E-02  1.287005900E-01
  4.906400000E-03 -1.018520000E-03
 
[MO]
Sym=     1a  
Ene=    -2.5175
Spin= Alpha
Occup=    2.00000
   1         0.70357229
   2         0.00559820
   3        -0.00000000
   4         0.00000000
   5         0.00265806
   6         0.70357229
   7         0.00559820
   8         0.00000000
   9        -0.00000000
  10        -0.00265806
Sym=     2a  
Ene=    -2.4997
Spin= Alpha
Occup=    2.00000
   1        -0.71054628
   2        -0.00843983
   3        -0.00000000
   4         0.00000000
   5        -0.00039253
   6         0.71054628
   7         0.00843983
   8         0.00000000
   9        -0.00000000
  10        -0.00039253
Sym=     3a  
Ene=    -0.1899
Spin= Alpha
Occup=    1.84067
   1        -0.10625872
   2         0.49093632
   3        -0.00000000
   4         0.00000000
   5         0.14586228
   6        -0.10625872
   7         0.49093632
   8        -0.00000000
   9         0.00000000
  10        -0.14586228
Sym=     4a  
Ene=    -0.0000
Spin= Alpha
Occup=    0.15933
   1        -0.00000000
   2         0.00000000
   3         0.49379632
   4        -0.20506855
   5         0.00000000
   6        -0.00000000
   7         0.00000000
   8         0.49379632
   9        -0.20506855
  10         0.00000000
Sym=     5a  
Ene=     0.0205
Spin= Alpha
Occup=    0.00000
   1        -0.00000000
   2         0.00000000
   3         0.20506855
   4         0.49379632
   5        -0.00000000
   6         0.00000000
   7        -0.00000000
   8         0.20506855
   9         0.49379632
  10        -0.00000000
Sym=     6a  
Ene=     0.0259
Spin= Alpha
Occup=    0.00000
   1         0.05004280
   2        -0.36766267
   3        -0.00000000
   4         0.00000000
   5         0.47341080
   6        -0.05004280
   7         0.36766267
   8         0.00000000
   9         0.00000000
  10         0.47341080
Sym=     7a  
Ene=     0.0993
Spin= Alpha
Occup=    0.00000
   1         0.15841703
   2         0.33777013
   3        -0.00000000
   4        -0.00000000
   5        -0.99872430
   6         0.15841703
   7         0.33777013
   8         0.00000000
   9         0.00000000
  10         0.99872430
Sym=     8a  
Ene=     0.1562
Spin= Alpha
Occup=    0.00000
   1         0.00000000
   2         0.00000000
   3        -1.30329801
   4         0.54124631
   5        -0.00000000
   6         0.00000000
   7        -0.00000000
   8         1.30329801
   9        -0.54124631
  10        -0.00000000
Sym=     9a  
Ene=     0.1565
Spin= Alpha
Occup=    0.00000
   1        -0.00000000
   2        -0.00000000
   3        -0.54124631
   4        -1.30329801
   5         0.00000000
   6         0.00000000
   7        -0.00000000
   8         0.54124631
   9         1.30329801
  10        -0.00000000
Sym=    10a  
Ene=     0.8289
Spin= Alpha
Occup=    0.00000
   1        -1.58104564
   2        -7.10718388
   3        -0.00000000
   4         0.00000000
   5        -2.82857110
   6         1.58104564
   7         7.10718388
   8        -0.00000000
   9        -0.00000000
  10        -2.82857110
