[Molden Format]
[N_Atoms]
                     2
[Atoms] (AU)
LI1         1      3           0.00000000      0.00000000      0.00000000
LI2         2      3           0.00000000      0.00000000      3.21253441
[Charge] (Mulliken)
  5.528910662633280E-013
 -5.533351554731780E-013
[GTO] (AU)
   1
   s  14
  9.497934400E+03  9.668999974E-05
  1.416811200E+03  6.087099984E-04
  3.214599400E+02  3.101519992E-03
  9.112416300E+01  1.266904997E-02
  2.999989100E+01  4.248012989E-02
  1.101763100E+01  1.150183297E-01
  4.372801000E+00  2.398650094E-01
  1.831256000E+00  3.584300090E-01
  8.022610000E-01  3.048527792E-01
  3.626480000E-01  8.824261976E-02
  1.139950000E-01 -8.445899977E-04
  5.123700000E-02 -7.943959979E-03
  2.246800000E-02 -3.764419990E-03
  7.860000000E-03 -8.868999976E-05
   s  14
  9.497934400E+03 -1.244999993E-05
  1.416811200E+03 -7.838999954E-05
  3.214599400E+02 -4.007099976E-04
  9.112416300E+01 -1.645249990E-03
  2.999989100E+01 -5.634599967E-03
  1.101763100E+01 -1.590780991E-02
  4.372801000E+00 -3.612581979E-02
  1.831256000E+00 -6.459927962E-02
  8.022610000E-01 -1.008321794E-01
  3.626480000E-01 -9.757613942E-02
  1.139950000E-01  2.301215886E-01
  5.123700000E-02  6.102389764E-01
  2.246800000E-02  2.849406083E-01
  7.860000000E-03  4.026899976E-03
   p   9
  1.311950400E+01  1.524940000E-03
  3.077424200E+00  8.314830000E-03
  1.098800500E+00  1.933203000E-02
  4.357784000E-01  4.934293000E-02
  1.802432000E-01  1.623554000E-01
  7.613330000E-02  3.847505400E-01
  3.254650000E-02  4.336100400E-01
  1.401820000E-02  1.287005900E-01
  4.906400000E-03 -1.018520000E-03
 
   2
   s  14
  9.497934400E+03  9.668999974E-05
  1.416811200E+03  6.087099984E-04
  3.214599400E+02  3.101519992E-03
  9.112416300E+01  1.266904997E-02
  2.999989100E+01  4.248012989E-02
  1.101763100E+01  1.150183297E-01
  4.372801000E+00  2.398650094E-01
  1.831256000E+00  3.584300090E-01
  8.022610000E-01  3.048527792E-01
  3.626480000E-01  8.824261976E-02
  1.139950000E-01 -8.445899977E-04
  5.123700000E-02 -7.943959979E-03
  2.246800000E-02 -3.764419990E-03
  7.860000000E-03 -8.868999976E-05
   s  14
  9.497934400E+03 -1.244999993E-05
  1.416811200E+03 -7.838999954E-05
  3.214599400E+02 -4.007099976E-04
  9.112416300E+01 -1.645249990E-03
  2.999989100E+01 -5.634599967E-03
  1.101763100E+01 -1.590780991E-02
  4.372801000E+00 -3.612581979E-02
  1.831256000E+00 -6.459927962E-02
  8.022610000E-01 -1.008321794E-01
  3.626480000E-01 -9.757613942E-02
  1.139950000E-01  2.301215886E-01
  5.123700000E-02  6.102389764E-01
  2.246800000E-02  2.849406083E-01
  7.860000000E-03  4.026899976E-03
   p   9
  1.311950400E+01  1.524940000E-03
  3.077424200E+00  8.314830000E-03
  1.098800500E+00  1.933203000E-02
  4.357784000E-01  4.934293000E-02
  1.802432000E-01  1.623554000E-01
  7.613330000E-02  3.847505400E-01
  3.254650000E-02  4.336100400E-01
  1.401820000E-02  1.287005900E-01
  4.906400000E-03 -1.018520000E-03
 
[MO]
Sym=     1a  
Ene=    -2.5101
Spin= Alpha
Occup=    1.00000
   1         0.70296563
   2         0.00839540
   3         0.00000000
   4        -0.00000000
   5         0.00344121
   6         0.70296563
   7         0.00839540
   8        -0.00000000
   9        -0.00000000
  10        -0.00344121
Sym=     1a  
Ene=    -2.5101
Spin= Beta
Occup=    1.00000
   1         0.70296563
   2         0.00839540
   3         0.00000000
   4        -0.00000000
   5         0.00344121
   6         0.70296563
   7         0.00839540
   8        -0.00000000
   9        -0.00000000
  10        -0.00344121
Sym=     2a  
Ene=    -2.4923
Spin= Alpha
Occup=    1.00000
   1        -0.71046040
   2        -0.00804357
   3         0.00000000
   4         0.00000000
   5        -0.00024551
   6         0.71046040
   7         0.00804357
   8        -0.00000000
   9        -0.00000000
  10        -0.00024551
Sym=     2a  
Ene=    -2.4923
Spin= Beta
Occup=    1.00000
   1        -0.71046040
   2        -0.00804357
   3         0.00000000
   4         0.00000000
   5        -0.00024551
   6         0.71046040
   7         0.00804357
   8        -0.00000000
   9        -0.00000000
  10        -0.00024551
Sym=     3a  
Ene=    -0.2012
Spin= Alpha
Occup=    1.00000
   1        -0.10849820
   2         0.49457757
   3         0.00000000
   4        -0.00000000
   5         0.13486482
   6        -0.10849820
   7         0.49457757
   8        -0.00000000
   9         0.00000000
  10        -0.13486482
Sym=     3a  
Ene=    -0.2012
Spin= Beta
Occup=    1.00000
   1        -0.10849820
   2         0.49457757
   3         0.00000000
   4        -0.00000000
   5         0.13486482
   6        -0.10849820
   7         0.49457757
   8        -0.00000000
   9         0.00000000
  10        -0.13486482
Sym=     4a  
Ene=     0.0216
Spin= Alpha
Occup=    0.00000
   1         0.00000000
   2        -0.00000000
   3         0.52686208
   4        -0.09112776
   5         0.00000000
   6        -0.00000000
   7         0.00000000
   8         0.52686208
   9        -0.09112776
  10         0.00000000
Sym=     4a  
Ene=     0.0216
Spin= Beta
Occup=    0.00000
   1         0.00000000
   2        -0.00000000
   3         0.52686208
   4        -0.09112776
   5         0.00000000
   6        -0.00000000
   7         0.00000000
   8         0.52686208
   9        -0.09112776
  10         0.00000000
Sym=     5a  
Ene=     0.0216
Spin= Alpha
Occup=    0.00000
   1        -0.00000000
   2         0.00000000
   3         0.09112776
   4         0.52686208
   5        -0.00000000
   6         0.00000000
   7        -0.00000000
   8         0.09112776
   9         0.52686208
  10        -0.00000000
Sym=     5a  
Ene=     0.0216
Spin= Beta
Occup=    0.00000
   1        -0.00000000
   2         0.00000000
   3         0.09112776
   4         0.52686208
   5        -0.00000000
   6         0.00000000
   7        -0.00000000
   8         0.09112776
   9         0.52686208
  10        -0.00000000
Sym=     6a  
Ene=     0.0265
Spin= Alpha
Occup=    0.00000
   1         0.04962832
   2        -0.36947090
   3        -0.00000000
   4         0.00000000
   5         0.47269118
   6        -0.04962832
   7         0.36947090
   8        -0.00000000
   9         0.00000000
  10         0.47269118
Sym=     6a  
Ene=     0.0265
Spin= Beta
Occup=    0.00000
   1         0.04962832
   2        -0.36947090
   3        -0.00000000
   4         0.00000000
   5         0.47269118
   6        -0.04962832
   7         0.36947090
   8        -0.00000000
   9         0.00000000
  10         0.47269118
Sym=     7a  
Ene=     0.1020
Spin= Alpha
Occup=    0.00000
   1         0.15958790
   2         0.33235675
   3        -0.00000000
   4        -0.00000000
   5        -1.00026633
   6         0.15958790
   7         0.33235675
   8         0.00000000
   9         0.00000000
  10         1.00026633
Sym=     7a  
Ene=     0.1020
Spin= Beta
Occup=    0.00000
   1         0.15958790
   2         0.33235675
   3        -0.00000000
   4        -0.00000000
   5        -1.00026633
   6         0.15958790
   7         0.33235675
   8         0.00000000
   9         0.00000000
  10         1.00026633
Sym=     8a  
Ene=     0.1594
Spin= Alpha
Occup=    0.00000
   1         0.00000000
   2         0.00000000
   3        -1.39733768
   4        -0.19743528
   5         0.00000000
   6        -0.00000000
   7        -0.00000000
   8         1.39733768
   9         0.19743528
  10        -0.00000000
Sym=     8a  
Ene=     0.1594
Spin= Beta
Occup=    0.00000
   1         0.00000000
   2         0.00000000
   3        -1.39733768
   4        -0.19743528
   5         0.00000000
   6        -0.00000000
   7        -0.00000000
   8         1.39733768
   9         0.19743528
  10        -0.00000000
Sym=     9a  
Ene=     0.1594
Spin= Alpha
Occup=    0.00000
   1        -0.00000000
   2        -0.00000000
   3         0.19743528
   4        -1.39733768
   5        -0.00000000
   6         0.00000000
   7         0.00000000
   8        -0.19743528
   9         1.39733768
  10        -0.00000000
Sym=     9a  
Ene=     0.1594
Spin= Beta
Occup=    0.00000
   1        -0.00000000
   2        -0.00000000
   3         0.19743528
   4        -1.39733768
   5        -0.00000000
   6         0.00000000
   7         0.00000000
   8        -0.19743528
   9         1.39733768
  10        -0.00000000
Sym=    10a  
Ene=     0.8315
Spin= Alpha
Occup=    0.00000
   1        -1.58109730
   2        -7.10709056
   3        -0.00000000
   4         0.00000000
   5        -2.82869147
   6         1.58109730
   7         7.10709056
   8         0.00000000
   9        -0.00000000
  10        -2.82869147
Sym=    10a  
Ene=     0.8315
Spin= Beta
Occup=    0.00000
   1        -1.58109730
   2        -7.10709056
   3        -0.00000000
   4         0.00000000
   5        -2.82869147
   6         1.58109730
   7         7.10709056
   8         0.00000000
   9        -0.00000000
  10        -2.82869147
