[Molden Format]
[N_Atoms]
                     2
[Atoms] (AU)
B1          1      5           0.00000000      0.00000000      0.00000000
BE2         2      4           0.00000000      0.00000000      1.13383567
[Charge] (Mulliken)
 -0.942662004346704     
  0.942662004346698     
[GTO] (AU)
   1
   s  14
  3.336021700E+04  1.039699991E-04
  4.972095200E+03  5.254399956E-04
  1.125641700E+03  2.509059979E-03
  3.164913600E+02  1.031887991E-02
  1.020072600E+02  3.636632969E-02
  3.629587300E+01  1.064607991E-01
  1.397141000E+01  2.403999880E-01
  5.741156000E+00  3.748581168E-01
  2.494268000E+00  3.100066974E-01
  1.114202000E+00  7.922455933E-02
  4.215490000E-01 -4.947589958E-03
  1.696330000E-01 -7.737119935E-03
  6.853500000E-02 -1.501079987E-03
  2.398700000E-02 -1.333299989E-04
   s  14
  3.336021700E+04 -2.030000008E-05
  4.972095200E+03 -1.025700004E-04
  1.125641700E+03 -4.911300020E-04
  3.164913600E+02 -2.026570008E-03
  1.020072600E+02 -7.261010030E-03
  3.629587300E+01 -2.197722009E-02
  1.397141000E+01 -5.408428022E-02
  5.741156000E+00 -1.022402604E-01
  2.494268000E+00 -1.423595206E-01
  1.114202000E+00 -4.658690019E-02
  4.215490000E-01  3.799402916E-01
  1.696330000E-01  5.890463624E-01
  6.853500000E-02  1.749075107E-01
  2.398700000E-02 -1.142030005E-03
   p   9
  5.500000000E+01  1.229800005E-03
  1.336610100E+01  8.827380035E-03
  4.135394000E+00  3.843340015E-02
  1.481256000E+00  1.150031805E-01
  6.021360000E-01  2.733674011E-01
  2.556360000E-01  4.061972116E-01
  1.111510000E-01  3.014967912E-01
  4.764800000E-02  7.684809030E-02
  1.667700000E-02 -8.170000032E-06
 
   2
   s  14
  2.262859900E+04  8.443999941E-05
  3.372318100E+03  4.601499968E-04
  7.603504000E+02  2.285389984E-03
  2.117404800E+02  9.648129932E-03
  6.722346800E+01  3.494469975E-02
  2.337217700E+01  1.061099893E-01
  8.721373000E+00  2.458240383E-01
  3.468091000E+00  3.862428773E-01
  1.452144000E+00  3.105526078E-01
  6.086150000E-01  6.415933955E-02
  2.576860000E-01 -2.265049984E-03
  1.041760000E-01 -5.217499963E-04
  4.242700000E-02 -8.757499938E-04
  1.484900000E-02  1.242199991E-04
   s  14
  2.262859900E+04 -1.586999994E-05
  3.372318100E+03 -8.656999968E-05
  7.603504000E+02 -4.302199984E-04
  2.117404800E+02 -1.825079993E-03
  6.722346800E+01 -6.682749976E-03
  2.337217700E+01 -2.095119992E-02
  8.721373000E+00 -5.200308981E-02
  3.468091000E+00 -9.849176964E-02
  1.452144000E+00 -1.355800695E-01
  6.086150000E-01 -6.429875976E-02
  2.576860000E-01  3.125414989E-01
  1.041760000E-01  6.270468577E-01
  4.242700000E-02  2.110231492E-01
  1.484900000E-02 -4.104669985E-03
   p   9
  3.371018400E+01  1.069960000E-03
  8.057649500E+00  6.828550001E-03
  2.836471400E+00  2.119065000E-02
  1.099965700E+00  5.843696001E-02
  4.433964000E-01  2.020920800E-01
  1.822264000E-01  4.582953101E-01
  7.572410000E-02  3.691239601E-01
  3.168540000E-02  6.611471001E-02
  1.108990000E-02  1.405160000E-03
 
[MO]
Sym=     1a  
Ene=    -8.4506
Spin= Alpha
Occup=    1.00000
   1         0.96932650
   2        -0.02792380
   3        -0.00000000
   4        -0.00000000
   5         0.01432851
   6         0.11727767
   7         0.02585037
   8         0.00000000
   9         0.00000000
  10        -0.02814404
Sym=     1a  
Ene=    -8.4506
Spin= Beta
Occup=    1.00000
   1         0.96932650
   2        -0.02792380
   3        -0.00000000
   4        -0.00000000
   5         0.01432851
   6         0.11727767
   7         0.02585037
   8         0.00000000
   9         0.00000000
  10        -0.02814404
Sym=     2a  
Ene=    -5.6278
Spin= Alpha
Occup=    1.00000
   1        -0.25694534
   2        -0.07475747
   3         0.00000000
   4        -0.00000000
   5         0.01587268
   6         1.01838939
   7         0.04570592
   8         0.00000000
   9         0.00000000
  10        -0.04550128
Sym=     2a  
Ene=    -5.6278
Spin= Beta
Occup=    1.00000
   1        -0.25694534
   2        -0.07475747
   3         0.00000000
   4        -0.00000000
   5         0.01587268
   6         1.01838939
   7         0.04570592
   8         0.00000000
   9         0.00000000
  10        -0.04550128
Sym=     3a  
Ene=    -0.6252
Spin= Alpha
Occup=    1.00000
   1        -0.00407849
   2         0.82802917
   3        -0.00000000
   4        -0.00000000
   5        -0.01515321
   6        -0.21141273
   7         0.24218967
   8         0.00000000
   9         0.00000000
  10         0.03050456
Sym=     3a  
Ene=    -0.6252
Spin= Beta
Occup=    1.00000
   1        -0.00407849
   2         0.82802917
   3        -0.00000000
   4        -0.00000000
   5        -0.01515321
   6        -0.21141273
   7         0.24218967
   8         0.00000000
   9         0.00000000
  10         0.03050456
Sym=     4a  
Ene=    -0.5137
Spin= Alpha
Occup=    1.00000
   1         0.00000000
   2         0.00000000
   3         0.70574720
   4        -0.36843494
   5        -0.00000000
   6        -0.00000000
   7        -0.00000000
   8         0.20825713
   9        -0.10872052
  10         0.00000000
Sym=     4a  
Ene=    -0.5137
Spin= Beta
Occup=    1.00000
   1         0.00000000
   2         0.00000000
   3         0.70574720
   4        -0.36843494
   5        -0.00000000
   6        -0.00000000
   7        -0.00000000
   8         0.20825713
   9        -0.10872052
  10         0.00000000
Sym=     5a  
Ene=    -0.3490
Spin= Alpha
Occup=    1.00000
   1         0.00000000
   2        -0.00000000
   3         0.38476288
   4         0.73702383
   5        -0.00000000
   6         0.00000000
   7        -0.00000000
   8         0.09054479
   9         0.17344103
  10         0.00000000
Sym=     5a  
Ene=    -0.3490
Spin= Beta
Occup=    0.00000
   1         0.00000000
   2        -0.00000000
   3         0.38476288
   4         0.73702383
   5        -0.00000000
   6         0.00000000
   7        -0.00000000
   8         0.09054479
   9         0.17344103
  10         0.00000000
Sym=     6a  
Ene=    -0.0000
Spin= Alpha
Occup=    0.00000
   1         0.08859677
   2        -0.28610504
   3         0.00000000
   4        -0.00000000
   5         0.19134787
   6         0.00161789
   7         0.53193377
   8         0.00000000
   9         0.00000000
  10         0.70540828
Sym=     6a  
Ene=    -0.0000
Spin= Beta
Occup=    0.00000
   1         0.08859677
   2        -0.28610504
   3         0.00000000
   4        -0.00000000
   5         0.19134787
   6         0.00161789
   7         0.53193377
   8         0.00000000
   9         0.00000000
  10         0.70540828
Sym=     7a  
Ene=     0.3728
Spin= Alpha
Occup=    0.00000
   1        -0.00000000
   2        -0.00000000
   3        -1.43053522
   4         0.74681013
   5         0.00000000
   6         0.00000000
   7         0.00000000
   8         1.58149900
   9        -0.82562069
  10        -0.00000000
Sym=     7a  
Ene=     0.3728
Spin= Beta
Occup=    0.00000
   1        -0.00000000
   2        -0.00000000
   3        -1.43053522
   4         0.74681013
   5         0.00000000
   6         0.00000000
   7         0.00000000
   8         1.58149900
   9        -0.82562069
  10        -0.00000000
Sym=     8a  
Ene=     0.3741
Spin= Alpha
Occup=    0.00000
   1        -0.00000000
   2        -0.00000000
   3        -0.73853043
   4        -1.41467523
   5         0.00000000
   6        -0.00000000
   7         0.00000000
   8         0.82781116
   9         1.58569491
  10        -0.00000000
Sym=     8a  
Ene=     0.3741
Spin= Beta
Occup=    0.00000
   1        -0.00000000
   2        -0.00000000
   3        -0.73853043
   4        -1.41467523
   5         0.00000000
   6        -0.00000000
   7         0.00000000
   8         0.82781116
   9         1.58569491
  10        -0.00000000
Sym=     9a  
Ene=     0.3858
Spin= Alpha
Occup=    0.00000
   1         0.50374621
   2         1.50992146
   3        -0.00000000
   4        -0.00000000
   5        -1.29532859
   6         0.02878334
   7        -1.09163925
   8         0.00000000
   9         0.00000000
  10         1.64153005
Sym=     9a  
Ene=     0.3858
Spin= Beta
Occup=    0.00000
   1         0.50374621
   2         1.50992146
   3        -0.00000000
   4        -0.00000000
   5        -1.29532859
   6         0.02878334
   7        -1.09163925
   8         0.00000000
   9         0.00000000
  10         1.64153005
Sym=    10a  
Ene=     0.7891
Spin= Alpha
Occup=    0.00000
   1        -0.89402801
   2        -3.76250181
   3         0.00000000
   4        -0.00000000
   5        -0.75290801
   6         1.44708994
   7         3.48064124
   8        -0.00000000
   9         0.00000000
  10        -1.23342053
Sym=    10a  
Ene=     0.7891
Spin= Beta
Occup=    0.00000
   1        -0.89402801
   2        -3.76250181
   3         0.00000000
   4        -0.00000000
   5        -0.75290801
   6         1.44708994
   7         3.48064124
   8        -0.00000000
   9         0.00000000
  10        -1.23342053
