   This run of MOLCAS is using the pymolcas driver

                             OPE
                             OPE          NMOL  CASOP  ENMOLC A   SO
                 OPE        NMOLC        AS  OP EN  MO LC     AS  OP
                OPENM       OL CA        SO  PE NM  OL CA     SOP EN
                OP EN      MO   LC       AS  OP ENMOL  CASO   PENMOL
                OP  EN     MO   LC       AS  OP EN     MO     LC ASO
               OP   E  NMOL  C  AS       OP  EN MO     LC     AS  OP
               OP  E   NMO   LC AS        OPEN  MO     LCASOP EN   M
               O  PEN   MO  LCA  SO
            OPE   NMO   L   CAS    OP
        OPENMOL  CASOP     ENMOL   CASOPE
     OPENMOLCA   SOPENMOLCASOPEN   MOLCASOPE
    OPENMOLCAS   OP           EN   MOL    CAS
    OPENMOLCAS       OP  ENM        O     LCA
    OPENMOLCAS    OPEN  MOLCASO     P  E  NMO
    OPENMOLCAS     OP               E  N  MOL
    OPENMOLCA   SO           PENM   O  L  CAS    OPEN    MO    LCAS
    OPENMOLCA   SOP           ENM   O  L  CAS   OP  EN  MOLC  AS   O
    OPENMOLCA   SOPE           NM      O  LCA   S      OP  EN MO
    OPENMOLC                AS         O  PEN   M      OL  CA  SOPE
    OPENMO        LCASOPE  NMOL        C  ASO   P      ENMOLC     AS
    OPE     NMO      LCA  SO     P     E   NM   OL  CA SO  PE N   MO
          OPENMOLCA            SOPE   NMO        LCAS  O    P  ENMO
     OPENMOLCASOPENMOLCASOPENMOLCASOPENMOLCA
        OPENMOLCASOPENMOLCASOPENMOLCASOPE
            OPENMOLCASOPENMOLCASOPENM
               OPENMOLCASOPENMOLCA        version: 24.02
                   OPENMOLCASO
                       OPE                tag: 126-g611b04c8f

 OpenMolcas is free software; you can redistribute it and/or modify it
 under the terms of the GNU Lesser General Public License version 2.1.
 OpenMolcas is distributed in the hope that it will be useful, but it
 is provided "as is" and without any express or implied warranties.
 For more details see the full text of the license in the file
 LICENSE or in <http://www.gnu.org/licenses/>.

                 Copyright (C) The OpenMolcas Authors
           For the author list and the recommended citation,
                   consult the file CONTRIBUTORS.md

           *************************************************
           * pymolcas version py2.28                       *
           *   build c4a6d18ded8cb6cad61d2372a9abd97c      *
           *   (after the EMIL interpreter by V. Veryazov) *
           *************************************************

configuration info
------------------
Host name: debian (Linux)
C Compiler ID: GNU
C flags: -std=gnu99
Fortran Compiler ID: Intel
Fortran flags: -fpp -i8 -heap-arrays
Definitions: _MOLCAS_;_I8_;_LINUX_
Parallel: OFF (GA=OFF)


   ------------------------------------------------------------------
  |
  |              Project: 0.60
  |       Submitted from: /home/grierjones/DDCASPT2/delta_ML/BBe/0.60
  |         Scratch area: /tmp/0.60
  |      Save outputs to: /home/grierjones/DDCASPT2/delta_ML/BBe/0.60
  |               Molcas: /usr/local
  |
  | Scratch area is empty
  |
  |       MOLCAS_DRIVER = /usr/local/pymolcas
  | MOLCAS_KEEP_WORKDIR = NO
  |  MOLCAS_NEW_WORKDIR = YES
  |       MOLCAS_NPROCS = 1
  |       MOLCAS_SOURCE = /usr/local
  |    MOLCAS_STRUCTURE = 0
  |
   ------------------------------------------------------------------

++ ---------   Input file   ---------

&GATEWAY
coord=0.60.xyz
Basis = ANO-RCC-MB
Group = nosymm
End of Input

&SEWARD
End of Input

&SCF
UHF

&MBPT2
Frozen
0

&RASSCF
Title= RASSCF

NACTEL
1 0 0
Inactive
4
RAS2
2
Symmetry
1
Spin
2
orblisting
all
ITERation
200 100
CIMX
200
SDAV
500

&CASPT2
Imaginary Shift
0.0
Frozen
0

-- ----------------------------------

--- Start Module: gateway at Thu Apr 25 13:31:42 2024 ---
 
()()()()()()()()()()()()()()()()()()()()()()()()()()()()()()()()()()()()()()()()()()()()()()()()()()

                                              &GATEWAY

                                   only a single process is used
                       available to each process: 2.0 GB of memory, 1 thread?
                                             pid: 93314
()()()()()()()()()()()()()()()()()()()()()()()()()()()()()()()()()()()()()()()()()()()()()()()()()()
 
 
++    Symmetry information:
      ---------------------
 
                    Character Table for C1 
 
                             E  
                    a        1  x, y, xy, Rz, z, xz, Ry, yz, Rx, I
--
 
 
++    Basis set information:
      ----------------------
 
 
      Basis set label: B.ANO-RCC...2S1P.
 
      Electronic valence basis set:
      ------------------
      Associated Effective Charge   5.000000 au
      Associated Actual Charge      5.000000 au
      Nuclear Model: Point charge
 
      Shell  nPrim  nBasis  Cartesian Spherical Contaminant
         s      14       2        X                  
         p       9       1        X                  
 
 
      Basis set label: BE.ANO-RCC...2S1P.
 
      Electronic valence basis set:
      ------------------
      Associated Effective Charge   4.000000 au
      Associated Actual Charge      4.000000 au
      Nuclear Model: Point charge
 
      Shell  nPrim  nBasis  Cartesian Spherical Contaminant
         s      14       2        X                  
         p       9       1        X                  
--
 
 
++    Molecular structure info:
      -------------------------
 
                    ************************************************ 
                    **** Cartesian Coordinates / Bohr, Angstrom **** 
                    ************************************************ 
 
     Center  Label                x              y              z                     x              y              z
        1      B1               0.000000       0.000000       0.000000              0.000000       0.000000       0.000000
        2      BE2              0.000000       0.000000       1.133836              0.000000       0.000000       0.600000
--
 
 
            Nuclear Potential Energy             17.63924036 au
 
--- Stop Module: gateway at Thu Apr 25 13:31:42 2024 /rc=_RC_ALL_IS_WELL_ ---
*** files: xmldump
    saved to directory /home/grierjones/DDCASPT2/delta_ML/BBe/0.60

--- Start Module: seward at Thu Apr 25 13:31:42 2024 ---
 
()()()()()()()()()()()()()()()()()()()()()()()()()()()()()()()()()()()()()()()()()()()()()()()()()()

                                              &SEWARD

                                   only a single process is used
                       available to each process: 2.0 GB of memory, 1 thread?
                                             pid: 93317
()()()()()()()()()()()()()()()()()()()()()()()()()()()()()()()()()()()()()()()()()()()()()()()()()()
 
               SEWARD will generate:
                  Multipole Moment integrals up to order  2
                  Kinetic Energy integrals
                  Nuclear Attraction integrals (point charge)
                  One-Electron Hamiltonian integrals
                  Velocity integrals
                  Relativistic Douglas-Kroll-Hess integrals:
                    - Parametrization         : EXP
                    - DKH order of Hamiltonian: 2
                    - DKH order of Properties : 0
                         - multipole moment operators
                         - electric potential operators
                         - contact operators
                  Orbital angular momentum around ( 0.0000  0.0000  0.5104 )
                  Velocity quadrupole around ( 0.0000  0.0000  0.5104 )
                  Atomic mean-field integrals
                  Two-Electron Repulsion integrals
 
                   Integrals are discarded if absolute value <: 1.00E-14
                   Integral cutoff threshold is set to       <: 1.00E-16
 
            Nuclear Potential Energy             17.63924036 au
 
 
      Basis set specifications :
      Symmetry species         a  
      Basis functions           10
 
 
      Input file to MOLDEN was generated!
 
--- Stop Module: seward at Thu Apr 25 13:31:43 2024 /rc=_RC_ALL_IS_WELL_ ---
*** files: 0.60.GssOrb 0.60.guessorb.h5 0.60.guessorb.molden xmldump
    saved to directory /home/grierjones/DDCASPT2/delta_ML/BBe/0.60

*** symbolic link created: INPORB -> 0.60.GssOrb
--- Start Module: scf at Thu Apr 25 13:31:43 2024 ---
 
()()()()()()()()()()()()()()()()()()()()()()()()()()()()()()()()()()()()()()()()()()()()()()()()()()

                                                &SCF

                                   only a single process is used
                       available to each process: 2.0 GB of memory, 1 thread?
                                             pid: 93321
()()()()()()()()()()()()()()()()()()()()()()()()()()()()()()()()()()()()()()()()()()()()()()()()()()
 
++    Input section:
      --------------
 
      Header of the integral files:
      
       Integrals generated by Gateway/Seward, Thu Apr 25 13:31:42 2024
 
 
      Cartesian coordinates in Angstrom:
      -----------------------------------------------------
      No.  Label        X            Y            Z        
      -----------------------------------------------------
       1   B1         0.00000000   0.00000000   0.00000000
       2   BE2        0.00000000   0.00000000   0.60000000
      -----------------------------------------------------
      Nuclear repulsion energy =   17.63924036
--
 
++    Orbital specifications:
      -----------------------
 
      Symmetry species               1
                                     a
      Frozen orbitals                0
      Occupied orbitals alpha        5
      Occupied orbitals beta         4
      Secondary orbitals alpha       5
      Secondary orbitals beta        6
      Deleted orbitals               0
      Total number of orbitals      10
      Number of basis functions     10
--
 
      Molecular charge                           0.000
 
++    Optimization specifications:
      ----------------------------
 
      SCF Algorithm: Conventional USCF
      D(i)-D(i-1) density differences are used
      Number of density matrices in core                 5
      Maximum number of NDDO SCF iterations            400
      Maximum number of HF SCF iterations              400
      Threshold for SCF energy change             1.00E-09
      Threshold for density matrix                1.00E-04
      Threshold for Fock matrix                   1.50E-04
      Threshold for linear dependence             1.00E-09
      Threshold at which DIIS is turned on        1.50E-01
      Maximum depth in the DIIS procedure                5
      Maximum depth in the BFGS Hessian update          30
      Threshold at which QNR/C2DIIS is turned on  7.50E-02
      Threshold for Norm(delta) (QNR/C2DIIS)      1.00E-03
      All orbitals punched on: UHFORB
--
 
      Input vectors read from INPORB
      Orbital file label: *Guess orbitals
 
 
++ Convergence information
                               UHF SCF        iterations: Energy and convergence statistics
 
Iter     Tot. SCF        One-elec.       Two-elec.     Energy      Max Dij or  Max Fij      DNorm      TNorm      AccCon     Time
         Energy          Energy          Energy        Change      Delta Norm                                                in Sec.
   1   -36.818062155   -78.219091465    23.761788946   0.00E+00    2.12E-01*   1.18E-01*    4.18E+00   1.60E+01   None         0.
   2   -36.860865829   -77.989396143    23.489289950  -4.28E-02*   9.18E-02*   2.82E-02*    1.26E+00   1.60E+01   EDIIS        0.
   3   -36.864427253   -78.023876342    23.520208726  -3.56E-03*   2.09E-02*   1.53E-02*    2.83E-01   1.60E+01   c2DIIS       0.
   4   -36.865160276   -77.995651302    23.491250662  -7.33E-04*   1.10E-02*   2.94E-03*    8.72E-02   1.59E+01   QNRc2DIIS    0.
   5   -36.865186373   -77.999821929    23.495395193  -2.61E-05*   8.60E-03*   1.25E-03*    1.68E-02   1.60E+01   QNRc2DIIS    0.
   6   -36.865194322   -77.997857218    23.493422532  -7.95E-06*   3.16E-03*   4.35E-04*    1.54E-02   1.59E+01   QNRc2DIIS    0.
   7   -36.865195696   -77.997310000    23.492873941  -1.37E-06*   6.00E-03*   3.15E-04*    5.41E-03   1.59E+01   QNRc2DIIS    0.
   8   -36.865196912   -77.997527858    23.493090582  -1.22E-06*   4.38E-04    4.76E-05     9.44E-03   1.59E+01   QNRc2DIIS    0.
   9   -36.865196927   -77.997504410    23.493067119  -1.53E-08*   2.40E-05    7.73E-06     8.49E-04   1.59E+01   QNRc2DIIS    0.
  10   -36.865196927   -77.997513820    23.493076529  -1.69E-10    5.36E-06    1.40E-06     1.06E-04   1.59E+01   QNRc2DIIS    0.
 
       Convergence after  10 Macro Iterations
--
 
 *****************************************************************************************************************************
 *                                                                                                                           *
 *                                             SCF/KS-DFT Program, Final results                                             *
 *                                                                                                                           *
 *                                                                                                                           *
 *                                                                                                                           *
 *                                                       Final Results                                                       *
 *                                                                                                                           *
 *****************************************************************************************************************************
 
::    Total SCF energy                                -36.8651969273
      One-electron energy                             -77.9975138199
      Two-electron energy                              23.4930765292
      Nuclear repulsion energy                         17.6392403634
      Kinetic energy (interpolated)                    40.7436097910
      Virial theorem                                    0.9048092969
      Total spin, S(S+1)                                0.7602700916
      Total spin, S                                     0.5051219287
      Max non-diagonal density matrix element           0.0000035078
      Max non-diagonal Fock matrix element              0.0000005586
 
 
      All orbitals with orbital energies smaller than  E(LUMO)+0.5 are printed
 
++    Molecular orbitals:
      -------------------
 
      Title: UHF orbitals (alpha)

      Molecular orbitals for symmetry species 1: a  
 
          Orbital            1         2         3         4         5         6         7         8         9    
          Energy           -8.4598   -5.6297   -0.6763   -0.5756   -0.5293   -0.0488    0.3375    0.3679    0.3718
          Occ. No.          1.0000    1.0000    1.0000    1.0000    1.0000    0.0000    0.0000    0.0000    0.0000
 
        1 B1     1s         0.9695   -0.2570   -0.0104    0.0000   -0.0000    0.0885   -0.0000   -0.0000    0.4936
        2 B1     2s        -0.0257   -0.0732    0.8400    0.0000   -0.0000   -0.2535   -0.0000   -0.0000    1.4809
        3 B1     2px        0.0000    0.0000    0.0000    0.7477    0.3788    0.0000   -1.4090   -0.7416   -0.0000
        4 B1     2py       -0.0000   -0.0000    0.0000   -0.3904    0.7255   -0.0000    0.7356   -1.4206   -0.0000
        5 B1     2pz        0.0150    0.0170    0.0034   -0.0000   -0.0000    0.1911    0.0000    0.0000   -1.3038
        6 BE2    1s         0.1165    1.0175   -0.2228   -0.0000    0.0000   -0.0069    0.0000   -0.0000    0.0422
        7 BE2    2s         0.0248    0.0450    0.2148   -0.0000    0.0000    0.5411    0.0000    0.0000   -1.0485
        8 BE2    2px       -0.0000   -0.0000    0.0000    0.1614    0.0972    0.0000    1.5870    0.8271    0.0000
        9 BE2    2py        0.0000    0.0000    0.0000   -0.0843    0.1863    0.0000   -0.8285    1.5842    0.0000
       10 BE2    2pz       -0.0283   -0.0459   -0.0153    0.0000   -0.0000    0.7056   -0.0000   -0.0000    1.6276
--
 
 
      Input file to MOLDEN was generated!
 
 
++    Static properties:
      ------------------
 
 
      LoProp Charges per center
 

                   B1       BE2   
      Nuclear      5.0000   4.0000
      Electronic  -6.2701  -2.7299
 
      Total       -1.2701   1.2701
--
 
 
      All orbitals with orbital energies smaller than  E(LUMO)+0.5 are printed
 
++    Molecular orbitals:
      -------------------
 
      Title: UHF orbitals (beta)

      Molecular orbitals for symmetry species 1: a  
 
          Orbital            1         2         3         4         5         6    
          Energy           -8.4421   -5.6246   -0.5753   -0.4985   -0.1343   -0.0396
          Occ. No.          1.0000    1.0000    1.0000    1.0000    0.0000    0.0000
 
        1 B1     1s         0.9692   -0.2569    0.0042   -0.0000    0.0000    0.1077
        2 B1     2s        -0.0300   -0.0764    0.8132   -0.0000    0.0000   -0.2575
        3 B1     2px        0.0000    0.0000    0.0000    0.3586    0.5320    0.0000
        4 B1     2py        0.0000   -0.0000    0.0000    0.6869   -0.2777   -0.0000
        5 B1     2pz        0.0137    0.0148   -0.0349   -0.0000   -0.0000    0.1776
        6 BE2    1s         0.1179    1.0193   -0.1990    0.0000   -0.0000   -0.0040
        7 BE2    2s         0.0269    0.0465    0.2736    0.0000   -0.0000    0.4588
        8 BE2    2px       -0.0000   -0.0000    0.0000    0.1195    0.3934    0.0000
        9 BE2    2py       -0.0000    0.0000    0.0000    0.2290   -0.2054    0.0000
       10 BE2    2pz       -0.0280   -0.0452    0.0880   -0.0000    0.0000    0.7463
--
 
 
++    Molecular charges:
      ------------------
 
      Mulliken charges per centre and basis function type
      ---------------------------------------------------
 
                            B1                      BE2   
                     alpha        beta       alpha        beta
      1s           0.9923      0.9919      1.0128      1.0145
      2s           0.7845      0.7487      0.1942      0.2558
      2px          0.8335      0.1642      0.1665      0.0499
      2pz          0.0071      0.0065      0.0091     -0.0175
      2py          0.8185      0.6026      0.1815      0.1832
      Total        3.4359      2.5140      1.5641      1.4860
      Total              5.9499                  3.0501
 
      Charge           -0.9499                  0.9499
 
      Total electronic charge=    9.000000
 
      Total            charge=   -0.000000
--
 
 
      Input file to MOLDEN was generated!
 
 
++    Static properties:
      ------------------
 
 
      LoProp Charges per center
 

                   B1       BE2   
      Nuclear      5.0000   4.0000
      Electronic  -6.2701  -2.7299
 
      Total       -1.2701   1.2701
--
 
 
++    Natural Bond Order analysis
      ---------------------------
      Based on LoProp computed density
      -------------------------------------------------------------------------------------
      Atom A       Atom B       Bond Order
      -------------------------------------------------------------------------------------
      NBO located      0.999 non-bonded electrons on atom B1        
      The remaining    4.076 electrons are to be considered as diffuse
--
 
 
++    Molecular orbitals:
      -------------------
 
      Title: Natural orbitals

      Molecular orbitals for symmetry species 1: a  
 
          Orbital            1         2         3         4         5         6         7         8         9        10    
          Energy           -8.1040   -5.9732   -0.5138   -0.6251   -0.3490    0.0372    0.3728    0.5162    0.5761    0.3734
          Occ. No.          2.0000    2.0000    1.9997    1.9957    1.0000    0.0043    0.0003    0.0000    0.0000    0.0000
 
        1 B1     1s        -0.9979    0.0989    0.0000   -0.0044    0.0000   -0.1419   -0.0000    0.3412    0.9614   -0.0000
        2 B1     2s         0.0054   -0.0872   -0.0000   -0.8271    0.0000    0.2433   -0.0000    1.5609    3.7447   -0.0000
        3 B1     2px        0.0000    0.0000    0.3687    0.0000    0.7466    0.0000   -0.7467   -0.0000   -0.0000   -1.4097
        4 B1     2py        0.0000   -0.0000    0.7063    0.0000   -0.3898   -0.0000   -1.4303    0.0000    0.0000    0.7359
        5 B1     2pz       -0.0079    0.0200   -0.0000    0.0157   -0.0000    0.4449    0.0000    1.3901   -0.3886    0.0000
        6 BE2    1s         0.2456    0.9968    0.0000    0.2039   -0.0000   -0.2322    0.0000   -1.0167   -1.0037    0.0000
        7 BE2    2s        -0.0066    0.0497    0.0000   -0.2445   -0.0000   -0.5817    0.0000   -1.5315   -3.3022    0.0000
        8 BE2    2px        0.0000   -0.0000    0.1084    0.0000    0.1627   -0.0000    0.8257    0.0000    0.0000    1.5868
        9 BE2    2py        0.0000    0.0000    0.2077    0.0000   -0.0849    0.0000    1.5816   -0.0000   -0.0000   -0.8284
       10 BE2    2pz        0.0106   -0.0528   -0.0000   -0.0353    0.0000   -1.0945   -0.0000    0.1091    1.8717   -0.0000
--
 
 
++    Molecular properties:
      ---------------------
 
      Charge (e):
                      =   -0.0000
      Dipole Moment (Debye):
      Origin of the operator (Ang)=    0.0000    0.0000    0.0000
                   X=  3.7003E-14               Y= -4.8313E-14               Z=  3.2605E+00           Total=  3.2605E+00
      Quadrupole Moment (Debye*Ang):
      Origin of the operator (Ang)=    0.0000    0.0000    0.2701
                  XX= -1.3747E+01              XY= -1.3791E+00              XZ=  4.6511E-14              YY= -1.5668E+01
                  YZ=  6.4958E-14              ZZ= -9.3399E+00
      In traceless form (Debye*Ang)
                  XX= -1.2425E+00              XY= -2.0686E+00              XZ=  6.9767E-14              YY= -4.1250E+00
                  YZ=  9.7437E-14              ZZ=  5.3675E+00
--
 
 
      Input file to MOLDEN was generated!
 
 ###############################################################################
 ###############################################################################
 ###                                                                         ###
 ###                                                                         ###
 ###    WARNING: RunFile label nBas                                          ###
 ###    was used       87 times                                              ###
 ###                                                                         ###
 ###                                                                         ###
 ###############################################################################
 ###############################################################################
--- Stop Module: scf at Thu Apr 25 13:31:43 2024 /rc=_RC_ALL_IS_WELL_ ---
*** files: 0.60.LprOrb 0.60.LoProp.molden 0.60.scf.molden 0.60.scf.h5 0.60.UhfOrb 0.60.UnaOrb xmldump
    saved to directory /home/grierjones/DDCASPT2/delta_ML/BBe/0.60

*** symbolic link created: INPORB -> 0.60.UnaOrb
--- Start Module: mbpt2 at Thu Apr 25 13:31:43 2024 ---
 
()()()()()()()()()()()()()()()()()()()()()()()()()()()()()()()()()()()()()()()()()()()()()()()()()()

                                               &MBPT2

                                   only a single process is used
                       available to each process: 2.0 GB of memory, 1 thread?
                                             pid: 93325
()()()()()()()()()()()()()()()()()()()()()()()()()()()()()()()()()()()()()()()()()()()()()()()()()()
 
 
 ###############################################################################
 ###############################################################################
 ###                                                                         ###
 ###                                                                         ###
 ###    WARNING: MP2 implementation intended for RHF references only         ###
 ###                                                                         ###
 ###                                                                         ###
 ###############################################################################
 ###############################################################################
MBPT2 WARNING: Reference function according to RunFile:UHF-SCF 
I'll assume you know what you're doing and continue
 
 
WARNING!
Default frozen orbitals as non valence orbitals is overwritten by user input.
Default values:   2
 
 
      Cartesian coordinates in Angstrom:
      -----------------------------------------------------
      No.  Label        X            Y            Z        
      -----------------------------------------------------
       1   B1         0.00000000   0.00000000   0.00000000
       2   BE2        0.00000000   0.00000000   0.60000000
      -----------------------------------------------------
      Nuclear repulsion energy =   17.63924036
 
      Contents of RUNFILE file:
      -------------------------
 
      Symmetry species                           1
                                                 a
      Number of basis functions                 10
      Frozen occupied orbitals                   0
      Active occupied orbitals                   5
      Active external orbitals                   5
      Deleted external orbitals                  0
 
 
      Energies of the active occupied orbitals
 
      symmetry species 1                    -8.459846     -5.629718     -0.676317     -0.575647     -0.529342
 
 
      Energies of the active external orbitals
 
      symmetry species 1                    -0.048782      0.337502      0.367899      0.371750      0.777366
 
 
      ********************************************************************************************************
      *                                               Results                                                *
      ********************************************************************************************************
 
 Conventional algorithm used...

       SCF energy                           =      -36.8651969273 a.u.
       Second-order correlation energy      =       -0.0383818752 a.u.

       Total energy                         =      -36.9035788025 a.u.
       Reference weight ( Cref**2 )         =        0.97874
 
::    Total MBPT2 energy                              -36.9035788025
 
 
       Zeroth-order energy (E0)             =      -14.1024995370 a.u.
 
       Shanks-type energy S1(E)             =      -36.9036436304 a.u.
 
 


       Data processing and timing information:

       Section                                              time(sec)
                                                          CPU  Elapsed

      Input data processing                              0.01      0.04
      Transformation of integrals                        0.00      0.01
      MBPT2 calculations (BJAI)                          0.00      0.00
      Total MBPT2 calculations                           0.01      0.05
 
 
--- Stop Module: mbpt2 at Thu Apr 25 13:31:43 2024 /rc=_RC_ALL_IS_WELL_ ---
*** files: xmldump
    saved to directory /home/grierjones/DDCASPT2/delta_ML/BBe/0.60

*** symbolic link created: INPORB -> 0.60.UnaOrb
--- Start Module: rasscf at Thu Apr 25 13:31:43 2024 ---
 
()()()()()()()()()()()()()()()()()()()()()()()()()()()()()()()()()()()()()()()()()()()()()()()()()()

                                              &RASSCF

                                   only a single process is used
                       available to each process: 2.0 GB of memory, 1 thread?
                                             pid: 93328
()()()()()()()()()()()()()()()()()()()()()()()()()()()()()()()()()()()()()()()()()()()()()()()()()()
 
 
      Header of the ONEINT file:
      --------------------------
      
      Integrals generated by Gateway/Seward, Thu Apr 25 13:31:42 2024
 
 
      OrdInt status: non-squared
 
 
      Cartesian coordinates in Angstrom:
      -----------------------------------------------------
      No.  Label        X            Y            Z        
      -----------------------------------------------------
       1   B1         0.00000000   0.00000000   0.00000000
       2   BE2        0.00000000   0.00000000   0.60000000
      -----------------------------------------------------
      Nuclear repulsion energy =   17.63924036
 
++    Wave function specifications:
      -----------------------------
 
      Number of closed shell electrons           8
      Number of electrons in active shells       1
      Max number of holes in RAS1 space          0
      Max nr of electrons in RAS3 space          0
      Number of inactive orbitals                4
      Number of active orbitals                  2
      Number of secondary orbitals               4
      Spin quantum number                      0.5
      State symmetry                             1
--
 
++    Orbital specifications:
      -----------------------
 
      Symmetry species                           1
                                                 a
      Frozen orbitals                            0
      Inactive orbitals                          4
      Active orbitals                            2
      RAS1 orbitals                              0
      RAS2 orbitals                              2
      RAS3 orbitals                              0
      Secondary orbitals                         4
      Deleted orbitals                           0
      Number of basis functions                 10
--
 
++    CI expansion specifications:
      ----------------------------
 
      Number of CSFs                             2
      Number of determinants                     2
      Number of root(s) required                 1
      Root chosen for geometry opt.              1
      CI root used                               1
         
      highest root included in the CI            1
      max. size of the explicit Hamiltonian      2
--
 
++    Optimization specifications:
      ----------------------------
 
      RASSCF algorithm: Conventional
      Maximum number of macro iterations       200
      Maximum number of SX iterations          100
      Threshold for RASSCF energy            1.000E-08
      Threshold for max MO rotation          1.000E-01
      Threshold for max BLB element          1.000E-04
      Level shift parameter                  5.000E-01
      Make Quasi-Newton update
--
 
      Orbitals from runfile: scf orbitals
      The MO-coefficients are taken from scf orbitals on runfile
 
      Total molecular charge    0.00
 
      ************************************************************************************************************************
      *                                                                                                                      *
      *                                            Wave function control section                                             *
      *                                                                                                                      *
      ************************************************************************************************************************
 
 
                                         RASSCF iterations: Energy and convergence statistics
                                         ----------------------------------------------------
 
      Iter CI   SX   CI       RASSCF       Energy    max ROT     max BLB   max BLB  Level Ln srch  Step   QN   Walltime
          iter iter root      energy       change     param      element    value   shift minimum  type update hh:mm:ss
 Nr of preliminary CI iterations:   1
 ###############################################################################
 ###############################################################################
 ###                                                                         ###
 ###                                                                         ###
 ###    WARNING: Problems in orbital optimization.                           ###
 ###                                                                         ###
 ###                                                                         ###
 ###############################################################################
 ###############################################################################
  Warning: In symmetry  1, orbital p=   6 has diagonal density matrix element D(p,p) close to zero. D(p,p)=  9.110063E-31
        1   1    4    1   -36.86047194    0.00E+00   1.86E-02    4   7 1 -5.14E-02*  0.50   0.00    SX    NO    0:00:00
 ###############################################################################
 ###############################################################################
 ###                                                                         ###
 ###                                                                         ###
 ###    WARNING: Problems in orbital optimization.                           ###
 ###                                                                         ###
 ###                                                                         ###
 ###############################################################################
 ###############################################################################
  Warning: In symmetry  1, orbital p=   6 has diagonal density matrix element D(p,p) close to zero. D(p,p)=  4.936224E-31
        2   1    4    1   -36.86317460   -2.70E-03* -8.46E-03    4   7 1 -1.82E-02*  0.50   0.00    SX    NO    0:00:00
 ###############################################################################
 ###############################################################################
 ###                                                                         ###
 ###                                                                         ###
 ###    WARNING: Problems in orbital optimization.                           ###
 ###                                                                         ###
 ###                                                                         ###
 ###############################################################################
 ###############################################################################
  Warning: In symmetry  1, orbital p=   6 has diagonal density matrix element D(p,p) close to zero. D(p,p)=  6.262466E-31
        3   1    4    1   -36.86369918   -5.25E-04*  4.53E-03    3   6 1 -9.75E-03*  0.50   0.00    SX    NO    0:00:00
 ###############################################################################
 ###############################################################################
 ###                                                                         ###
 ###                                                                         ###
 ###    WARNING: Problems in orbital optimization.                           ###
 ###                                                                         ###
 ###                                                                         ###
 ###############################################################################
 ###############################################################################
  Warning: In symmetry  1, orbital p=   6 has diagonal density matrix element D(p,p) close to zero. D(p,p)=  2.439795E-31
        4   1    4    1   -36.86385594   -1.57E-04* -2.70E-03    3   6 1 -5.82E-03*  0.50   0.00    SX    NO    0:00:00
 ###############################################################################
 ###############################################################################
 ###                                                                         ###
 ###                                                                         ###
 ###    WARNING: Problems in orbital optimization.                           ###
 ###                                                                         ###
 ###                                                                         ###
 ###############################################################################
 ###############################################################################
  Warning: In symmetry  1, orbital p=   6 has diagonal density matrix element D(p,p) close to zero. D(p,p)=  3.409084E-32
        5   1    4    1   -36.86391175   -5.58E-05* -4.01E-03    3   6 1 -3.69E-03*  0.50   2.50    LS   YES    0:00:00
 ###############################################################################
 ###############################################################################
 ###                                                                         ###
 ###                                                                         ###
 ###    WARNING: Problems in orbital optimization.                           ###
 ###                                                                         ###
 ###                                                                         ###
 ###############################################################################
 ###############################################################################
  Warning: In symmetry  1, orbital p=   6 has diagonal density matrix element D(p,p) close to zero. D(p,p)=  9.160224E-32
        6   1    3    1   -36.86394476   -3.30E-05* -7.93E-04    4   7 1  1.20E-03*  0.50   1.06    QN   YES    0:00:00
 ###############################################################################
 ###############################################################################
 ###                                                                         ###
 ###                                                                         ###
 ###    WARNING: Problems in orbital optimization.                           ###
 ###                                                                         ###
 ###                                                                         ###
 ###############################################################################
 ###############################################################################
  Warning: In symmetry  1, orbital p=   6 has diagonal density matrix element D(p,p) close to zero. D(p,p)=  2.069425E-31
        7   1    3    1   -36.86394659   -1.82E-06*  7.02E-04    4   7 1  6.71E-04*  0.50   1.89    LS   YES    0:00:00
 ###############################################################################
 ###############################################################################
 ###                                                                         ###
 ###                                                                         ###
 ###    WARNING: Problems in orbital optimization.                           ###
 ###                                                                         ###
 ###                                                                         ###
 ###############################################################################
 ###############################################################################
  Warning: In symmetry  1, orbital p=   6 has diagonal density matrix element D(p,p) close to zero. D(p,p)=  3.480433E-31
        8   1    3    1   -36.86394710   -5.17E-07* -2.23E-04    3   9 1  4.80E-04*  0.50   1.00    QN   YES    0:00:00
 ###############################################################################
 ###############################################################################
 ###                                                                         ###
 ###                                                                         ###
 ###    WARNING: Problems in orbital optimization.                           ###
 ###                                                                         ###
 ###                                                                         ###
 ###############################################################################
 ###############################################################################
  Warning: In symmetry  1, orbital p=   6 has diagonal density matrix element D(p,p) close to zero. D(p,p)=  3.369504E-31
        9   1    3    1   -36.86394736   -2.55E-07* -1.36E-04    3   9 1  1.58E-04*  0.50   1.61    LS   YES    0:00:00
 ###############################################################################
 ###############################################################################
 ###                                                                         ###
 ###                                                                         ###
 ###    WARNING: Problems in orbital optimization.                           ###
 ###                                                                         ###
 ###                                                                         ###
 ###############################################################################
 ###############################################################################
  Warning: In symmetry  1, orbital p=   6 has diagonal density matrix element D(p,p) close to zero. D(p,p)=  3.302568E-31
       10   1    3    1   -36.86394740   -4.30E-08*  1.06E-04    3   6 1 -1.35E-04*  0.50   1.00    QN   YES    0:00:00
 ###############################################################################
 ###############################################################################
 ###                                                                         ###
 ###                                                                         ###
 ###    WARNING: Problems in orbital optimization.                           ###
 ###                                                                         ###
 ###                                                                         ###
 ###############################################################################
 ###############################################################################
  Warning: In symmetry  1, orbital p=   6 has diagonal density matrix element D(p,p) close to zero. D(p,p)=  3.250608E-31
       11   1    3    1   -36.86394742   -2.25E-08*  4.39E-05    3   6 1 -3.75E-05   0.50   1.39    QN   YES    0:00:00
 ###############################################################################
 ###############################################################################
 ###                                                                         ###
 ###                                                                         ###
 ###    WARNING: Problems in orbital optimization.                           ###
 ###                                                                         ###
 ###                                                                         ###
 ###############################################################################
 ###############################################################################
  Warning: In symmetry  1, orbital p=   6 has diagonal density matrix element D(p,p) close to zero. D(p,p)=  3.184852E-31
       12   1    3    1   -36.86394743   -3.35E-09   1.21E-05    4   7 1  1.70E-05   0.50   1.20    QN   YES    0:00:00
      Convergence after 12 iterations
       13   1    3    1   -36.86394743   -4.71E-10   1.21E-05    4   7 1  8.18E-06   0.50   1.20    QN   YES    0:00:00
 
      ************************************************************************************************************************
                                                      Wave function printout:
                       occupation of active orbitals, and spin coupling of open shells (u,d: Spin up or down)
      ************************************************************************************************************************
 
      Note: transformation to natural orbitals
      has been made, which may change the order of the CSFs.
 
      printout of CI-coefficients larger than  0.05 for root  1
      energy=     -36.863947
      conf/sym  11     Coeff  Weight
             1  u0   1.00000 1.00000
 
      Natural orbitals and occupation numbers for root  1
      sym 1:   1.000000   0.000000
 
      ************************************************************************************************************************
      *                                                                                                                      *
      *                                                    Final results                                                     *
      *                                                                                                                      *
      ************************************************************************************************************************
 
 
++    Wave function specifications:
      -----------------------------
 
      Number of closed shell electrons           8
      Number of electrons in active shells       1
      Max number of holes in RAS1 space          0
      Max nr of electrons in RAS3 space          0
      Number of inactive orbitals                4
      Number of active orbitals                  2
      Number of secondary orbitals               4
      Spin quantum number                      0.5
      State symmetry                             1
--
 
++    Orbital specifications:
      -----------------------
 
      Symmetry species                           1
                                                 a
      Frozen orbitals                            0
      Inactive orbitals                          4
      Active orbitals                            2
      RAS1 orbitals                              0
      RAS2 orbitals                              2
      RAS3 orbitals                              0
      Secondary orbitals                         4
      Deleted orbitals                           0
      Number of basis functions                 10
--
 
++    CI expansion specifications:
      ----------------------------
 
      Number of CSFs                             2
      Number of determinants                     2
      Number of root(s) required                 1
      CI root used                               1
      highest root included in the CI            1
      Root passed to geometry opt.               1
--
 
++    Final optimization conditions:
      ------------------------------
 
      Average CI energy                             -36.86394743
      RASSCF energy for state  1                    -36.86394743
      Super-CI energy                                -0.00000000
      RASSCF energy change                           -0.00000000
      Max change in MO coefficients               1.911E-05
      Max non-diagonal density matrix element     1.205E-05
      Maximum BLB matrix element                  8.176E-06
      (orbital pair   4,   7 in symmetry   1)
      Norm of electronic gradient            1.244E-05
--
 
 
      Final state energy(ies):
      ------------------------
 
::    RASSCF root number  1 Total energy:    -36.86394743
 
++    Molecular orbitals:
      -------------------
 
      Pseudonatural active orbitals and approximate occupation numbers
 
 
 
 
      Molecular orbitals for symmetry species 1: a  
 
 
      Orbital                 1         2         3         4         5         6         7         8         9        10
      Energy            -8.4506   -5.6278   -0.6252   -0.5137   -0.3490   -0.0000    0.3728    0.3741    0.3858    0.7891
      Occ. No.           2.0000    2.0000    2.0000    2.0000    1.0000    0.0000    0.0000    0.0000    0.0000    0.0000
 
     1 B1     1s         0.9693   -0.2569   -0.0041    0.0000    0.0000    0.0886   -0.0000   -0.0000    0.5037   -0.8940
     2 B1     2s        -0.0279   -0.0748    0.8280    0.0000   -0.0000   -0.2861   -0.0000   -0.0000    1.5099   -3.7625
     3 B1     2px       -0.0000    0.0000   -0.0000    0.7057    0.3848    0.0000   -1.4305   -0.7385   -0.0000    0.0000
     4 B1     2py       -0.0000   -0.0000   -0.0000   -0.3684    0.7370   -0.0000    0.7468   -1.4147   -0.0000   -0.0000
     5 B1     2pz        0.0143    0.0159   -0.0152   -0.0000   -0.0000    0.1913    0.0000    0.0000   -1.2953   -0.7529
     6 BE2    1s         0.1173    1.0184   -0.2114   -0.0000    0.0000    0.0016    0.0000   -0.0000    0.0288    1.4471
     7 BE2    2s         0.0259    0.0457    0.2422   -0.0000   -0.0000    0.5319    0.0000    0.0000   -1.0916    3.4806
     8 BE2    2px        0.0000    0.0000    0.0000    0.2083    0.0905    0.0000    1.5815    0.8278    0.0000   -0.0000
     9 BE2    2py        0.0000    0.0000    0.0000   -0.1087    0.1734    0.0000   -0.8256    1.5857    0.0000    0.0000
    10 BE2    2pz       -0.0281   -0.0455    0.0305    0.0000    0.0000    0.7054   -0.0000   -0.0000    1.6415   -1.2334
--
 
      Von Neumann Entropy (Root   1) =  0.50000
 

      Mulliken population analysis for root number:  1
      -----------------------------------------------
 
 
++    Molecular charges:
      ------------------
 
      Mulliken charges per centre and basis function type
      ---------------------------------------------------
 
                B1      BE2   
      1s       1.9842  2.0273
      2s       1.5388  0.4451
      2px      1.4175  0.3683
      2pz      0.0145 -0.0099
      2py      0.9876  0.2266
      Total    5.9427  3.0573
 
      N-E     -0.9427  0.9427
 
      Total electronic charge=    9.000000
 
      Total            charge=   -0.000000
--
 
 

      Expectation values of various properties for root number:  1
      -----------------------------------------------------------
 
 
++    Molecular properties:
      ---------------------
 
      Charge (e):
                      =   -0.0000
      Dipole Moment (Debye):
      Origin of the operator (Ang)=    0.0000    0.0000    0.0000
                   X=  6.5363E-15               Y= -1.1368E-13               Z=  3.3233E+00           Total=  3.3233E+00
      Quadrupole Moment (Debye*Ang):
      Origin of the operator (Ang)=    0.0000    0.0000    0.2701
                  XX= -1.5682E+01              XY=  1.3697E+00              XZ= -2.2790E-14              YY= -1.3774E+01
                  YZ= -1.1297E-13              ZZ= -9.2883E+00
      In traceless form (Debye*Ang)
                  XX= -4.1513E+00              XY=  2.0545E+00              XZ= -3.4186E-14              YY= -1.2883E+00
                  YZ= -1.6946E-13              ZZ=  5.4396E+00
--
 

      Mulliken spin population analysis for root number:  1
      ---------------------------------------------------
 
 
++    Molecular charges:
      ------------------
 
      Mulliken spin population per centre and basis function type
      ---------------------------------------------------
 
                B1      BE2   
      1s       0.0000 -0.0000
      2s       0.0000  0.0000
      2px      0.1770  0.0372
      2pz      0.0000 -0.0000
      2py      0.6495  0.1364
      Total    0.8265  0.1735
 
      Total electronic spin=    1.000000
--
 
 

      LoProp population analysis for root number:  1
      -----------------------------------------------
 
 
++    LoProp analysis:
      ----------------
 
 
 
      Input file to MOLDEN was generated!
 
 
++    Static properties:
      ------------------
 
 
      LoProp Charges per center
 

                   B1       BE2   
      Nuclear      5.0000   4.0000
      Electronic  -6.2785  -2.7215
 
      Total       -1.2785   1.2785
--
 
 
      Natural Bond Order analysis for root number:  1
 
++    Natural Bond Order analysis
      ---------------------------
      Based on LoProp computed density
      -------------------------------------------------------------------------------------
      Atom A       Atom B       Bond Order
      -------------------------------------------------------------------------------------
      NBO located      1.000 non-bonded electrons on atom B1        
      The remaining    4.087 electrons are to be considered as diffuse
--
 
--
 
 
      Input file to MOLDEN was generated!
 
 
      Input file to MOLDEN was generated!
 
      Average orbitals are written to the RASORB file
      Natural orbitals for root   1 are written to the RASORB.1 file
      Spin density orbitals for root   1 are written to the SPDORB.1 file
 
--- Stop Module: rasscf at Thu Apr 25 13:31:44 2024 /rc=_RC_ALL_IS_WELL_ ---
*** files: 0.60.LprOrb 0.60.rasscf.molden 0.60.rasscf.molden.1 0.60.LoProp.molden 0.60.RasOrb 0.60.RasOrb.1 0.60.rasscf.h5 0.60.SpdOrb.1 xmldump
    saved to directory /home/grierjones/DDCASPT2/delta_ML/BBe/0.60

*** symbolic link created: INPORB -> 0.60.RasOrb
--- Start Module: caspt2 at Thu Apr 25 13:31:44 2024 ---
 
()()()()()()()()()()()()()()()()()()()()()()()()()()()()()()()()()()()()()()()()()()()()()()()()()()

                                              &CASPT2

                                   only a single process is used
                       available to each process: 2.0 GB of memory, 1 thread?
                                             pid: 93331
()()()()()()()()()()()()()()()()()()()()()()()()()()()()()()()()()()()()()()()()()()()()()()()()()()
 
 ###############################################################################
 ###############################################################################
 ###                                                                         ###
 ###                                                                         ###
 ###    WARNING: User changed nr of frozen orbitals.                         ###
 ###                                                                         ###
 ###                                                                         ###
 ###############################################################################
 ###############################################################################
 
++    Wave function specifications:
      -----------------------------
 
      Number of closed shell electrons           8
      Number of electrons in active shells       1
      Max number of holes in RAS1 space          0
      Max number of electrons in RAS3 space      0
      Number of inactive orbitals                4
      Number of active orbitals                  2
      Number of secondary orbitals               4
      Spin quantum number                      0.5
      State symmetry                             1
      Number of CSFs                             2
      Number of CASSCF root(s) available         1
      CASPT2 state passed to geometry opt.       1
      A file JOBMIX will be created
      This is a CASSCF or RASSCF reference function
--
 
++    Orbital specifications:
      -----------------------
 
      Symmetry species                           1
                                                 a
      Frozen orbitals                            0
      Inactive orbitals                          4
      Active orbitals                            2
      Secondary orbitals                         4
      Deleted orbitals                           0
      Number of basis functions                 10
--
 
++    CASPT2 specifications:
      ----------------------
 
      Type of calculation                        SS-CASPT2
      Fock operator                              state-specific
      IPEA shift                                 0.25
      Real shift                                 0.00
      Imaginary shift                            0.00
      The input orbitals will be transformed to quasi-canonical
--
 
--------------------------------------------------------------------------------
 Estimated memory requirements:
  POLY3 :                   250056
  RHS:                      250492
  SIGMA :                   250512
  PRPCTL:                        0
 Available workspace:    230392719
 
++ CASPT2 computation for group   1
 
********************************************************************************
 Multi-State initialization phase begins for group   1
--------------------------------------------------------------------------------
********************************************************************************
 Compute H0 matrices for state    1
--------------------------------------------------------------------------------
--------------------------------------------------------------------------------
 H0 matrices have been computed.
 
********************************************************************************
  CASPT2 EQUATION SOLUTION
--------------------------------------------------------------------------------
 
  Total nr of CASPT2 parameters:
   Before reduction:         656
   After  reduction:         438
 
 Variance of |WF0>:       0.0736984470
 
 The contributions to the second order correlation energy in atomic units.
-----------------------------------------------------------------------------------------------------------------------------
  IT.      VJTU        VJTI        ATVX        AIVX        VJAI        BVAT        BJAT        BJAI        TOTAL       RNORM  
-----------------------------------------------------------------------------------------------------------------------------
   1    -0.000330   -0.004260   -0.000000   -0.004258   -0.008847    0.000000   -0.004057   -0.010240   -0.031992    0.000097
   2    -0.000330   -0.004261   -0.000000   -0.004262   -0.008847    0.000000   -0.004059   -0.010240   -0.031999    0.000001
-----------------------------------------------------------------------------------------------------------------------------
 
  FINAL CASPT2 RESULT:
 
      Reference energy:         -36.8639474273
      E2 (Non-variational):      -0.0319989145
      E2 (Variational):          -0.0319989130
      Total energy:             -36.8959463403
      Residual norm:              0.0000000360
      Reference weight:           0.98101
 
      Contributions to the CASPT2 correlation energy
      Active & Virtual Only:         -0.0000000000
      One Inactive Excited:          -0.0086511589
      Two Inactive Excited:          -0.0233477556
 
 
++ Denominators, etc.
--------------------------------------------------------------------------------------------------------------
 Report on small energy denominators, large coefficients, and large energy contributions.
CASE  SYMM ACTIVE-MIX  NON-ACTIVE INDICES          DENOMINATOR     RHS VALUE       COEFFICIENT     CONTRIBUTION
VJTIP    1  Mu1.0002  In1.003 In1.003               1.16017214      0.06728082     -0.05783553     -0.00389122
AIVX     1  Mu1.0002  In1.003 Se1.008               1.38651148      0.04259467     -0.03102746     -0.00132160
AIVX     1  Mu1.0004  In1.003 Se1.008               1.55317815      0.05737390     -0.03656585     -0.00209793
VJAIP    1  Mu1.0002  Se1.009 In1.003 In1.003       1.59108748     -0.04165749      0.02584565     -0.00107666
VJAIP    1  Mu1.0002  Se1.007 In1.004 In1.003       1.46654402      0.08222012     -0.05597417     -0.00460220
VJAIM    1  Mu1.0002  Se1.007 In1.004 In1.003       1.46654402      0.06075594     -0.04135656     -0.00251266
BJATP    1  Mu1.0001  In1.004 Se1.008 Se1.007       1.73455002      0.04636483     -0.02666646     -0.00123639
BJATM    1  Mu1.0001  In1.004 Se1.008 Se1.007       1.73455002      0.05870533     -0.03392966     -0.00199185
BJAIP    1  Se1.009 In1.003 Se1.009 In1.003         2.02200282      0.05245834     -0.02585715     -0.00135642
BJAIP    1  Se1.007 In1.004 Se1.007 In1.004         1.77291589      0.07509345     -0.04235589     -0.00318065
--
 
   (Skipping property calculation,
    use PROP keyword to activate)
--
 
  Total CASPT2 energies:
::    CASPT2 Root  1     Total energy:    -36.89594634
 
  A NEW JOBIPH FILE NAMED 'JOBMIX' IS PREPARED.
********************************************************************************
--- Stop Module: caspt2 at Thu Apr 25 13:31:44 2024 /rc=_RC_ALL_IS_WELL_ ---
*** files: xmldump
    saved to directory /home/grierjones/DDCASPT2/delta_ML/BBe/0.60

.##################.
.# Happy landing! #.
.##################.

    Timing: Wall=2.29 User=1.63 System=0.26
************************************
*** WorkDir at /tmp/0.60 removed ***
************************************
