[Molden Format]
[N_Atoms]
                     2
[Atoms] (AU)
B1          1      5           0.00000000      0.00000000      0.00000000
BE2         2      4           0.00000000      0.00000000      1.13383567
[Charge] (Mulliken)
 -0.949923486058601     
  0.949923486058594     
[GTO] (AU)
   1
   s  14
  3.336021700E+04  1.039699991E-04
  4.972095200E+03  5.254399956E-04
  1.125641700E+03  2.509059979E-03
  3.164913600E+02  1.031887991E-02
  1.020072600E+02  3.636632969E-02
  3.629587300E+01  1.064607991E-01
  1.397141000E+01  2.403999880E-01
  5.741156000E+00  3.748581168E-01
  2.494268000E+00  3.100066974E-01
  1.114202000E+00  7.922455933E-02
  4.215490000E-01 -4.947589958E-03
  1.696330000E-01 -7.737119935E-03
  6.853500000E-02 -1.501079987E-03
  2.398700000E-02 -1.333299989E-04
   s  14
  3.336021700E+04 -2.030000008E-05
  4.972095200E+03 -1.025700004E-04
  1.125641700E+03 -4.911300020E-04
  3.164913600E+02 -2.026570008E-03
  1.020072600E+02 -7.261010030E-03
  3.629587300E+01 -2.197722009E-02
  1.397141000E+01 -5.408428022E-02
  5.741156000E+00 -1.022402604E-01
  2.494268000E+00 -1.423595206E-01
  1.114202000E+00 -4.658690019E-02
  4.215490000E-01  3.799402916E-01
  1.696330000E-01  5.890463624E-01
  6.853500000E-02  1.749075107E-01
  2.398700000E-02 -1.142030005E-03
   p   9
  5.500000000E+01  1.229800005E-03
  1.336610100E+01  8.827380035E-03
  4.135394000E+00  3.843340015E-02
  1.481256000E+00  1.150031805E-01
  6.021360000E-01  2.733674011E-01
  2.556360000E-01  4.061972116E-01
  1.111510000E-01  3.014967912E-01
  4.764800000E-02  7.684809030E-02
  1.667700000E-02 -8.170000032E-06
 
   2
   s  14
  2.262859900E+04  8.443999941E-05
  3.372318100E+03  4.601499968E-04
  7.603504000E+02  2.285389984E-03
  2.117404800E+02  9.648129932E-03
  6.722346800E+01  3.494469975E-02
  2.337217700E+01  1.061099893E-01
  8.721373000E+00  2.458240383E-01
  3.468091000E+00  3.862428773E-01
  1.452144000E+00  3.105526078E-01
  6.086150000E-01  6.415933955E-02
  2.576860000E-01 -2.265049984E-03
  1.041760000E-01 -5.217499963E-04
  4.242700000E-02 -8.757499938E-04
  1.484900000E-02  1.242199991E-04
   s  14
  2.262859900E+04 -1.586999994E-05
  3.372318100E+03 -8.656999968E-05
  7.603504000E+02 -4.302199984E-04
  2.117404800E+02 -1.825079993E-03
  6.722346800E+01 -6.682749976E-03
  2.337217700E+01 -2.095119992E-02
  8.721373000E+00 -5.200308981E-02
  3.468091000E+00 -9.849176964E-02
  1.452144000E+00 -1.355800695E-01
  6.086150000E-01 -6.429875976E-02
  2.576860000E-01  3.125414989E-01
  1.041760000E-01  6.270468577E-01
  4.242700000E-02  2.110231492E-01
  1.484900000E-02 -4.104669985E-03
   p   9
  3.371018400E+01  1.069960000E-03
  8.057649500E+00  6.828550001E-03
  2.836471400E+00  2.119065000E-02
  1.099965700E+00  5.843696001E-02
  4.433964000E-01  2.020920800E-01
  1.822264000E-01  4.582953101E-01
  7.572410000E-02  3.691239601E-01
  3.168540000E-02  6.611471001E-02
  1.108990000E-02  1.405160000E-03
 
[MO]
Sym=     1a  
Ene=    -8.4598
Spin= Alpha
Occup=    1.00000
   1         0.96950509
   2        -0.02574588
   3         0.00000000
   4        -0.00000000
   5         0.01495948
   6         0.11653148
   7         0.02477772
   8        -0.00000000
   9         0.00000000
  10        -0.02826539
Sym=     1a  
Ene=    -8.4421
Spin= Beta
Occup=    1.00000
   1         0.96918536
   2        -0.02998920
   3         0.00000000
   4         0.00000000
   5         0.01368769
   6         0.11789356
   7         0.02686383
   8        -0.00000000
   9        -0.00000000
  10        -0.02800479
Sym=     2a  
Ene=    -5.6297
Spin= Alpha
Occup=    1.00000
   1        -0.25696875
   2        -0.07317852
   3         0.00000000
   4        -0.00000000
   5         0.01699029
   6         1.01749807
   7         0.04502742
   8        -0.00000000
   9         0.00000000
  10        -0.04590864
Sym=     2a  
Ene=    -5.6246
Spin= Beta
Occup=    1.00000
   1        -0.25686292
   2        -0.07643728
   3         0.00000000
   4        -0.00000000
   5         0.01483786
   6         1.01929038
   7         0.04645748
   8        -0.00000000
   9         0.00000000
  10        -0.04522056
Sym=     3a  
Ene=    -0.6763
Spin= Alpha
Occup=    1.00000
   1        -0.01041863
   2         0.83999229
   3         0.00000000
   4         0.00000000
   5         0.00344435
   6        -0.22279848
   7         0.21475085
   8         0.00000000
   9         0.00000000
  10        -0.01531808
Sym=     3a  
Ene=    -0.5753
Spin= Beta
Occup=    1.00000
   1         0.00416665
   2         0.81324076
   3         0.00000000
   4         0.00000000
   5        -0.03485296
   6        -0.19902613
   7         0.27363216
   8         0.00000000
   9         0.00000000
  10         0.08803088
Sym=     4a  
Ene=    -0.5756
Spin= Alpha
Occup=    1.00000
   1         0.00000000
   2         0.00000000
   3         0.74773068
   4        -0.39035239
   5        -0.00000000
   6        -0.00000000
   7        -0.00000000
   8         0.16141109
   9        -0.08426457
  10         0.00000000
Sym=     4a  
Ene=    -0.4985
Spin= Beta
Occup=    1.00000
   1        -0.00000000
   2        -0.00000000
   3         0.35861411
   4         0.68693513
   5        -0.00000000
   6         0.00000000
   7         0.00000000
   8         0.11953340
   9         0.22896950
  10        -0.00000000
Sym=     5a  
Ene=    -0.5293
Spin= Alpha
Occup=    1.00000
   1        -0.00000000
   2        -0.00000000
   3         0.37876914
   4         0.72554265
   5        -0.00000000
   6         0.00000000
   7         0.00000000
   8         0.09724600
   9         0.18627738
  10        -0.00000000
Sym=     5a  
Ene=    -0.1343
Spin= Beta
Occup=    0.00000
   1         0.00000000
   2         0.00000000
   3         0.53203289
   4        -0.27774748
   5        -0.00000000
   6        -0.00000000
   7        -0.00000000
   8         0.39339901
   9        -0.20537374
  10         0.00000000
Sym=     6a  
Ene=    -0.0488
Spin= Alpha
Occup=    0.00000
   1         0.08852049
   2        -0.25351437
   3         0.00000000
   4        -0.00000000
   5         0.19113114
   6        -0.00685327
   7         0.54113670
   8         0.00000000
   9         0.00000000
  10         0.70558383
Sym=     6a  
Ene=    -0.0396
Spin= Beta
Occup=    0.00000
   1         0.10770645
   2        -0.25747171
   3         0.00000000
   4        -0.00000000
   5         0.17759926
   6        -0.00395645
   7         0.45883931
   8         0.00000000
   9         0.00000000
  10         0.74625305
Sym=     7a  
Ene=     0.3375
Spin= Alpha
Occup=    0.00000
   1        -0.00000000
   2        -0.00000000
   3        -1.40904541
   4         0.73559138
   5         0.00000000
   6         0.00000000
   7         0.00000000
   8         1.58696458
   9        -0.82847399
  10        -0.00000000
Sym=     7a  
Ene=     0.3781
Spin= Beta
Occup=    0.00000
   1        -0.00000000
   2        -0.00000000
   3        -0.75157541
   4        -1.43966324
   5         0.00000000
   6         0.00000000
   7         0.00000000
   8         0.82412465
   9         1.57863330
  10        -0.00000000
Sym=     8a  
Ene=     0.3679
Spin= Alpha
Occup=    0.00000
   1        -0.00000000
   2        -0.00000000
   3        -0.74162228
   4        -1.42059776
   5         0.00000000
   6        -0.00000000
   7         0.00000000
   8         0.82705071
   9         1.58423826
  10        -0.00000000
Sym=     8a  
Ene=     0.4003
Spin= Beta
Occup=    0.00000
   1         0.51254432
   2         1.54543230
   3        -0.00000000
   4        -0.00000000
   5        -1.28909611
   6         0.01445312
   7        -1.14735251
   8         0.00000000
   9         0.00000000
  10         1.64193138
Sym=     9a  
Ene=     0.3718
Spin= Alpha
Occup=    0.00000
   1         0.49363642
   2         1.48090171
   3        -0.00000000
   4        -0.00000000
   5        -1.30381284
   6         0.04222203
   7        -1.04853820
   8         0.00000000
   9         0.00000000
  10         1.62762598
Sym=     9a  
Ene=     0.4213
Spin= Beta
Occup=    0.00000
   1         0.00000000
   2         0.00000000
   3        -1.50381220
   4         0.78506433
   5        -0.00000000
   6         0.00000000
   7        -0.00000000
   8         1.54588077
   9        -0.80702621
  10         0.00000000
Sym=    10a  
Ene=     0.7774
Spin= Alpha
Occup=    0.00000
   1        -0.89940686
   2        -3.77375080
   3         0.00000000
   4        -0.00000000
   5        -0.73828460
   6         1.44572335
   7         3.49426470
   8        -0.00000000
   9        -0.00000000
  10        -1.25187255
Sym=    10a  
Ene=     0.8013
Spin= Beta
Occup=    0.00000
   1        -0.88707867
   2        -3.75331644
   3         0.00000000
   4        -0.00000000
   5        -0.76623429
   6         1.44837116
   7         3.47076368
   8        -0.00000000
   9        -0.00000000
  10        -1.20579022
