[Molden Format]
[N_Atoms]
                     2
[Atoms] (AU)
C1          1      6           0.00000000      0.00000000      0.00000000
N2          2      7           0.00000000      0.00000000      4.91328792
[Charge] (Mulliken)
  6.809240405946948E-002
 -6.809240405949879E-002
[GTO] (AU)
   1
   s  14
  5.055750100E+04  1.128874000E-04
  7.524785600E+03  5.295373000E-04
  1.694327600E+03  2.450038300E-03
  4.728227900E+02  1.005398470E-02
  1.517107500E+02  3.545398060E-02
  5.391874600E+01  1.044071086E-01
  2.065931100E+01  2.412894918E-01
  8.383976000E+00  3.834225483E-01
  3.577015000E+00  3.078514393E-01
  1.547118000E+00  6.872442990E-02
  6.130130000E-01  2.224445000E-04
  2.460680000E-01  1.976748900E-03
  9.908700000E-02  2.057859400E-03
  3.468000000E-02  4.182020000E-04
   s  14
  5.055750100E+04 -2.507420000E-05
  7.524785600E+03 -1.175945000E-04
  1.694327600E+03 -5.456275000E-04
  4.728227900E+02 -2.245077100E-03
  1.517107500E+02 -8.043471800E-03
  5.391874600E+01 -2.442588710E-02
  2.065931100E+01 -6.136791180E-02
  8.383976000E+00 -1.177767835E-01
  3.577015000E+00 -1.550487783E-01
  1.547118000E+00 -1.933316860E-02
  6.130130000E-01  3.996930678E-01
  2.460680000E-01  5.589420949E-01
  9.908700000E-02  1.711195023E-01
  3.468000000E-02  7.456244600E-03
   p   9
  8.333315500E+01  1.344656000E-03
  1.955761100E+01  1.023555500E-02
  6.080365000E+00  4.520067100E-02
  2.179317000E+00  1.410756198E-01
  8.651500000E-01  3.047388085E-01
  3.619440000E-01  3.995281011E-01
  1.547400000E-01  2.719163432E-01
  6.542900000E-02  5.857669330E-02
  2.290000000E-02 -1.263813000E-04
 
   2
   s  14
  7.476171500E+04  1.182599996E-04
  1.112365400E+04  5.172899983E-04
  2.512685700E+03  2.266659992E-03
  7.037772900E+02  9.145289970E-03
  2.254787900E+02  3.239342989E-02
  7.961581000E+01  9.770792967E-02
  3.023728300E+01  2.317036792E-01
  1.226362200E+01  3.768898887E-01
  5.265086000E+00  3.177420689E-01
  2.333471000E+00  8.211308973E-02
  9.018560000E-01  3.312089989E-03
  3.583360000E-01  3.720819988E-03
  1.410930000E-01  3.165419989E-03
  4.938300000E-02  4.595799985E-04
   s  14
  7.476171500E+04 -2.707000010E-05
  1.112365400E+04 -1.183700004E-04
  2.512685700E+03 -5.203800020E-04
  7.037772900E+02 -2.102930008E-03
  2.254787900E+02 -7.568200028E-03
  7.961581000E+01 -2.346767009E-02
  3.023728300E+01 -6.042901023E-02
  1.226362200E+01 -1.170549104E-01
  5.265086000E+00 -1.555321506E-01
  2.333471000E+00 -2.468935009E-02
  9.018560000E-01  3.625054514E-01
  3.583360000E-01  5.550845021E-01
  1.410930000E-01  2.148376908E-01
  4.938300000E-02  8.983850034E-03
   p   9
  1.266665700E+02  1.233630000E-03
  2.983738900E+01  9.493409996E-03
  9.394038000E+00  4.293961998E-02
  3.405104000E+00  1.362925399E-01
  1.350000000E+00  2.921362499E-01
  5.576960000E-01  3.887887598E-01
  2.324490000E-01  2.946801399E-01
  9.426400000E-02  8.012875997E-02
  3.299200000E-02  5.405199998E-04
 
[MO]
Sym=     1a  
Ene=   -15.4900
Spin= Alpha
Occup=    2.00000
   1        -0.00035007
   2        -0.00023025
   3        -0.00000805
   4        -0.00001894
   5         0.00550185
   6         0.99993181
   7        -0.00531530
   8        -0.00007641
   9        -0.00018034
  10        -0.00100908
Sym=     2a  
Ene=   -11.2860
Spin= Alpha
Occup=    2.00000
   1         0.99987687
   2        -0.00236352
   3        -0.00001974
   4        -0.00004643
   5         0.01447086
   6         0.00011010
   7         0.00036141
   8        -0.00018680
   9        -0.00044087
  10        -0.00180844
Sym=     3a  
Ene=    -0.8646
Spin= Alpha
Occup=    2.00000
   1        -0.00144505
   2         0.09537998
   3         0.00021044
   4         0.00049504
   5        -0.12585372
   6         0.00615567
   7         0.99401727
   8         0.00231611
   9         0.00546616
  10         0.02758084
Sym=     4a  
Ene=    -0.7042
Spin= Alpha
Occup=    2.00000
   1        -0.00266558
   2        -0.99351051
   3        -0.00001869
   4        -0.00004396
   5         0.01484117
   6         0.00304927
   7         0.14662863
   8        -0.00025396
   9        -0.00059948
  10         0.03244428
Sym=     5a  
Ene=    -0.3742
Spin= Alpha
Occup=    2.00000
   1        -0.00002576
   2        -0.00093909
   3         0.01406491
   4         0.03319580
   5         0.03218273
   6        -0.00023711
   7        -0.00465711
   8         0.38918198
   9         0.91853143
  10        -0.00565112
Sym=     6a  
Ene=    -0.3634
Spin= Alpha
Occup=    2.00000
   1         0.01557224
   2        -0.01280626
   3         0.00133350
   4         0.00313605
   5        -0.97083808
   6         0.01231057
   7        -0.03476229
   8         0.01264851
   9         0.02985205
  10         0.13338486
Sym=     7a  
Ene=    -0.0000
Spin= Alpha
Occup=    1.00000
   1         0.00000001
   2         0.00000021
   3        -0.01968360
   4         0.00833995
   5         0.00000008
   6        -0.00000000
   7         0.00000003
   8        -0.91988474
   9         0.38975539
  10         0.00000203
Sym=     8a  
Ene=     0.1070
Spin= Alpha
Occup=    0.00000
   1         0.00000795
   2         0.00017101
   3        -0.39009671
   4        -0.92068359
   5        -0.00189823
   6         0.00001339
   7         0.00018596
   8         0.02729842
   9         0.06442823
  10         0.00152774
Sym=     9a  
Ene=     0.1071
Spin= Alpha
Occup=    0.00000
   1         0.00000002
   2         0.00000036
   3        -0.92107775
   4         0.39026373
   5        -0.00000369
   6         0.00000003
   7         0.00000036
   8         0.05084888
   9        -0.02154488
  10         0.00000307
Sym=    10a  
Ene=     0.1843
Spin= Alpha
Occup=    0.00000
   1        -0.00546056
   2        -0.11852008
   3        -0.00049477
   4        -0.00116127
   5        -0.25297037
   6         0.00205862
   7         0.04394159
   8        -0.00041577
   9        -0.00097659
  10        -1.00090093
