[Molden Format]
[N_Atoms]
                     2
[Atoms] (AU)
C1          1      6           0.00000000      0.00000000      0.00000000
N2          2      7           0.00000000      0.00000000      4.91328792
[Charge] (Mulliken)
  8.300352933123811E-003
 -8.300352933183319E-003
[GTO] (AU)
   1
   s  14
  5.055750100E+04  1.128874000E-04
  7.524785600E+03  5.295373000E-04
  1.694327600E+03  2.450038300E-03
  4.728227900E+02  1.005398470E-02
  1.517107500E+02  3.545398060E-02
  5.391874600E+01  1.044071086E-01
  2.065931100E+01  2.412894918E-01
  8.383976000E+00  3.834225483E-01
  3.577015000E+00  3.078514393E-01
  1.547118000E+00  6.872442990E-02
  6.130130000E-01  2.224445000E-04
  2.460680000E-01  1.976748900E-03
  9.908700000E-02  2.057859400E-03
  3.468000000E-02  4.182020000E-04
   s  14
  5.055750100E+04 -2.507420000E-05
  7.524785600E+03 -1.175945000E-04
  1.694327600E+03 -5.456275000E-04
  4.728227900E+02 -2.245077100E-03
  1.517107500E+02 -8.043471800E-03
  5.391874600E+01 -2.442588710E-02
  2.065931100E+01 -6.136791180E-02
  8.383976000E+00 -1.177767835E-01
  3.577015000E+00 -1.550487783E-01
  1.547118000E+00 -1.933316860E-02
  6.130130000E-01  3.996930678E-01
  2.460680000E-01  5.589420949E-01
  9.908700000E-02  1.711195023E-01
  3.468000000E-02  7.456244600E-03
   p   9
  8.333315500E+01  1.344656000E-03
  1.955761100E+01  1.023555500E-02
  6.080365000E+00  4.520067100E-02
  2.179317000E+00  1.410756198E-01
  8.651500000E-01  3.047388085E-01
  3.619440000E-01  3.995281011E-01
  1.547400000E-01  2.719163432E-01
  6.542900000E-02  5.857669330E-02
  2.290000000E-02 -1.263813000E-04
 
   2
   s  14
  7.476171500E+04  1.182599996E-04
  1.112365400E+04  5.172899983E-04
  2.512685700E+03  2.266659992E-03
  7.037772900E+02  9.145289970E-03
  2.254787900E+02  3.239342989E-02
  7.961581000E+01  9.770792967E-02
  3.023728300E+01  2.317036792E-01
  1.226362200E+01  3.768898887E-01
  5.265086000E+00  3.177420689E-01
  2.333471000E+00  8.211308973E-02
  9.018560000E-01  3.312089989E-03
  3.583360000E-01  3.720819988E-03
  1.410930000E-01  3.165419989E-03
  4.938300000E-02  4.595799985E-04
   s  14
  7.476171500E+04 -2.707000010E-05
  1.112365400E+04 -1.183700004E-04
  2.512685700E+03 -5.203800020E-04
  7.037772900E+02 -2.102930008E-03
  2.254787900E+02 -7.568200028E-03
  7.961581000E+01 -2.346767009E-02
  3.023728300E+01 -6.042901023E-02
  1.226362200E+01 -1.170549104E-01
  5.265086000E+00 -1.555321506E-01
  2.333471000E+00 -2.468935009E-02
  9.018560000E-01  3.625054514E-01
  3.583360000E-01  5.550845021E-01
  1.410930000E-01  2.148376908E-01
  4.938300000E-02  8.983850034E-03
   p   9
  1.266665700E+02  1.233630000E-03
  2.983738900E+01  9.493409996E-03
  9.394038000E+00  4.293961998E-02
  3.405104000E+00  1.362925399E-01
  1.350000000E+00  2.921362499E-01
  5.576960000E-01  3.887887598E-01
  2.324490000E-01  2.946801399E-01
  9.426400000E-02  8.012875997E-02
  3.299200000E-02  5.405199998E-04
 
[MO]
Sym=     1a  
Ene=   -15.5870
Spin= Alpha
Occup=    1.00000
   1        -0.00003339
   2        -0.00043697
   3         0.00000000
   4        -0.00000000
   5        -0.00051410
   6         1.00000220
   7        -0.00225065
   8        -0.00000000
   9        -0.00000000
  10        -0.00018852
Sym=     1a  
Ene=   -15.4940
Spin= Beta
Occup=    1.00000
   1        -0.00001882
   2        -0.00018551
   3         0.00000000
   4        -0.00000000
   5        -0.00016096
   6         0.99996142
   7        -0.00895179
   8        -0.00000000
   9         0.00000000
  10        -0.00009929
Sym=     2a  
Ene=   -11.2140
Spin= Alpha
Occup=    1.00000
   1         0.99998897
   2        -0.00489600
   3        -0.00000000
   4         0.00000000
   5         0.00010826
   6        -0.00002060
   7        -0.00020359
   8         0.00000000
   9        -0.00000000
  10         0.00012020
Sym=     2a  
Ene=   -11.2610
Spin= Beta
Occup=    1.00000
   1         1.00000238
   2         0.00009304
   3        -0.00000000
   4         0.00000000
   5         0.00016278
   6        -0.00003563
   7        -0.00038717
   8         0.00000000
   9         0.00000000
  10         0.00030757
Sym=     3a  
Ene=    -1.1183
Spin= Alpha
Occup=    1.00000
   1        -0.00167557
   2         0.00993209
   3        -0.00000000
   4         0.00000000
   5         0.00171366
   6         0.00228603
   7         0.99918292
   8        -0.00000000
   9        -0.00000000
  10        -0.01062120
Sym=     3a  
Ene=    -0.7991
Spin= Beta
Occup=    1.00000
   1        -0.00047261
   2         0.96810106
   3         0.00000000
   4        -0.00000000
   5         0.02270867
   6        -0.00059066
   7         0.19551219
   8        -0.00000000
   9        -0.00000000
  10        -0.01572643
Sym=     4a  
Ene=    -0.5805
Spin= Alpha
Occup=    1.00000
   1        -0.00117905
   2        -0.78212945
   3        -0.00000000
   4         0.00000000
   5        -0.01495569
   6         0.00215402
   7         0.05835232
   8         0.00000000
   9        -0.00000000
  10         0.56001372
Sym=     4a  
Ene=    -0.7007
Spin= Beta
Occup=    1.00000
   1        -0.00163597
   2        -0.24936159
   3        -0.00000000
   4        -0.00000000
   5         0.08942837
   6         0.00868572
   7         0.96866512
   8         0.00000000
   9        -0.00000000
  10         0.01306448
Sym=     5a  
Ene=    -0.5382
Spin= Alpha
Occup=    1.00000
   1        -0.00000000
   2        -0.00000000
   3         0.00313802
   4         0.01067306
   5        -0.00000000
   6         0.00000000
   7         0.00000000
   8         0.28195039
   9         0.95897208
  10         0.00000000
Sym=     5a  
Ene=    -0.4093
Spin= Beta
Occup=    1.00000
   1        -0.00000000
   2        -0.00000000
   3         0.95875494
   4        -0.28188655
   5         0.00000000
   6        -0.00000000
   7        -0.00000000
   8         0.01525906
   9        -0.00448636
  10        -0.00000000
Sym=     6a  
Ene=    -0.5375
Spin= Alpha
Occup=    1.00000
   1         0.00000000
   2         0.00000000
   3         0.00865910
   4        -0.00254589
   5        -0.00000000
   6        -0.00000000
   7        -0.00000000
   8         0.95906051
   9        -0.28197639
  10         0.00000000
Sym=     6a  
Ene=    -0.4030
Spin= Beta
Occup=    1.00000
   1        -0.00013816
   2        -0.00407267
   3        -0.00000000
   4         0.00000000
   5         0.98946948
   6        -0.00805902
   7        -0.18600841
   8        -0.00000000
   9        -0.00000000
  10        -0.07308736
Sym=     7a  
Ene=    -0.5113
Spin= Alpha
Occup=    1.00000
   1         0.00722386
   2         0.63061961
   3         0.00000000
   4         0.00000000
   5        -0.04051053
   6        -0.00121728
   7        -0.02690000
   8        -0.00000000
   9         0.00000000
  10         0.82579022
Sym=     7a  
Ene=     0.1045
Spin= Beta
Occup=    0.00000
   1        -0.00000000
   2        -0.00000000
   3         0.27986815
   4         0.95188995
   5         0.00000000
   6        -0.00000000
   7        -0.00000000
   8         0.02698688
   9         0.09178800
  10        -0.00000000
Sym=     8a  
Ene=     0.1676
Spin= Alpha
Occup=    0.00000
   1         0.00000000
   2        -0.00000000
   3         0.28221832
   4         0.95988336
   5         0.00000000
   6        -0.00000000
   7        -0.00000000
   8        -0.01268873
   9        -0.04315702
  10         0.00000000
Sym=     8a  
Ene=     0.2634
Spin= Beta
Occup=    0.00000
   1         0.00000000
   2         0.00000000
   3        -0.04773829
   4         0.01403569
   5         0.00000000
   6        -0.00000000
   7        -0.00000000
   8         0.95982141
   9        -0.28220010
  10         0.00000000
Sym=     9a  
Ene=     0.2298
Spin= Alpha
Occup=    0.00000
   1         0.00000000
   2        -0.00000000
   3         0.95990364
   4        -0.28222428
   5         0.00000000
   6        -0.00000000
   7        -0.00000000
   8        -0.04114490
   9         0.01209714
  10         0.00000000
Sym=     9a  
Ene=     0.2647
Spin= Beta
Occup=    0.00000
   1         0.00000000
   2         0.00000000
   3        -0.03648074
   4        -0.12407861
   5         0.00000000
   6        -0.00000000
   7        -0.00000000
   8         0.28094258
   9         0.95554431
  10         0.00000000
Sym=    10a  
Ene=     0.2420
Spin= Alpha
Occup=    0.00000
   1         0.00103019
   2         0.02911442
   3        -0.00000000
   4         0.00000000
   5         1.01093572
   6        -0.00713527
   7        -0.10128900
   8         0.00000000
   9        -0.00000000
  10         0.16058759
Sym=    10a  
Ene=     0.2757
Spin= Beta
Occup=    0.00000
   1         0.00526369
   2         0.10469262
   3         0.00000000
   4         0.00000000
   5         0.19051507
   6        -0.00175633
   7        -0.03928267
   8        -0.00000000
   9        -0.00000000
  10         1.00781259
