   This run of MOLCAS is using the pymolcas driver

                             OPE
                             OPE          NMOL  CASOP  ENMOLC A   SO
                 OPE        NMOLC        AS  OP EN  MO LC     AS  OP
                OPENM       OL CA        SO  PE NM  OL CA     SOP EN
                OP EN      MO   LC       AS  OP ENMOL  CASO   PENMOL
                OP  EN     MO   LC       AS  OP EN     MO     LC ASO
               OP   E  NMOL  C  AS       OP  EN MO     LC     AS  OP
               OP  E   NMO   LC AS        OPEN  MO     LCASOP EN   M
               O  PEN   MO  LCA  SO
            OPE   NMO   L   CAS    OP
        OPENMOL  CASOP     ENMOL   CASOPE
     OPENMOLCA   SOPENMOLCASOPEN   MOLCASOPE
    OPENMOLCAS   OP           EN   MOL    CAS
    OPENMOLCAS       OP  ENM        O     LCA
    OPENMOLCAS    OPEN  MOLCASO     P  E  NMO
    OPENMOLCAS     OP               E  N  MOL
    OPENMOLCA   SO           PENM   O  L  CAS    OPEN    MO    LCAS
    OPENMOLCA   SOP           ENM   O  L  CAS   OP  EN  MOLC  AS   O
    OPENMOLCA   SOPE           NM      O  LCA   S      OP  EN MO
    OPENMOLC                AS         O  PEN   M      OL  CA  SOPE
    OPENMO        LCASOPE  NMOL        C  ASO   P      ENMOLC     AS
    OPE     NMO      LCA  SO     P     E   NM   OL  CA SO  PE N   MO
          OPENMOLCA            SOPE   NMO        LCAS  O    P  ENMO
     OPENMOLCASOPENMOLCASOPENMOLCASOPENMOLCA
        OPENMOLCASOPENMOLCASOPENMOLCASOPE
            OPENMOLCASOPENMOLCASOPENM
               OPENMOLCASOPENMOLCA        version: 1d1d16313-dirty
                   OPENMOLCASO
                       OPE                tag:

 OpenMolcas is free software; you can redistribute it and/or modify it
 under the terms of the GNU Lesser General Public License version 2.1.
 OpenMolcas is distributed in the hope that it will be useful, but it
 is provided "as is" and without any express or implied warranties.
 For more details see the full text of the license in the file
 LICENSE or in <http://www.gnu.org/licenses/>.

                 Copyright (C) The OpenMolcas Authors
           For the author list and the recommended citation,
                   consult the file CONTRIBUTORS.md

           *************************************************
           * pymolcas version py2.28                       *
           *   build c4a6d18ded8cb6cad61d2372a9abd97c      *
           *   (after the EMIL interpreter by V. Veryazov) *
           *************************************************

configuration info
------------------
C Compiler ID: IntelLLVM
C flags: -std=gnu99
Fortran Compiler ID: IntelLLVM
Fortran flags: -standard-semantics -fltconsistency -fpp -i8 -heap-arrays
Definitions: _MOLCAS_;_I8_;_LINUX_
Parallel: OFF (GA=OFF)


   --------------------------------------------------------------------------------
  |
  |              Project: ozone_121.75
  |       Submitted from: /home/grierjones/DDCASPT2/ozone/ANO-RCC-VDZP/ozone_121.75
  |         Scratch area: /tmp/ozone_121.75
  |      Save outputs to: /home/grierjones/DDCASPT2/ozone/ANO-RCC-VDZP/ozone_121.75
  |               Molcas: /home/grierjones/Test/build
  |
  | Scratch area is empty
  |
  |       MOLCAS_DRIVER = /usr/local/pymolcas
  | MOLCAS_KEEP_WORKDIR = NO
  |  MOLCAS_NEW_WORKDIR = YES
  |       MOLCAS_NPROCS = 1
  |        MOLCAS_PRINT = NORMAL
  |       MOLCAS_SOURCE = /home/grierjones/Test
  |    MOLCAS_STRUCTURE = 0
  |
   --------------------------------------------------------------------------------

++ ---------   Input file   ---------

&GATEWAY
coord=ozone_121.75.xyz
Basis = ANO-RCC-VDZP
Group = nosymm
Expert
End of Input

&SEWARD
End of Input

&SCF

>>> COPY $WorkDir/ozone_121.75.scf.h5 $CurrDir/

&RASSCF
Title= RASSCF
FileOrb
/home/grierjones/DDCASPT2/ozone/ANO-RCC-VDZP/ozone_121.50/ozone_121.50.RasOrb
NACTEL
4 0 0
Inactive
10
RAS2
3
Symmetry
1
Spin
1
orblisting
all
ITERation
300 200

>>> COPY $WorkDir/ozone_121.75.rasscf.h5 $CurrDir/

>>> COPY $WorkDir/GMJ_Fock_MO.csv $CurrDir/ozone_121.75.GMJ_Fock_MO.csv

>>> COPY $WorkDir/GMJ_PT2_Fock_MO.csv $CurrDir/ozone_121.75.GMJ_PT2_Fock_MO.csv

&MOTRA
Frozen=0
LUMORB

>>> COPY $WorkDir/GMJ_one_int_indx.csv $CurrDir/ozone_121.75.GMJ_one_int_indx.csv

>>> COPY $WorkDir/GMJ_one_int.csv $CurrDir/ozone_121.75.GMJ_one_int.csv

>>> COPY $WorkDir/GMJ_two_int_indx.csv $CurrDir/ozone_121.75.GMJ_two_int_indx.csv

>>> COPY $WorkDir/GMJ_two_int.csv $CurrDir/ozone_121.75.GMJ_two_int.csv

&CASPT2
Frozen
0
MAXITER
50

>>> FOREACH i IN (B,E,F,G,H)

  >>> FOREACH j IN (P,M)

    >>> IF (-FILE GMJ_e2_${i}_${j}.csv)

      >>> COPY $WorkDir/GMJ_RHS_${i}_${j}.csv $CurrDir/GMJ_RHS_${i}_${j}.csv

      >>> COPY $WorkDir/GMJ_IVECW_${i}_${j}.csv $CurrDir/GMJ_IVECW_${i}_${j}.csv

      >>> COPY $WorkDir/GMJ_IVECX_${i}_${j}.csv $CurrDir/GMJ_IVECX_${i}_${j}.csv

      >>> COPY $WorkDir/GMJ_IVECC2_${i}_${j}.csv $CurrDir/GMJ_IVECC2_${i}_${j}.csv

      >>> COPY $WorkDir/GMJ_e2_${i}_${j}.csv $CurrDir/GMJ_e2_${i}_${j}.csv

    >>> END IF

  >>> END FOREACH

>>> END FOREACH

>>> FOREACH i IN (A,C,D)

  >>> IF (-FILE GMJ_e2_$i.csv)

    >>> COPY $WorkDir/GMJ_RHS_$i.csv $CurrDir/GMJ_RHS_$i.csv

    >>> COPY $WorkDir/GMJ_IVECW_$i.csv $CurrDir/GMJ_IVECW_$i.csv

    >>> COPY $WorkDir/GMJ_IVECX_$i.csv $CurrDir/GMJ_IVECX_$i.csv

    >>> COPY $WorkDir/GMJ_IVECC2_$i.csv $CurrDir/GMJ_IVECC2_$i.csv

    >>> COPY $WorkDir/GMJ_e2_$i.csv $CurrDir/GMJ_e2_$i.csv

  >>> END IF

>>> END FOREACH

-- ----------------------------------

--- Start Module: gateway at Fri Jan 24 15:14:34 2025 ---
 
()()()()()()()()()()()()()()()()()()()()()()()()()()()()()()()()()()()()()()()()()()()()()()()()()()

                                              &GATEWAY

                                   only a single process is used
                       available to each process: 2.0 GB of memory, 1 thread?
()()()()()()()()()()()()()()()()()()()()()()()()()()()()()()()()()()()()()()()()()()()()()()()()()()
 
 ###############################################################################
 ###############################################################################
 ###                                                                         ###
 ###                                                                         ###
 ###                                                                         ###
 ###    WARNING: EXPERT option is ON!                                        ###
 ###                                                                         ###
 ###                                                                         ###
 ###############################################################################
 ###############################################################################
 
++    Symmetry information:
      ---------------------
 
                    Character Table for C1 
 
                             E  
                    a        1  x, y, xy, Rz, z, xz, Ry, yz, Rx, I
--
 
 
++    Basis set information:
      ----------------------
 
 
      Basis set label: O.ANO-RCC...3S2P1D.
 
      Electronic valence basis set:
      ------------------
      Associated Effective Charge   8.000000 au
      Associated Actual Charge      8.000000 au
      Nuclear Model: Point charge
 
      Shell  nPrim  nBasis  Cartesian Spherical Contaminant
         s      14       3        X                  
         p       9       2        X                  
         d       4       1                 X         
--
 
 
++    Molecular structure info:
      -------------------------
 
                    ************************************************ 
                    **** Cartesian Coordinates / Bohr, Angstrom **** 
                    ************************************************ 
 
     Center  Label                x              y              z                     x              y              z
        1      O1               1.175455       2.109709       0.000000              0.622024       1.116410       0.000000
        2      O2               0.000000       0.000000       0.000000              0.000000       0.000000       0.000000
        3      O3               1.175455      -2.109709       0.000000              0.622024      -1.116410       0.000000
 
                    *************************************** 
                    *    InterNuclear Distances / Bohr    * 
                    *************************************** 
 
               1 O1            2 O2            3 O3    
    1 O1       0.000000
    2 O2       2.415071        0.000000
    3 O3       4.219418        2.415071        0.000000
 
                    ******************************************* 
                    *    InterNuclear Distances / Angstrom    * 
                    ******************************************* 
 
               1 O1            2 O2            3 O3    
    1 O1       0.000000
    2 O2       1.278000        0.000000
    3 O3       2.232820        1.278000        0.000000
 
                    ************************************** 
                    *    Valence Bond Angles / Degree    * 
                    ************************************** 
                          Atom centers                 Phi
                      1 O1       2 O2       3 O3       121.75
--
 
 
            Nuclear Potential Energy             68.16848346 au
 
 ###############################################################################
 ###############################################################################
 ###                                                                         ###
 ###                                                                         ###
 ###    There were warnings during the execution                             ###
 ###    Please, check the output with care!                                  ###
 ###                                                                         ###
 ###                                                                         ###
 ###############################################################################
 ###############################################################################
--- Stop Module: gateway at Fri Jan 24 15:14:35 2025 /rc=_RC_ALL_IS_WELL_ ---
*** files: xmldump
    saved to directory /home/grierjones/DDCASPT2/ozone/ANO-RCC-VDZP/ozone_121.75

--- Start Module: seward at Fri Jan 24 15:14:35 2025 ---
 
()()()()()()()()()()()()()()()()()()()()()()()()()()()()()()()()()()()()()()()()()()()()()()()()()()

                                              &SEWARD

                                   only a single process is used
                       available to each process: 2.0 GB of memory, 1 thread?
()()()()()()()()()()()()()()()()()()()()()()()()()()()()()()()()()()()()()()()()()()()()()()()()()()
 
 ###############################################################################
 ###############################################################################
 ###                                                                         ###
 ###                                                                         ###
 ###                                                                         ###
 ###    WARNING: EXPERT option is ON!                                        ###
 ###                                                                         ###
 ###                                                                         ###
 ###############################################################################
 ###############################################################################
               SEWARD will generate:
                  Multipole Moment integrals up to order  2
                  Kinetic Energy integrals
                  Nuclear Attraction integrals (point charge)
                  One-Electron Hamiltonian integrals
                  Velocity integrals
                  Relativistic Douglas-Kroll-Hess integrals:
                    - Parametrization         : EXP
                    - DKH order of Hamiltonian: 2
                    - DKH order of Properties : 0
                         - multipole moment operators
                         - electric potential operators
                         - contact operators
                  Atomic mean-field integrals
                  Two-Electron Repulsion integrals
 
                   Integrals are discarded if absolute value <: 0.10E-13
                   Integral cutoff threshold is set to       <: 0.10E-15
 
            Nuclear Potential Energy             68.16848346 au
 
 
      Basis set specifications :
      Symmetry species         a  
      Basis functions           42
 
 
  Input file to MOLDEN was generated!
 
 ###############################################################################
 ###############################################################################
 ###                                                                         ###
 ###                                                                         ###
 ###    There were warnings during the execution                             ###
 ###    Please, check the output with care!                                  ###
 ###                                                                         ###
 ###                                                                         ###
 ###############################################################################
 ###############################################################################
forrtl: warning (525): IEEE_DIVIDE_BY_ZERO is signaling
forrtl: warning (526): IEEE_INVALID is signaling
forrtl: warning (528): IEEE_UNDERFLOW is signaling
--- Stop Module: seward at Fri Jan 24 15:14:36 2025 /rc=_RC_ALL_IS_WELL_ ---
*** files: ozone_121.75.GssOrb ozone_121.75.guessorb.h5 ozone_121.75.guessorb.molden xmldump
    saved to directory /home/grierjones/DDCASPT2/ozone/ANO-RCC-VDZP/ozone_121.75
--- Module seward spent 1 second ---

*** symbolic link created: INPORB -> ozone_121.75.GssOrb
--- Start Module: scf at Fri Jan 24 15:14:36 2025 ---
 
()()()()()()()()()()()()()()()()()()()()()()()()()()()()()()()()()()()()()()()()()()()()()()()()()()

                                                &SCF

                                   only a single process is used
                       available to each process: 2.0 GB of memory, 1 thread?
()()()()()()()()()()()()()()()()()()()()()()()()()()()()()()()()()()()()()()()()()()()()()()()()()()
 
++    Input section:
      --------------
 
      Header of the integral files:
      
       Integrals generated by seward 4.2.0  , Fri Jan 24 15:14:35 2025
 
 
      Cartesian coordinates in Angstrom:
      -----------------------------------------------------
      No.  Label        X            Y            Z        
      -----------------------------------------------------
       1   O1         0.62202400   1.11641000   0.00000000
       2   O2         0.00000000   0.00000000   0.00000000
       3   O3         0.62202400  -1.11641000   0.00000000
      -----------------------------------------------------
      Nuclear repulsion energy =   68.16848346
--
 
++    Orbital specifications:
      -----------------------
 
      Symmetry species               1
                                     a
      Frozen orbitals                0
      Occupied orbitals             12
      Secondary orbitals            30
      Deleted orbitals               0
      Total number of orbitals      42
      Number of basis functions     42
--
 
      Molecular charge                           0.000
 
++    Optimization specifications:
      ----------------------------
 
      SCF Algorithm: Conventional
      Minimized density differences are used
      Number of density matrices in core                5
      Maximum number of NDDO SCF iterations           400
      Maximum number of HF SCF iterations             400
      Threshold for SCF energy change            0.10E-08
      Threshold for density matrix               0.10E-03
      Threshold for Fock matrix                  0.15E-03
      Threshold for linear dependence            0.10E-08
      Threshold at which DIIS is turned on       0.15E+00
      Threshold at which QNR/C2DIIS is turned on 0.75E-01
      Threshold for Norm(delta) (QNR/C2DIIS)     0.20E-04
      DIIS extrapolation of the SCF procedure
      All orbitals punched on: SCFORB
--
 
      Input vectors read from INPORB
      Orbital file label: *Guess orbitals
 
 
++ Convergence information
                                   SCF        iterations: Energy and convergence statistics
 
Iter     Tot. SCF        One-elec.       Two-elec.     Energy      Max Dij or  Max Fij      DNorm      TNorm      AccCon     Time
         Energy          Energy          Energy        Change      Delta Norm                                                in Sec.
   1  -223.895243590  -439.997680326   147.933953276   0.00E+00    0.64E+00*   0.26E+00*    0.74E+01   0.76E+02   None         0.
   2  -224.112205162  -446.088351189   153.807662568  -0.22E+00*   0.23E+00*   0.18E+00*    0.25E+01   0.78E+02   EDIIS        0.
   3  -224.451033203  -443.651168781   151.031652118  -0.34E+00*   0.23E+00*   0.89E-01*    0.74E+00   0.77E+02   EDIIS        0.
   4  -224.451487023  -444.243940974   151.623970492  -0.45E-03*   0.16E-01*   0.45E-01*    0.24E+00   0.77E+02   EDIIS        0.
   5  -224.489614287  -443.897431568   151.239333822  -0.38E-01*   0.77E-02*   0.31E-02*    0.38E-01   0.77E+02   c2DIIS       0.
   6  -224.489747174  -443.923943121   151.265712489  -0.13E-03*   0.31E-02*   0.15E-02*    0.75E-02   0.77E+02   QNRc2DIIS    0.
   7  -224.489775540  -443.920300895   151.262041896  -0.28E-04*   0.48E-02*   0.11E-02*    0.37E-02   0.77E+02   QNRc2DIIS    0.
   8  -224.489788210  -443.919215489   151.260943820  -0.13E-04*   0.97E-03*   0.59E-03*    0.22E-02   0.77E+02   QNRc2DIIS    0.
   9  -224.489790873  -443.924681965   151.266407632  -0.27E-05*   0.57E-03*   0.31E-03*    0.41E-03   0.77E+02   QNRc2DIIS    0.
  10  -224.489791440  -443.920368945   151.262094046  -0.57E-06*   0.92E-04*   0.55E-04     0.56E-03   0.77E+02   QNRc2DIIS    0.
  11  -224.489791464  -443.921834859   151.263559936  -0.24E-07*   0.23E-04*   0.11E-04     0.74E-04   0.77E+02   QNRc2DIIS    0.
  12  -224.489791465  -443.921788366   151.263513442  -0.14E-08*   0.75E-05    0.33E-05     0.12E-04   0.77E+02   QNRc2DIIS    0.
  13  -224.489791465  -443.921742571   151.263467646  -0.11E-09    0.54E-06    0.33E-06     0.23E-02   0.77E+02   QNRc2DIIS    0.
 
       Convergence after 13 Macro Iterations
--
 
 *****************************************************************************************************************************
 *                                                                                                                           *
 *                                             SCF/KS-DFT Program, Final results                                             *
 *                                                                                                                           *
 *                                                                                                                           *
 *                                                                                                                           *
 *                                                       Final Results                                                       *
 *                                                                                                                           *
 *****************************************************************************************************************************
 
::    Total SCF energy                               -224.4897914655
      One-electron energy                            -443.9217425706
      Two-electron energy                             151.2634676460
      Nuclear repulsion energy                         68.1684834592
      Kinetic energy (interpolated)                   225.3850909594
      Virial theorem                                    0.9960276898
      Total spin, S(S+1)                                0.0000000000
      Total spin, S                                     0.0000000000
      Max non-diagonal density matrix element           0.0000005635
      Max non-diagonal Fock matrix element              0.0000000782
 
 
      All orbitals with orbital energies smaller than  E(LUMO)+0.5 are printed
 
++    Molecular orbitals:
      -------------------
 
      Title: SCF orbitals

      Molecular orbitals for symmetry species 1: a  
 
          Orbital            1         2         3         4         5         6         7         8         9        10    
          Energy          -20.9161  -20.7232  -20.7232   -1.7509   -1.4449   -1.0972   -0.8359   -0.8061   -0.7817   -0.5754
          Occ. No.          2.0000    2.0000    2.0000    2.0000    2.0000    2.0000    2.0000    2.0000    2.0000    2.0000
 
        1 O1     1s         0.0018   -0.7072    0.7072   -0.0154    0.0104    0.0095   -0.0124   -0.0194    0.0000    0.0040
        2 O1     2s        -0.0002   -0.0006    0.0005    0.3179   -0.5782    0.5934   -0.2577   -0.4054    0.0000    0.0396
        3 O1     3s        -0.0002    0.0001   -0.0001   -0.0233    0.0127    0.0122   -0.0247   -0.0284    0.0000    0.0058
        4 O1     2px        0.0001    0.0005   -0.0004   -0.0486    0.0617    0.1025    0.1589   -0.3272    0.0000   -0.5500
        5 O1     3px        0.0003   -0.0000    0.0003    0.0132   -0.0091   -0.0169   -0.0136    0.0222   -0.0000   -0.0137
        6 O1     2py        0.0001    0.0007   -0.0009   -0.1022    0.0729    0.0948   -0.3367   -0.2816   -0.0000    0.4793
        7 O1     3py        0.0002   -0.0005    0.0003    0.0252   -0.0138   -0.0138    0.0333    0.0230   -0.0000    0.0031
        8 O1     2pz        0.0000   -0.0000   -0.0000    0.0000    0.0000    0.0000   -0.0000   -0.0000    0.3699   -0.0000
        9 O1     3pz       -0.0000    0.0000    0.0000    0.0000    0.0000   -0.0000   -0.0000    0.0000   -0.0252    0.0000
       10 O1     3d2-      -0.0000    0.0000   -0.0000    0.0154   -0.0133   -0.0109    0.0040    0.0283   -0.0000    0.0004
       11 O1     3d1-      -0.0000    0.0000    0.0000    0.0000   -0.0000   -0.0000    0.0000    0.0000   -0.0264   -0.0000
       12 O1     3d0        0.0001    0.0001   -0.0001   -0.0097    0.0087    0.0037   -0.0094   -0.0158   -0.0000    0.0044
       13 O1     3d1+      -0.0000    0.0000    0.0000    0.0000   -0.0000   -0.0000    0.0000    0.0000   -0.0149    0.0000
       14 O1     3d2+       0.0001   -0.0001    0.0000   -0.0119    0.0054    0.0025   -0.0252   -0.0080    0.0000    0.0186
       15 O2     1s         1.0001    0.0000   -0.0028   -0.0213    0.0000   -0.0163   -0.0070   -0.0000    0.0000   -0.0000
       16 O2     2s         0.0007    0.0000   -0.0007    0.6564   -0.0000   -0.6585   -0.0827    0.0000    0.0000   -0.0000
       17 O2     3s        -0.0001    0.0000   -0.0006   -0.0430    0.0000   -0.0061   -0.0118    0.0000   -0.0000   -0.0000
       18 O2     2px        0.0010    0.0000   -0.0004    0.1145   -0.0000    0.2370    0.6803    0.0000    0.0000    0.0000
       19 O2     3px       -0.0008    0.0000   -0.0005   -0.0259   -0.0000   -0.0270   -0.0556   -0.0000   -0.0000   -0.0000
       20 O2     2py       -0.0000    0.0007    0.0000   -0.0000   -0.3297    0.0000   -0.0000    0.5403   -0.0000   -0.1322
       21 O2     3py       -0.0000    0.0009    0.0000   -0.0000    0.0728   -0.0000    0.0000   -0.0745   -0.0000    0.0053
       22 O2     2pz       -0.0000    0.0000    0.0000    0.0000    0.0000    0.0000    0.0000    0.0000    0.7032    0.0000
       23 O2     3pz       -0.0000    0.0000    0.0000   -0.0000   -0.0000    0.0000   -0.0000    0.0000   -0.0269    0.0000
       24 O2     3d2-       0.0000    0.0002    0.0000   -0.0000   -0.0390    0.0000   -0.0000    0.0269   -0.0000   -0.0371
       25 O2     3d1-       0.0000    0.0000    0.0000   -0.0000   -0.0000    0.0000   -0.0000   -0.0000    0.0000   -0.0000
       26 O2     3d0       -0.0003   -0.0000    0.0003   -0.0180    0.0000   -0.0064   -0.0157   -0.0000    0.0000   -0.0000
       27 O2     3d1+       0.0000    0.0000   -0.0000    0.0000    0.0000   -0.0000   -0.0000    0.0000    0.0328    0.0000
       28 O2     3d2+      -0.0000   -0.0000    0.0001   -0.0131    0.0000    0.0017    0.0226    0.0000    0.0000   -0.0000
       29 O3     1s         0.0018    0.7072    0.7072   -0.0154   -0.0104    0.0095   -0.0124    0.0194   -0.0000   -0.0040
       30 O3     2s        -0.0002    0.0006    0.0005    0.3179    0.5782    0.5934   -0.2577    0.4054   -0.0000   -0.0396
       31 O3     3s        -0.0002   -0.0001   -0.0001   -0.0233   -0.0127    0.0122   -0.0247    0.0284   -0.0000   -0.0058
       32 O3     2px        0.0001   -0.0005   -0.0004   -0.0486   -0.0617    0.1025    0.1589    0.3272   -0.0000    0.5500
       33 O3     3px        0.0003    0.0000    0.0003    0.0132    0.0091   -0.0169   -0.0136   -0.0222    0.0000    0.0137
       34 O3     2py       -0.0001    0.0007    0.0009    0.1022    0.0729   -0.0948    0.3367   -0.2816   -0.0000    0.4793
       35 O3     3py       -0.0002   -0.0005   -0.0003   -0.0252   -0.0138    0.0138   -0.0333    0.0230   -0.0000    0.0031
       36 O3     2pz        0.0000   -0.0000   -0.0000   -0.0000   -0.0000    0.0000   -0.0000    0.0000    0.3699    0.0000
       37 O3     3pz        0.0000   -0.0000   -0.0000    0.0000    0.0000    0.0000    0.0000   -0.0000   -0.0252    0.0000
       38 O3     3d2-       0.0000    0.0000    0.0000   -0.0154   -0.0133    0.0109   -0.0040    0.0283   -0.0000    0.0004
       39 O3     3d1-      -0.0000    0.0000    0.0000   -0.0000   -0.0000    0.0000    0.0000    0.0000    0.0264    0.0000
       40 O3     3d0        0.0001   -0.0001   -0.0001   -0.0097   -0.0087    0.0037   -0.0094    0.0158    0.0000   -0.0044
       41 O3     3d1+      -0.0000    0.0000    0.0000   -0.0000   -0.0000   -0.0000    0.0000   -0.0000   -0.0149   -0.0000
       42 O3     3d2+       0.0001    0.0001    0.0000   -0.0119   -0.0054    0.0025   -0.0252    0.0080    0.0000   -0.0186
 
          Orbital           11        12        13        14        15    
          Energy           -0.5493   -0.4936   -0.0525    0.2448    0.2785
          Occ. No.          2.0000    2.0000    0.0000    0.0000    0.0000
 
        1 O1     1s         0.0060   -0.0000    0.0000   -0.0570   -0.1320
        2 O1     2s         0.0416   -0.0000    0.0000   -0.5244   -1.0098
        3 O1     3s         0.0214   -0.0000   -0.0000   -0.1297   -0.3260
        4 O1     2px        0.6550    0.0000   -0.0000    0.2245    0.4819
        5 O1     3px        0.0107    0.0000   -0.0000    0.1356    0.2994
        6 O1     2py       -0.1059   -0.0000    0.0000    0.7804    0.4977
        7 O1     3py       -0.0246   -0.0000    0.0000    0.3555    0.4753
        8 O1     2pz        0.0000   -0.7145    0.6598    0.0000    0.0000
        9 O1     3pz       -0.0000   -0.0467    0.1282    0.0000   -0.0000
       10 O1     3d2-      -0.0138   -0.0000   -0.0000    0.0019   -0.0182
       11 O1     3d1-      -0.0000    0.0219    0.0071   -0.0000   -0.0000
       12 O1     3d0        0.0052    0.0000   -0.0000    0.0013    0.0113
       13 O1     3d1+      -0.0000    0.0123    0.0052   -0.0000    0.0000
       14 O1     3d2+      -0.0001   -0.0000    0.0000   -0.0084    0.0137
       15 O2     1s         0.0175    0.0000   -0.0000    0.1668    0.0000
       16 O2     2s         0.2314    0.0000   -0.0000    1.3607    0.0000
       17 O2     3s         0.0304    0.0000   -0.0000    0.3466    0.0000
       18 O2     2px       -0.5048   -0.0000    0.0000    0.7007    0.0000
       19 O2     3px       -0.0156    0.0000    0.0000    0.3474    0.0000
       20 O2     2py       -0.0000    0.0000   -0.0000   -0.0000    1.2570
       21 O2     3py       -0.0000    0.0000   -0.0000   -0.0000    0.8608
       22 O2     2pz       -0.0000    0.0000   -0.8395   -0.0000    0.0000
       23 O2     3pz       -0.0000    0.0000   -0.1381   -0.0000    0.0000
       24 O2     3d2-      -0.0000    0.0000   -0.0000   -0.0000    0.0314
       25 O2     3d1-       0.0000   -0.0510   -0.0000    0.0000    0.0000
       26 O2     3d0        0.0188    0.0000   -0.0000    0.0136   -0.0000
       27 O2     3d1+      -0.0000    0.0000    0.0037    0.0000   -0.0000
       28 O2     3d2+       0.0357    0.0000   -0.0000    0.0146    0.0000
       29 O3     1s         0.0060    0.0000   -0.0000   -0.0570    0.1320
       30 O3     2s         0.0416    0.0000   -0.0000   -0.5244    1.0098
       31 O3     3s         0.0214    0.0000   -0.0000   -0.1297    0.3260
       32 O3     2px        0.6550   -0.0000   -0.0000    0.2245   -0.4819
       33 O3     3px        0.0107   -0.0000    0.0000    0.1356   -0.2994
       34 O3     2py        0.1059   -0.0000    0.0000   -0.7804    0.4977
       35 O3     3py        0.0246    0.0000    0.0000   -0.3555    0.4753
       36 O3     2pz       -0.0000    0.7145    0.6598    0.0000   -0.0000
       37 O3     3pz       -0.0000    0.0467    0.1282   -0.0000   -0.0000
       38 O3     3d2-       0.0138    0.0000   -0.0000   -0.0019   -0.0182
       39 O3     3d1-      -0.0000    0.0219   -0.0071   -0.0000   -0.0000
       40 O3     3d0        0.0052   -0.0000   -0.0000    0.0013   -0.0113
       41 O3     3d1+       0.0000   -0.0123    0.0052    0.0000   -0.0000
       42 O3     3d2+      -0.0001    0.0000   -0.0000   -0.0084   -0.0137
--
 
 
++    Molecular charges:
      ------------------
 
      Mulliken charges per centre and basis function type
      ---------------------------------------------------
 
                O1      O2      O3    
      1s       2.0003  2.0003  2.0003
      2s       1.9230  1.7666  1.9230
      2px      1.7561  1.5832  1.7561
      2pz      1.3757  1.2104  1.3757
      2py      1.0930  1.0255  1.0930
      3s      -0.0073 -0.0130 -0.0073
      3px     -0.0149 -0.0219 -0.0149
      3pz     -0.0149 -0.0085 -0.0149
      3py     -0.0020  0.0167 -0.0020
      3d2+     0.0115  0.0355  0.0115
      3d1+     0.0035  0.0086  0.0035
      3d0      0.0055  0.0080  0.0055
      3d1-     0.0105  0.0398  0.0105
      3d2-     0.0151  0.0384  0.0151
      Total    8.1552  7.6896  8.1552
 
      N-E     -0.1552  0.3104 -0.1552
 
      Total electronic charge=   24.000000
 
      Total            charge=   -0.000000
--
 
 
  Input file to MOLDEN was generated!
 
 
++    Static properties:
      ------------------
 
 
      LoProp Charges per center
 

                   O1       O2       O3    
      Nuclear      8.0000   8.0000   8.0000
      Electronic  -8.2024  -7.5952  -8.2024
 
      Total       -0.2024   0.4048  -0.2024
--
 
 
++    Natural Bond Order analysis
      ---------------------------
      Based on LoProp computed density
      -------------------------------------------------------------------------------------
      Atom A       Atom B       Bond Order | Atom A       Atom B       Bond Order
        O1           O2             2.000  |   O2           O3             2.000
      -------------------------------------------------------------------------------------
      NBO located     12.000 core electrons.
      NBO located      3.954 lone pair electrons.
      NBO located      8.000 electrons involved in    2 bonds.
      The remaining    0.046 electrons are to be considered as diffuse
--
 
 
++    Molecular properties:
      ---------------------
 
      Charge (e):
                      =   -0.0000
      Dipole Moment (Debye):
      Origin of the operator (Ang)=    0.0000    0.0000    0.0000
                   X= -7.1635E-01               Y= -5.8619E-11               Z=  7.9854E-14           Total=  7.1635E-01
      Quadrupole Moment (Debye*Ang):
      Origin of the operator (Ang)=    0.4147    0.0000    0.0000
                  XX= -1.6105E+01              XY= -2.0789E-11              XZ= -1.1133E-13              YY= -1.7647E+01
                  YZ=  2.0068E-13              ZZ= -1.5154E+01
      In traceless form (Debye*Ang)
                  XX=  2.9487E-01              XY= -3.1183E-11              XZ= -1.6699E-13              YY= -2.0169E+00
                  YZ=  3.0102E-13              ZZ=  1.7220E+00
--
 
 
  Input file to MOLDEN was generated!
 
 ###############################################################################
 ###############################################################################
 ###                                                                         ###
 ###                                                                         ###
 ###    RunFile label nBas                                                   ###
 ###    was used       78 times                                              ###
 ###                                                                         ###
 ###                                                                         ###
 ###############################################################################
 ###############################################################################
forrtl: warning (528): IEEE_UNDERFLOW is signaling
--- Stop Module: scf at Fri Jan 24 15:14:36 2025 /rc=_RC_ALL_IS_WELL_ ---
*** files: ozone_121.75.LprOrb ozone_121.75.LoProp.molden ozone_121.75.scf.molden ozone_121.75.ScfOrb ozone_121.75.scf.h5 xmldump
    saved to directory /home/grierjones/DDCASPT2/ozone/ANO-RCC-VDZP/ozone_121.75

>>> COPY /tmp/ozone_121.75/ozone_121.75.scf.h5 /home/grierjones/DDCASPT2/ozone/ANO-RCC-VDZP/ozone_121.75/

*** symbolic link created: INPORB -> ozone_121.75.ScfOrb
--- Start Module: rasscf at Fri Jan 24 15:14:36 2025 ---
 
()()()()()()()()()()()()()()()()()()()()()()()()()()()()()()()()()()()()()()()()()()()()()()()()()()

                                              &RASSCF

                                   only a single process is used
                       available to each process: 2.0 GB of memory, 1 thread?
()()()()()()()()()()()()()()()()()()()()()()()()()()()()()()()()()()()()()()()()()()()()()()()()()()
 
 
 *************** WARNING ****************
 ###############################################################################
 ###############################################################################
 ###                                                                         ###
 ###                                                                         ###
 ###    Too many macro-iterations.                                           ###
 ###                                                                         ###
 ###                                                                         ###
 ###############################################################################
 ###############################################################################
 Too many macro-iterations requested.
 Reset to maximum, new MAXIT=     200
 ****************************************
 
 *************** WARNING ****************
 ###############################################################################
 ###############################################################################
 ###                                                                         ###
 ###                                                                         ###
 ###    Too many SX-iterations.                                              ###
 ###                                                                         ###
 ###                                                                         ###
 ###############################################################################
 ###############################################################################
 Too many SX-iterations requested.
 Reset to maximum, new ITMAX=     100
 ****************************************
 
      Header of the ONEINT file:
      --------------------------
      
      Integrals generated by seward 4.2.0  , Fri Jan 24 15:14:35 2025
 
 
      OrdInt status: non-squared
 
 
      Cartesian coordinates in Angstrom:
      -----------------------------------------------------
      No.  Label        X            Y            Z        
      -----------------------------------------------------
       1   O1         0.62202400   1.11641000   0.00000000
       2   O2         0.00000000   0.00000000   0.00000000
       3   O3         0.62202400  -1.11641000   0.00000000
      -----------------------------------------------------
      Nuclear repulsion energy =   68.16848346
 
++    Wave function specifications:
      -----------------------------
 
      Number of closed shell electrons          20
      Number of electrons in active shells       4
      Max number of holes in RAS1 space          0
      Max nr of electrons in RAS3 space          0
      Number of inactive orbitals               10
      Number of active orbitals                  3
      Number of secondary orbitals              29
      Spin quantum number                      0.0
      State symmetry                             1
--
 
++    Orbital specifications:
      -----------------------
 
      Symmetry species                           1
                                                 a
      Frozen orbitals                            0
      Inactive orbitals                         10
      Active orbitals                            3
      RAS1 orbitals                              0
      RAS2 orbitals                              3
      RAS3 orbitals                              0
      Secondary orbitals                        29
      Deleted orbitals                           0
      Number of basis functions                 42
--
 
++    CI expansion specifications:
      ----------------------------
 
      Number of CSFs                             6
      Number of determinants                     6
      Number of root(s) required                 1
      Root chosen for geometry opt.              1
      CI root used                               1
         
      highest root included in the CI            1
      max. size of the explicit Hamiltonian      6
--
 
++    Optimization specifications:
      ----------------------------
 
      RASSCF algorithm: Conventional
      Maximum number of macro iterations       200
      Maximum number of SX iterations          100
      Threshold for RASSCF energy            0.100E-07
      Threshold for max MO rotation          0.100E+00
      Threshold for max BLB element          0.100E-03
      Level shift parameter                  0.500E+00
      Make Quasi-Newton update
--
 
      The MO-coefficients are taken from the file:
      /home/grierjones/DDCASPT2/ozone/ANO-RCC-VDZP/ozone_121.50/ozone_121.50.RasOrb                                                   
      Title: RASSCF average (pseudo-natural) orbitals                                      
 
      Total molecular charge    0.00
 
      ************************************************************************************************************************
      *                                                                                                                      *
      *                                            Wave function control section                                             *
      *                                                                                                                      *
      ************************************************************************************************************************
 
 
                                         RASSCF iterations: Energy and convergence statistics
                                         ----------------------------------------------------
 
      Iter CI   SX   CI       RASSCF       Energy    max ROT     max BLB   max BLB  Level Ln srch  Step   QN   Walltime
          iter iter root      energy       change     param      element    value   shift minimum  type update hh:mm:ss
 Nr of preliminary CI iterations:   1
        1   1    3    1  -224.58627266    0.00E+00   0.47E-03    7  42 1  0.12E-02*  0.18   0.00    SX    NO    0:00:00
        2   1    3    1  -224.58627777   -0.51E-05*  0.26E-03    9  18 1 -0.66E-03*  0.18   0.00    SX    NO    0:00:00
        3   1    3    1  -224.58627896   -0.12E-05*  0.16E-03    9  18 1 -0.42E-03*  0.18   0.00    SX    NO    0:00:00
        4   1    3    1  -224.58627937   -0.41E-06*  0.11E-03    9  18 1 -0.22E-03*  0.18   0.00    SX    NO    0:00:00
        5   1    3    1  -224.58627950   -0.14E-06*  0.16E-03    9  18 1 -0.16E-03*  0.18   2.50    LS   YES    0:00:00
        6   1    3    1  -224.58627957   -0.64E-07* -0.39E-04    8  18 1  0.13E-03*  0.18   0.87    QN   YES    0:00:00
        7   1    3    1  -224.58627959   -0.19E-07*  0.12E-04    8  18 1 -0.60E-04   0.18   0.76    QN   YES    0:00:00
        8   1    2    1  -224.58627959    0.19E-09  -0.42E-05    8  18 1  0.44E-04   0.18   0.41    QN   YES    0:00:00
      Convergence after  8 iterations
 
  Dmat in MO in SXCTL bf call to SXHAM                                                                                    
  mat. size =     3x    3
 
        1.9925797440368211
       -0.0000000000018116      1.6194334525405198
        0.0006695418853938     -0.0000000000025768      0.3879868034226617
        9   1    2    1  -224.58627959   -0.62E-09  -0.42E-05    8  18 1  0.10E-04   0.18   0.41    QN   YES    0:00:00
 
      ************************************************************************************************************************
                                                      Wave function printout:
                       occupation of active orbitals, and spin coupling of open shells (u,d: Spin up or down)
      ************************************************************************************************************************
 
      Note: transformation to natural orbitals
      has been made, which may change the order of the CSFs.
 
      printout of CI-coefficients larger than  0.05 for root  1
      energy=    -224.586280
      conf/sym  111     Coeff  Weight
             1  220  -0.89778 0.80601
             3  202   0.43621 0.19028
             6  022   0.06091 0.00371
 
      Natural orbitals and occupation numbers for root  1
      sym 1:   1.992580   1.619433   0.387987
 
      ************************************************************************************************************************
      *                                                                                                                      *
      *                                                    Final results                                                     *
      *                                                                                                                      *
      ************************************************************************************************************************
 
 
++    Wave function specifications:
      -----------------------------
 
      Number of closed shell electrons          20
      Number of electrons in active shells       4
      Max number of holes in RAS1 space          0
      Max nr of electrons in RAS3 space          0
      Number of inactive orbitals               10
      Number of active orbitals                  3
      Number of secondary orbitals              29
      Spin quantum number                      0.0
      State symmetry                             1
--
 
++    Orbital specifications:
      -----------------------
 
      Symmetry species                           1
                                                 a
      Frozen orbitals                            0
      Inactive orbitals                         10
      Active orbitals                            3
      RAS1 orbitals                              0
      RAS2 orbitals                              3
      RAS3 orbitals                              0
      Secondary orbitals                        29
      Deleted orbitals                           0
      Number of basis functions                 42
--
 
++    CI expansion specifications:
      ----------------------------
 
      Number of CSFs                             6
      Number of determinants                     6
      Number of root(s) required                 1
      CI root used                               1
      highest root included in the CI            1
      Root passed to geometry opt.               1
--
 
++    Final optimization conditions:
      ------------------------------
 
      Average CI energy                            -224.58627959
      RASSCF energy for state  1                   -224.58627959
      Super-CI energy                                -0.00000000
      RASSCF energy change                           -0.00000000
      Max change in MO coefficients               0.440E-05
      Max non-diagonal density matrix element    -0.419E-05
      Maximum BLB matrix element                  0.102E-04
      (orbital pair   8,  18 in symmetry   1)
      Norm of electronic gradient            0.326E-04
--
 
 
      Final state energy(ies):
      ------------------------
 
::    RASSCF root number  1 Total energy:   -224.58627959
 
++    Molecular orbitals:
      -------------------
 
      Pseudonatural active orbitals and approximate occupation numbers
 
 
 
 
      Molecular orbitals for symmetry species 1: a  
 
 
      Orbital                1         2         3         4         5         6         7         8         9        10
      Energy          -20.8135  -20.7160  -20.7160   -1.7144   -1.4267   -1.0767   -0.7988   -0.7883   -0.5757   -0.5336
      Occ. No.          2.0000    2.0000    2.0000    2.0000    2.0000    2.0000    2.0000    2.0000    2.0000    2.0000
 
    1 O1     1s         0.0034   -0.7072    0.7072   -0.0151    0.0092    0.0111   -0.0107   -0.0182    0.0042    0.0060
    2 O1     2s        -0.0001   -0.0006    0.0006    0.3382   -0.5972    0.6012   -0.2030   -0.3701    0.0404    0.0339
    3 O1     3s        -0.0002    0.0002   -0.0001   -0.0239    0.0115    0.0152   -0.0223   -0.0270    0.0062    0.0249
    4 O1     2px        0.0002    0.0005   -0.0003   -0.0498    0.0599    0.1113    0.2126   -0.3531   -0.5430    0.6464
    5 O1     3px        0.0004   -0.0000    0.0003    0.0132   -0.0084   -0.0164   -0.0167    0.0209   -0.0148    0.0154
    6 O1     2py        0.0001    0.0007   -0.0008   -0.1065    0.0716    0.1231   -0.3597   -0.3025    0.4892   -0.0567
    7 O1     3py        0.0002   -0.0005    0.0003    0.0255   -0.0129   -0.0170    0.0290    0.0209    0.0045   -0.0272
    8 O1     2pz        0.0000    0.0000    0.0000    0.0000   -0.0000    0.0000   -0.0000    0.0000   -0.0000   -0.0000
    9 O1     3pz        0.0000    0.0000   -0.0000    0.0000   -0.0000   -0.0000   -0.0000    0.0000   -0.0000   -0.0000
   10 O1     3d2-      -0.0001    0.0000   -0.0000    0.0152   -0.0127   -0.0122    0.0017    0.0282    0.0002   -0.0129
   11 O1     3d1-       0.0000   -0.0000    0.0000   -0.0000   -0.0000    0.0000   -0.0000    0.0000    0.0000    0.0000
   12 O1     3d0        0.0001    0.0001   -0.0002   -0.0107    0.0094    0.0046   -0.0091   -0.0160    0.0049    0.0057
   13 O1     3d1+       0.0000    0.0000    0.0000   -0.0000    0.0000   -0.0000   -0.0000    0.0000    0.0000   -0.0000
   14 O1     3d2+       0.0001   -0.0001    0.0000   -0.0123    0.0054    0.0043   -0.0252   -0.0086    0.0180    0.0029
   15 O2     1s         1.0001    0.0000   -0.0050   -0.0228    0.0000   -0.0141   -0.0096   -0.0000   -0.0000    0.0214
   16 O2     2s         0.0008    0.0000   -0.0007    0.6272   -0.0000   -0.6605   -0.1372   -0.0000   -0.0000    0.2920
   17 O2     3s        -0.0003    0.0000   -0.0006   -0.0371    0.0000   -0.0121   -0.0148   -0.0000   -0.0000    0.0386
   18 O2     2px        0.0010    0.0000   -0.0004    0.1152   -0.0000    0.1734    0.6282    0.0000    0.0000   -0.5507
   19 O2     3px       -0.0010    0.0000   -0.0005   -0.0248   -0.0000   -0.0186   -0.0407   -0.0000    0.0000   -0.0278
   20 O2     2py        0.0000    0.0006    0.0000   -0.0000   -0.2960    0.0000   -0.0000    0.5050   -0.1319   -0.0000
   21 O2     3py       -0.0000    0.0008    0.0000   -0.0000    0.0684   -0.0000    0.0000   -0.0679   -0.0006   -0.0000
   22 O2     2pz       -0.0000    0.0000    0.0000    0.0000    0.0000    0.0000    0.0000    0.0000    0.0000   -0.0000
   23 O2     3pz       -0.0000   -0.0000   -0.0000   -0.0000    0.0000   -0.0000    0.0000   -0.0000   -0.0000   -0.0000
   24 O2     3d2-       0.0000    0.0002    0.0000   -0.0000   -0.0381    0.0000   -0.0000    0.0301   -0.0363   -0.0000
   25 O2     3d1-      -0.0000   -0.0000    0.0000   -0.0000   -0.0000    0.0000    0.0000    0.0000   -0.0000   -0.0000
   26 O2     3d0       -0.0000   -0.0000    0.0003   -0.0175    0.0000   -0.0061   -0.0169   -0.0000   -0.0000    0.0226
   27 O2     3d1+      -0.0000    0.0000    0.0000   -0.0000   -0.0000    0.0000    0.0000    0.0000    0.0000    0.0000
   28 O2     3d2+      -0.0000   -0.0000    0.0002   -0.0124    0.0000    0.0026    0.0260    0.0000   -0.0000    0.0305
   29 O3     1s         0.0034    0.7072    0.7072   -0.0151   -0.0092    0.0111   -0.0107    0.0182   -0.0042    0.0060
   30 O3     2s        -0.0001    0.0006    0.0006    0.3382    0.5972    0.6012   -0.2030    0.3701   -0.0404    0.0339
   31 O3     3s        -0.0002   -0.0002   -0.0001   -0.0239   -0.0115    0.0152   -0.0223    0.0270   -0.0062    0.0249
   32 O3     2px        0.0002   -0.0005   -0.0003   -0.0498   -0.0599    0.1113    0.2126    0.3531    0.5430    0.6464
   33 O3     3px        0.0004    0.0000    0.0003    0.0132    0.0084   -0.0164   -0.0167   -0.0209    0.0148    0.0154
   34 O3     2py       -0.0001    0.0007    0.0008    0.1065    0.0716   -0.1231    0.3597   -0.3025    0.4892    0.0567
   35 O3     3py       -0.0002   -0.0005   -0.0003   -0.0255   -0.0129    0.0170   -0.0290    0.0209    0.0045    0.0272
   36 O3     2pz        0.0000   -0.0000    0.0000   -0.0000    0.0000   -0.0000    0.0000    0.0000    0.0000    0.0000
   37 O3     3pz        0.0000    0.0000   -0.0000    0.0000    0.0000    0.0000   -0.0000   -0.0000    0.0000    0.0000
   38 O3     3d2-       0.0001    0.0000    0.0000   -0.0152   -0.0127    0.0122   -0.0017    0.0282    0.0002    0.0129
   39 O3     3d1-       0.0000    0.0000   -0.0000    0.0000    0.0000    0.0000   -0.0000    0.0000   -0.0000   -0.0000
   40 O3     3d0        0.0001   -0.0001   -0.0002   -0.0107   -0.0094    0.0046   -0.0091    0.0160   -0.0049    0.0057
   41 O3     3d1+      -0.0000    0.0000    0.0000    0.0000    0.0000    0.0000   -0.0000   -0.0000   -0.0000    0.0000
   42 O3     3d2+       0.0001    0.0001    0.0000   -0.0123   -0.0054    0.0043   -0.0252    0.0086   -0.0180    0.0029
 
 
      Orbital               11        12        13        14        15        16        17        18        19        20
      Energy            0.0000    0.0000    0.0000    0.2581    0.2873    0.4643    0.4656    0.5618    0.6134    0.6898
      Occ. No.          1.9926    1.6194    0.3880    0.0000    0.0000    0.0000    0.0000    0.0000    0.0000    0.0000
 
    1 O1     1s        -0.0000   -0.0000   -0.0000   -0.0601   -0.1352   -0.0000   -0.0355   -0.0360    0.0218    0.0001
    2 O1     2s         0.0000    0.0000   -0.0000   -0.5468   -1.0251   -0.0000   -0.1874   -0.1341    0.1074    0.0094
    3 O1     3s        -0.0000    0.0000    0.0000   -0.1345   -0.3346   -0.0000   -0.1514   -0.1296    0.2099    0.0386
    4 O1     2px        0.0000   -0.0000    0.0000    0.2093    0.4642   -0.0000   -0.0739   -0.2174   -0.0578   -0.0393
    5 O1     3px        0.0000    0.0000   -0.0000    0.1400    0.3097    0.0000    0.4383   -0.0558    0.1914   -0.7888
    6 O1     2py       -0.0000   -0.0000    0.0000    0.7737    0.4712   -0.0000   -0.0700   -0.2943   -0.0394   -0.0368
    7 O1     3py       -0.0000    0.0000    0.0000    0.3679    0.4948    0.0000    0.1407    0.3171   -0.7470   -0.1901
    8 O1     2pz        0.2570   -0.7141    0.6919   -0.0000   -0.0000   -0.0085    0.0000    0.0000   -0.0000   -0.0000
    9 O1     3pz       -0.0303   -0.0092   -0.0461   -0.0000   -0.0000    0.4713   -0.0000    0.0000    0.0000   -0.0000
   10 O1     3d2-       0.0000    0.0000   -0.0000    0.0026   -0.0200   -0.0000   -0.0173   -0.0900   -0.0047   -0.0213
   11 O1     3d1-      -0.0253    0.0169    0.0053   -0.0000   -0.0000    0.0267   -0.0000   -0.0000    0.0000   -0.0000
   12 O1     3d0        0.0000    0.0000   -0.0000    0.0010    0.0121    0.0000    0.0233    0.0490    0.0001   -0.0012
   13 O1     3d1+      -0.0135    0.0089    0.0013   -0.0000    0.0000    0.0179   -0.0000   -0.0000    0.0000   -0.0000
   14 O1     3d2+       0.0000   -0.0000    0.0000   -0.0096    0.0137    0.0000    0.0626    0.0064   -0.0190    0.0105
   15 O2     1s         0.0000   -0.0000    0.0000    0.1686    0.0000    0.0000    0.0712    0.0000   -0.1150    0.0000
   16 O2     2s        -0.0000   -0.0000    0.0000    1.3828    0.0000    0.0000    0.3616    0.0000   -0.6225    0.0000
   17 O2     3s        -0.0000   -0.0000    0.0000    0.3701    0.0000    0.0000    0.2496    0.0000   -0.2588    0.0000
   18 O2     2px       -0.0000    0.0000    0.0000    0.7366    0.0000   -0.0000   -0.1605    0.0000   -0.1017    0.0000
   19 O2     3px       -0.0000    0.0000    0.0000    0.3702    0.0000    0.0000    0.5281    0.0000   -0.3673    0.0000
   20 O2     2py        0.0000   -0.0000    0.0000   -0.0000    1.2511    0.0000    0.0000   -0.4273    0.0000    0.0804
   21 O2     3py        0.0000   -0.0000    0.0000   -0.0000    0.8967    0.0000    0.0000    0.5989    0.0000    0.1182
   22 O2     2pz        0.8268    0.0000   -0.6184    0.0000    0.0000   -0.2278    0.0000   -0.0000    0.0000    0.0000
   23 O2     3pz       -0.0165   -0.0000   -0.0674    0.0000    0.0000    0.3654   -0.0000   -0.0000    0.0000    0.0000
   24 O2     3d2-       0.0000   -0.0000   -0.0000   -0.0000    0.0429    0.0000   -0.0000    0.1164    0.0000   -0.0862
   25 O2     3d1-       0.0000   -0.0394   -0.0000   -0.0000    0.0000   -0.0000   -0.0000   -0.0000   -0.0000    0.0000
   26 O2     3d0       -0.0000   -0.0000   -0.0000    0.0098   -0.0000   -0.0000   -0.0610   -0.0000    0.1046   -0.0000
   27 O2     3d1+       0.0321    0.0000   -0.0097    0.0000    0.0000   -0.0405    0.0000    0.0000   -0.0000   -0.0000
   28 O2     3d2+       0.0000   -0.0000    0.0000    0.0127    0.0000   -0.0000   -0.1071   -0.0000    0.0416   -0.0000
   29 O3     1s        -0.0000    0.0000   -0.0000   -0.0601    0.1352   -0.0000   -0.0355    0.0360    0.0218   -0.0001
   30 O3     2s        -0.0000    0.0000   -0.0000   -0.5468    1.0251   -0.0000   -0.1874    0.1341    0.1074   -0.0094
   31 O3     3s         0.0000   -0.0000   -0.0000   -0.1345    0.3346   -0.0000   -0.1514    0.1296    0.2099   -0.0386
   32 O3     2px       -0.0000   -0.0000   -0.0000    0.2093   -0.4642   -0.0000   -0.0739    0.2174   -0.0578    0.0393
   33 O3     3px       -0.0000    0.0000    0.0000    0.1400   -0.3097    0.0000    0.4383    0.0558    0.1914    0.7888
   34 O3     2py       -0.0000   -0.0000   -0.0000   -0.7737    0.4712    0.0000    0.0700   -0.2943    0.0394   -0.0368
   35 O3     3py       -0.0000    0.0000    0.0000   -0.3679    0.4948   -0.0000   -0.1407    0.3171    0.7470   -0.1901
   36 O3     2pz        0.2570    0.7141    0.6919   -0.0000   -0.0000   -0.0085   -0.0000    0.0000   -0.0000   -0.0000
   37 O3     3pz       -0.0303    0.0092   -0.0461   -0.0000   -0.0000    0.4713   -0.0000   -0.0000   -0.0000    0.0000
   38 O3     3d2-       0.0000   -0.0000    0.0000   -0.0026   -0.0200    0.0000    0.0173   -0.0900    0.0047   -0.0213
   39 O3     3d1-       0.0253    0.0169   -0.0053    0.0000    0.0000   -0.0267    0.0000    0.0000    0.0000   -0.0000
   40 O3     3d0       -0.0000   -0.0000    0.0000    0.0010   -0.0121    0.0000    0.0233   -0.0490    0.0001    0.0012
   41 O3     3d1+      -0.0135   -0.0089    0.0013   -0.0000   -0.0000    0.0179   -0.0000    0.0000   -0.0000   -0.0000
   42 O3     3d2+       0.0000    0.0000    0.0000   -0.0096   -0.0137    0.0000    0.0626   -0.0064   -0.0190   -0.0105
 
 
      Orbital               21        22        23        24        25        26        27        28        29        30
      Energy            0.7171    0.8412    0.8852    0.9088    1.0061    1.6916    1.6946    1.7095    1.7832    1.8624
      Occ. No.          0.0000    0.0000    0.0000    0.0000    0.0000    0.0000    0.0000    0.0000    0.0000    0.0000
 
    1 O1     1s        -0.0000    0.0077   -0.0540   -0.0000    0.0837   -0.0213    0.0000    0.0000   -0.1514   -0.0707
    2 O1     2s        -0.0000    0.0343   -0.2940   -0.0000    0.4515   -0.1527    0.0000    0.0000   -1.1051   -0.5407
    3 O1     3s         0.0000    0.4510    0.1735    0.0000    0.0851   -0.1420    0.0000   -0.0000   -1.3578   -0.6870
    4 O1     2px       -0.0000    0.1297   -0.3040   -0.0000   -0.2961    0.1590   -0.0000   -0.0000    0.3553    0.1011
    5 O1     3px        0.0000    0.3903   -0.6164   -0.0000   -0.5317    0.0655   -0.0000   -0.0000    0.3689    0.2463
    6 O1     2py       -0.0000   -0.0330    0.0801    0.0000    0.2429    0.0382   -0.0000    0.0000    0.3339    0.3439
    7 O1     3py        0.0000    0.3122    0.0513   -0.0000    0.7011    0.0756   -0.0000    0.0000    0.2533    0.3695
    8 O1     2pz       -0.1155   -0.0000   -0.0000    0.4301    0.0000   -0.0000   -0.1622   -0.1166    0.0000    0.0000
    9 O1     3pz       -0.8643    0.0000   -0.0000    0.8299   -0.0000    0.0000    0.0095   -0.0758   -0.0000   -0.0000
   10 O1     3d2-       0.0000   -0.0453   -0.0793   -0.0000    0.0463    0.3186   -0.0000   -0.0000    0.0739   -0.0605
   11 O1     3d1-      -0.0332   -0.0000    0.0000   -0.0225   -0.0000   -0.0000   -0.2837   -0.4150   -0.0000   -0.0000
   12 O1     3d0        0.0000    0.0070    0.0857    0.0000   -0.0742    0.2829   -0.0000    0.0000   -0.1839    0.1846
   13 O1     3d1+      -0.0016    0.0000   -0.0000    0.0310   -0.0000   -0.0000   -0.3502    0.1946    0.0000    0.0000
   14 O1     3d2+       0.0000    0.0062    0.0275   -0.0000   -0.1279    0.1558   -0.0000   -0.0000    0.0730   -0.3014
   15 O2     1s         0.0000    0.0285   -0.0339   -0.0000   -0.0000    0.0433   -0.0000    0.0000   -0.0000    0.1931
   16 O2     2s        -0.0000    0.1285   -0.1148   -0.0000   -0.0000    0.3208   -0.0000    0.0000   -0.0000    1.3451
   17 O2     3s         0.0000    0.4910    0.1974    0.0000   -0.0000    0.3582   -0.0000    0.0000   -0.0000    1.3156
   18 O2     2px        0.0000   -0.2381    0.5164    0.0000   -0.0000    0.1912   -0.0000   -0.0000   -0.0000    0.1522
   19 O2     3px        0.0000   -0.6629    1.1949    0.0000   -0.0000   -0.0407    0.0000    0.0000   -0.0000    0.1840
   20 O2     2py       -0.0000    0.0000    0.0000    0.0000   -0.6920   -0.0000   -0.0000   -0.0000    1.0696    0.0000
   21 O2     3py       -0.0000    0.0000    0.0000    0.0000   -1.3131   -0.0000   -0.0000   -0.0000    1.2853    0.0000
   22 O2     2pz        0.0000   -0.0000    0.0000   -0.6325    0.0000   -0.0000   -0.0000   -0.0931   -0.0000    0.0000
   23 O2     3pz        0.0000    0.0000    0.0000   -1.5471    0.0000   -0.0000   -0.0000    0.1738    0.0000    0.0000
   24 O2     3d2-       0.0000    0.0000    0.0000   -0.0000    0.1558    0.0000   -0.0000   -0.0000    0.0012    0.0000
   25 O2     3d1-       0.0620   -0.0000   -0.0000    0.0000   -0.0000    0.0000    0.5949   -0.0000   -0.0000    0.0000
   26 O2     3d0        0.0000    0.0014    0.1372    0.0000   -0.0000    0.4177   -0.0000    0.0000   -0.0000    0.1948
   27 O2     3d1+      -0.0000   -0.0000   -0.0000    0.0545   -0.0000    0.0000    0.0000    0.6076    0.0000   -0.0000
   28 O2     3d2+       0.0000    0.0276    0.0676    0.0000   -0.0000   -0.4047    0.0000    0.0000   -0.0000    0.3391
   29 O3     1s         0.0000    0.0077   -0.0540   -0.0000   -0.0837   -0.0213    0.0000   -0.0000    0.1514   -0.0707
   30 O3     2s        -0.0000    0.0343   -0.2940   -0.0000   -0.4515   -0.1527    0.0000   -0.0000    1.1051   -0.5407
   31 O3     3s         0.0000    0.4510    0.1735    0.0000   -0.0851   -0.1420    0.0000   -0.0000    1.3578   -0.6870
   32 O3     2px       -0.0000    0.1297   -0.3040   -0.0000    0.2961    0.1590   -0.0000   -0.0000   -0.3553    0.1011
   33 O3     3px       -0.0000    0.3903   -0.6164    0.0000    0.5317    0.0655   -0.0000    0.0000   -0.3689    0.2463
   34 O3     2py       -0.0000    0.0330   -0.0801   -0.0000    0.2429   -0.0382    0.0000   -0.0000    0.3339   -0.3439
   35 O3     3py        0.0000   -0.3122   -0.0513    0.0000    0.7011   -0.0756    0.0000    0.0000    0.2533   -0.3695
   36 O3     2pz        0.1155   -0.0000   -0.0000    0.4301   -0.0000    0.0000    0.1622   -0.1166    0.0000   -0.0000
   37 O3     3pz        0.8643   -0.0000   -0.0000    0.8299   -0.0000   -0.0000   -0.0095   -0.0758   -0.0000    0.0000
   38 O3     3d2-       0.0000    0.0453    0.0793    0.0000    0.0463   -0.3186    0.0000    0.0000    0.0739    0.0605
   39 O3     3d1-      -0.0332   -0.0000   -0.0000    0.0225   -0.0000   -0.0000   -0.2837    0.4150   -0.0000   -0.0000
   40 O3     3d0       -0.0000    0.0070    0.0857    0.0000    0.0742    0.2829   -0.0000   -0.0000    0.1839    0.1846
   41 O3     3d1+       0.0016   -0.0000   -0.0000    0.0310   -0.0000    0.0000    0.3502    0.1946   -0.0000    0.0000
   42 O3     3d2+       0.0000    0.0062    0.0275    0.0000    0.1279    0.1558   -0.0000   -0.0000   -0.0730   -0.3014
 
 
      Orbital               31        32        33        34        35        36        37        38        39        40
      Energy            2.1184    2.1814    2.2465    2.2656    2.5026    2.7174    2.8401    3.0601    3.0800    3.3831
      Occ. No.          0.0000    0.0000    0.0000    0.0000    0.0000    0.0000    0.0000    0.0000    0.0000    0.0000
 
    1 O1     1s        -0.0947   -0.0000   -0.0000    0.1169    0.1292    0.0785    0.0270   -0.1411   -0.0000    0.0000
    2 O1     2s        -0.6305   -0.0000   -0.0000    0.8016    0.7779    0.4143    0.3360   -0.9895    0.0000    0.0000
    3 O1     3s        -0.4911   -0.0000   -0.0000    0.6086    0.3419    0.0423    0.5306   -0.6568    0.0000    0.0000
    4 O1     2px        0.1839   -0.0000    0.0000   -0.1437   -0.3300    0.0406   -0.2242    0.1035    0.0000    0.0000
    5 O1     3px        0.1349    0.0000   -0.0000    0.0251   -0.3507    0.2306   -0.2686   -0.0420    0.0000   -0.0000
    6 O1     2py        0.1877    0.0000    0.0000   -0.4301   -0.1060   -0.1210   -0.2435    0.7020   -0.0000   -0.0000
    7 O1     3py       -0.0466    0.0000    0.0000   -0.2866    0.3647    0.1344   -0.3406    0.4269   -0.0000   -0.0000
    8 O1     2pz        0.0000   -0.0034   -0.0627   -0.0000    0.0000   -0.0000   -0.0000   -0.0000   -0.3640   -0.3004
    9 O1     3pz        0.0000   -0.0859   -0.1666   -0.0000    0.0000   -0.0000   -0.0000   -0.0000   -0.3929   -0.2232
   10 O1     3d2-       0.2349    0.0000   -0.0000    0.0936    0.4222   -0.4843    0.6101   -0.1134   -0.0000    0.0000
   11 O1     3d1-      -0.0000    0.5035    0.0383    0.0000   -0.0000   -0.0000    0.0000    0.0000    0.6824    0.5305
   12 O1     3d0        0.5255   -0.0000   -0.0000    0.4917    0.2560    0.0733   -0.3865    0.3785   -0.0000   -0.0000
   13 O1     3d1+      -0.0000   -0.5124    0.6850    0.0000    0.0000    0.0000    0.0000    0.0000    0.1870    0.4141
   14 O1     3d2+      -0.3207    0.0000    0.0000   -0.2698    0.4635    0.2339   -0.0280    0.6242   -0.0000   -0.0000
   15 O2     1s        -0.0000    0.0000    0.0000   -0.1688    0.0000    0.0686   -0.0000    0.3004    0.0000   -0.0000
   16 O2     2s        -0.0000    0.0000    0.0000   -1.3203    0.0000    0.1648   -0.0000    2.0666   -0.0000   -0.0000
   17 O2     3s        -0.0000    0.0000    0.0000   -1.3724    0.0000   -0.5250   -0.0000    1.2945   -0.0000   -0.0000
   18 O2     2px       -0.0000    0.0000    0.0000   -0.6233    0.0000   -0.2329   -0.0000    1.0715   -0.0000   -0.0000
   19 O2     3px       -0.0000    0.0000    0.0000   -0.5746    0.0000   -0.5615   -0.0000    0.6668   -0.0000   -0.0000
   20 O2     2py        0.6743    0.0000    0.0000   -0.0000   -1.0396    0.0000   -0.7053    0.0000    0.0000   -0.0000
   21 O2     3py        0.7579    0.0000    0.0000   -0.0000   -1.1469   -0.0000    0.0441    0.0000    0.0000   -0.0000
   22 O2     2pz       -0.0000   -0.0000    0.3366    0.0000    0.0000    0.0000    0.0000    0.0000    0.7307   -0.0000
   23 O2     3pz       -0.0000   -0.0000    0.2477    0.0000    0.0000   -0.0000    0.0000    0.0000    0.7294   -0.0000
   24 O2     3d2-       0.2657    0.0000    0.0000   -0.0000   -0.4406   -0.0000    0.3834    0.0000    0.0000   -0.0000
   25 O2     3d1-       0.0000   -0.0963    0.0000   -0.0000   -0.0000   -0.0000    0.0000    0.0000    0.0000    1.0324
   26 O2     3d0       -0.0000    0.0000    0.0000   -0.1613   -0.0000    0.6840    0.0000   -0.6310    0.0000    0.0000
   27 O2     3d1+       0.0000    0.0000   -0.3655   -0.0000   -0.0000   -0.0000    0.0000    0.0000    0.8419   -0.0000
   28 O2     3d2+       0.0000    0.0000   -0.0000    0.1978    0.0000    0.1233    0.0000    0.3845   -0.0000   -0.0000
   29 O3     1s         0.0947    0.0000   -0.0000    0.1169   -0.1292    0.0785   -0.0270   -0.1411   -0.0000   -0.0000
   30 O3     2s         0.6305   -0.0000   -0.0000    0.8016   -0.7779    0.4143   -0.3360   -0.9895    0.0000   -0.0000
   31 O3     3s         0.4911    0.0000   -0.0000    0.6086   -0.3419    0.0423   -0.5306   -0.6568    0.0000   -0.0000
   32 O3     2px       -0.1839    0.0000    0.0000   -0.1437    0.3300    0.0406    0.2242    0.1035   -0.0000    0.0000
   33 O3     3px       -0.1349   -0.0000   -0.0000    0.0251    0.3507    0.2306    0.2686   -0.0420    0.0000    0.0000
   34 O3     2py        0.1877    0.0000   -0.0000    0.4301   -0.1060    0.1210   -0.2435   -0.7020    0.0000   -0.0000
   35 O3     3py       -0.0466    0.0000   -0.0000    0.2866    0.3647   -0.1344   -0.3406   -0.4269    0.0000   -0.0000
   36 O3     2pz        0.0000    0.0034   -0.0627   -0.0000   -0.0000   -0.0000   -0.0000   -0.0000   -0.3640    0.3004
   37 O3     3pz       -0.0000    0.0859   -0.1666   -0.0000   -0.0000   -0.0000   -0.0000   -0.0000   -0.3929    0.2232
   38 O3     3d2-       0.2349    0.0000    0.0000   -0.0936    0.4222    0.4843    0.6101    0.1134   -0.0000    0.0000
   39 O3     3d1-      -0.0000    0.5035   -0.0383    0.0000   -0.0000    0.0000   -0.0000   -0.0000   -0.6824    0.5305
   40 O3     3d0       -0.5255   -0.0000   -0.0000    0.4917   -0.2560    0.0733    0.3865    0.3785   -0.0000    0.0000
   41 O3     3d1+      -0.0000    0.5124    0.6850    0.0000    0.0000    0.0000    0.0000    0.0000    0.1870   -0.4141
   42 O3     3d2+       0.3207    0.0000    0.0000   -0.2698   -0.4635    0.2339    0.0280    0.6242   -0.0000    0.0000
 
 
      Orbital               41        42
      Energy            3.4230    3.8764
      Occ. No.          0.0000    0.0000
 
    1 O1     1s        -0.1359    0.1353
    2 O1     2s        -0.9130    0.9293
    3 O1     3s        -0.5139    0.5247
    4 O1     2px        0.1600   -0.6058
    5 O1     3px        0.0117   -0.3116
    6 O1     2py        0.5847   -0.5077
    7 O1     3py        0.1821   -0.2377
    8 O1     2pz       -0.0000    0.0000
    9 O1     3pz       -0.0000   -0.0000
   10 O1     3d2-      -0.2121    0.6314
   11 O1     3d1-       0.0000    0.0000
   12 O1     3d0        0.1886   -0.2927
   13 O1     3d1+       0.0000    0.0000
   14 O1     3d2+       0.5833    0.2092
   15 O2     1s        -0.0000   -0.2869
   16 O2     2s        -0.0000   -1.9749
   17 O2     3s        -0.0000   -1.1907
   18 O2     2px       -0.0000   -0.2053
   19 O2     3px       -0.0000    0.1415
   20 O2     2py        0.9088    0.0000
   21 O2     3py        0.3832    0.0000
   22 O2     2pz       -0.0000   -0.0000
   23 O2     3pz       -0.0000    0.0000
   24 O2     3d2-       1.1216    0.0000
   25 O2     3d1-       0.0000   -0.0000
   26 O2     3d0        0.0000    0.4584
   27 O2     3d1+      -0.0000    0.0000
   28 O2     3d2+      -0.0000    1.0780
   29 O3     1s         0.1359    0.1353
   30 O3     2s         0.9130    0.9293
   31 O3     3s         0.5139    0.5247
   32 O3     2px       -0.1600   -0.6058
   33 O3     3px       -0.0117   -0.3116
   34 O3     2py        0.5847    0.5077
   35 O3     3py        0.1821    0.2377
   36 O3     2pz        0.0000   -0.0000
   37 O3     3pz        0.0000   -0.0000
   38 O3     3d2-      -0.2121   -0.6314
   39 O3     3d1-       0.0000   -0.0000
   40 O3     3d0       -0.1886   -0.2927
   41 O3     3d1+      -0.0000    0.0000
   42 O3     3d2+      -0.5833    0.2092
--
 
      Von Neumann Entropy (Root  1) =  0.71088
 

      Mulliken population analysis for root number:  1
      -----------------------------------------------
 
 
++    Molecular charges:
      ------------------
 
      Mulliken charges per centre and basis function type
      ---------------------------------------------------
 
                O1      O2      O3    
      1s       2.0003  2.0003  2.0003
      2s       1.9197  1.7663  1.9197
      2px      1.7859  1.5150  1.7859
      2pz      1.1755  1.6223  1.1755
      2py      1.1639  0.9306  1.1639
      3s      -0.0059 -0.0170 -0.0059
      3px     -0.0171 -0.0331 -0.0171
      3pz     -0.0110 -0.0103 -0.0110
      3py     -0.0019  0.0044 -0.0019
      3d2+     0.0115  0.0331  0.0115
      3d1+     0.0034  0.0059  0.0034
      3d0      0.0055  0.0093  0.0055
      3d1-     0.0114  0.0236  0.0114
      3d2-     0.0143  0.0388  0.0143
      Total    8.0554  7.8892  8.0554
 
      N-E     -0.0554  0.1108 -0.0554
 
      Total electronic charge=   24.000000
 
      Total            charge=   -0.000000
--
 
 

      Expectation values of various properties for root number:  1
      -----------------------------------------------------------
 
 
++    Molecular properties:
      ---------------------
 
      Charge (e):
                      =   -0.0000
      Dipole Moment (Debye):
      Origin of the operator (Ang)=    0.0000    0.0000    0.0000
                   X= -1.2058E-01               Y= -1.7559E-11               Z=  2.0685E-13           Total=  1.2058E-01
      Quadrupole Moment (Debye*Ang):
      Origin of the operator (Ang)=    0.4147    0.0000    0.0000
                  XX= -1.6354E+01              XY= -8.1869E-12              XZ= -8.1989E-13              YY= -1.6653E+01
                  YZ= -4.8878E-13              ZZ= -1.4608E+01
      In traceless form (Debye*Ang)
                  XX= -7.2319E-01              XY= -1.2280E-11              XZ= -1.2298E-12              YY= -1.1728E+00
                  YZ= -7.3317E-13              ZZ=  1.8960E+00
--
 

      LoProp population analysis for root number:  1
      -----------------------------------------------
 
 
++    LoProp analysis:
      ----------------
 
 
 
  Input file to MOLDEN was generated!
 
 
++    Static properties:
      ------------------
 
 
      LoProp Charges per center
 

                   O1       O2       O3    
      Nuclear      8.0000   8.0000   8.0000
      Electronic  -8.0840  -7.8320  -8.0840
 
      Total       -0.0840   0.1680  -0.0840
--
 
 
      Natural Bond Order analysis for root number:  1
 
++    Natural Bond Order analysis
      ---------------------------
      Based on LoProp computed density
      -------------------------------------------------------------------------------------
      Atom A       Atom B       Bond Order | Atom A       Atom B       Bond Order
        O1           O2             1.967  |   O2           O3             1.967
      -------------------------------------------------------------------------------------
      NBO located     12.000 core electrons.
      NBO located      3.958 lone pair electrons.
      NBO located      7.870 electrons involved in    2 bonds.
      The remaining    0.173 electrons are to be considered as diffuse
--
 
--
 
 
  Input file to MOLDEN was generated!
 
      Average orbitals are written to the RASORB file
      Natural orbitals for root   1 are written to the RASORB.1 file
      Spin density orbitals for root   1 are written to the SPDORB.1 file
 
forrtl: warning (525): IEEE_DIVIDE_BY_ZERO is signaling
forrtl: warning (526): IEEE_INVALID is signaling
forrtl: warning (528): IEEE_UNDERFLOW is signaling
--- Stop Module: rasscf at Fri Jan 24 15:14:37 2025 /rc=_RC_ALL_IS_WELL_ ---
*** files: ozone_121.75.LprOrb ozone_121.75.rasscf.molden ozone_121.75.LoProp.molden ozone_121.75.RasOrb ozone_121.75.RasOrb.1 ozone_121.75.rasscf.h5 ozone_121.75.SpdOrb.1 xmldump
    saved to directory /home/grierjones/DDCASPT2/ozone/ANO-RCC-VDZP/ozone_121.75

>>> COPY /tmp/ozone_121.75/ozone_121.75.rasscf.h5 /home/grierjones/DDCASPT2/ozone/ANO-RCC-VDZP/ozone_121.75/

>>> COPY /tmp/ozone_121.75/GMJ_Fock_MO.csv /home/grierjones/DDCASPT2/ozone/ANO-RCC-VDZP/ozone_121.75/ozone_121.75.GMJ_Fock_MO.csv

>>> COPY /tmp/ozone_121.75/GMJ_PT2_Fock_MO.csv /home/grierjones/DDCASPT2/ozone/ANO-RCC-VDZP/ozone_121.75/ozone_121.75.GMJ_PT2_Fock_MO.csv

*** symbolic link created: INPORB -> ozone_121.75.RasOrb
--- Start Module: motra at Fri Jan 24 15:14:37 2025 ---
 
()()()()()()()()()()()()()()()()()()()()()()()()()()()()()()()()()()()()()()()()()()()()()()()()()()

                                               &MOTRA

                                   only a single process is used
                       available to each process: 2.0 GB of memory, 1 thread?
()()()()()()()()()()()()()()()()()()()()()()()()()()()()()()()()()()()()()()()()()()()()()()()()()()
 
 
      *** WARNING: Default frozen orbitals is overwritten by user input.
      *** Default values:   3
 
      Header of the integral files:
      
       Integrals generated by seward 4.2.0  , Fri Jan 24 15:14:35 2025
 
 
      Header of MO coefficients source file:
      * RASSCF average (pseudo-natural) orbitals                                      
 
 
      Cartesian coordinates in Angstrom:
      -----------------------------------------------------
      No.  Label        X            Y            Z        
      -----------------------------------------------------
       1   O1         0.62202400   1.11641000   0.00000000
       2   O2         0.00000000   0.00000000   0.00000000
       3   O3         0.62202400  -1.11641000   0.00000000
      -----------------------------------------------------
      Nuclear repulsion energy =   68.16848346
 
      Orbital specifications:
      -----------------------
 
      Symmetry species:              1
      Number of basis functions:    42
      Frozen orbitals:               0
      Deleted orbitals:              0
      Number of orbitals used:      42

       SYMMETRY  BASIS FUNCTIONS       ORBITALS      INTEGRALS   CPU(SEC)  I/O(SEC)
 
        1 1 1 1   42  42  42  42    42  42  42  42      408156       0.00      0.00

       TOTAL CPU TIME(SEC)    0.40TOTAL I/O TIME(SEC)    0.79
 
--- Stop Module: motra at Fri Jan 24 15:14:38 2025 /rc=_RC_ALL_IS_WELL_ ---
*** files: xmldump
    saved to directory /home/grierjones/DDCASPT2/ozone/ANO-RCC-VDZP/ozone_121.75

>>> COPY /tmp/ozone_121.75/GMJ_one_int_indx.csv /home/grierjones/DDCASPT2/ozone/ANO-RCC-VDZP/ozone_121.75/ozone_121.75.GMJ_one_int_indx.csv

>>> COPY /tmp/ozone_121.75/GMJ_one_int.csv /home/grierjones/DDCASPT2/ozone/ANO-RCC-VDZP/ozone_121.75/ozone_121.75.GMJ_one_int.csv

>>> COPY /tmp/ozone_121.75/GMJ_two_int_indx.csv /home/grierjones/DDCASPT2/ozone/ANO-RCC-VDZP/ozone_121.75/ozone_121.75.GMJ_two_int_indx.csv

>>> COPY /tmp/ozone_121.75/GMJ_two_int.csv /home/grierjones/DDCASPT2/ozone/ANO-RCC-VDZP/ozone_121.75/ozone_121.75.GMJ_two_int.csv

*** symbolic link created: INPORB -> ozone_121.75.RasOrb
--- Start Module: caspt2 at Fri Jan 24 15:14:38 2025 ---
 
()()()()()()()()()()()()()()()()()()()()()()()()()()()()()()()()()()()()()()()()()()()()()()()()()()

                                              &CASPT2

                                   only a single process is used
                       available to each process: 2.0 GB of memory, 1 thread?
()()()()()()()()()()()()()()()()()()()()()()()()()()()()()()()()()()()()()()()()()()()()()()()()()()
 
 Cholesky algorithm in CASPT2 =    1
 
 ###############################################################################
 ###############################################################################
 ###                                                                         ###
 ###                                                                         ###
 ###    User changed nr of frozen orbitals.                                  ###
 ###                                                                         ###
 ###                                                                         ###
 ###############################################################################
 ###############################################################################
 
++    Wave function specifications:
      -----------------------------
 
      Number of closed shell electrons          20
      Number of electrons in active shells       4
      Max number of holes in RAS1 space          0
      Max number of electrons in RAS3 space      0
      Number of inactive orbitals               10
      Number of active orbitals                  3
      Number of secondary orbitals              29
      Spin quantum number                      0.0
      State symmetry                             1
      Number of CSFs                             6
      Number of root(s) available                1
      Root passed to geometry opt.               1
      A file JOBMIX will be created.
      This is a CASSCF or RASSCF reference function
--
 
++    Orbital specifications:
      -----------------------
 
      Symmetry species                           1
                                                 a
      Frozen orbitals                            0
      Inactive orbitals                         10
      Active orbitals                            3
      Secondary orbitals                        29
      Deleted orbitals                           0
      Number of basis functions                 42
--
 
      Type of Fock operator: STANDARD
      Type of 0-order Hamiltonian: STANDARD WITH DEFAULT IPEA
        "IP-EA" denominator shift =      0.25
      The input orbitals and the CI vector will be transformed.
 
--------------------------------------------------------------------------------
 Estimated memory requirements:
  POLY3 :                   250202
  RHS:                      279634
  SIGMA :                   302200
  PRPCTL:                        0
 Available workspace:    230396563
 
++ CASPT2 computation for group   1
 
********************************************************************************
 Multi-State initialization phase begins for group   1
--------------------------------------------------------------------------------
********************************************************************************
 Compute H0 matrices for state    1
--------------------------------------------------------------------------------
--------------------------------------------------------------------------------
 H0 matrices have been computed.
 
********************************************************************************
  CASPT2 EQUATION SOLUTION
--------------------------------------------------------------------------------
 
  Total nr of CASPT2 parameters:
   Before reduction:       86691
   After  reduction:       82880
 
 The contributions to the second order correlation energy in atomic units.
-----------------------------------------------------------------------------------------------------------------------------
  IT.      VJTU        VJTI        ATVX        AIVX        VJAI        BVAT        BJAT        BJAI        TOTAL       RNORM  
-----------------------------------------------------------------------------------------------------------------------------
   1    -0.000000   -0.001165   -0.011931   -0.090240   -0.017424   -0.016741   -0.125406   -0.271711   -0.534618    0.002144
   2    -0.000000   -0.001181   -0.011975   -0.090543   -0.017440   -0.016746   -0.125443   -0.271713   -0.535042    0.000167
   3    -0.000000   -0.001181   -0.011976   -0.090548   -0.017440   -0.016746   -0.125444   -0.271714   -0.535049    0.000021
   4    -0.000000   -0.001181   -0.011975   -0.090546   -0.017440   -0.016746   -0.125444   -0.271714   -0.535047    0.000003
-------------------------------------------------------------------------------------------------------------------
 
  FINAL CASPT2 RESULT:
 
  Correlation energy /Case, /Symm, and sums:
 VJTU     -0.00000000 -0.00000000
 VJTIP    -0.00118141 -0.00118141
 VJTIM     0.00000000  0.00000000
 ATVX     -0.01197534 -0.01197534
 AIVX     -0.09054584 -0.09054584
 VJAIP    -0.01218240 -0.01218240
 VJAIM    -0.00525784 -0.00525784
 BVATP    -0.01575907 -0.01575907
 BVATM    -0.00098709 -0.00098709
 BJATP    -0.04619246 -0.04619246
 BJATM    -0.07925139 -0.07925139
 BJAIP    -0.18272236 -0.18272236
 BJAIM    -0.08899122 -0.08899122
 Summed:  -0.53504642 -0.53504642
 
      Reference energy:        -224.5862795871
      E2 (Non-variational):      -0.5350464163
      E2 (Variational):          -0.5350464403
      Total energy:            -225.1213260274
      Residual norm:              0.0000002498
      Reference weight:           0.85757
 
      Contributions to the CASPT2 correlation energy
      Active & Virtual Only:         -0.0287214975
      One Inactive Excited:          -0.2159896917
      Two Inactive Excited:          -0.2903352270
 
 
++ Denominators, etc.
----------------------------------------------------------------------------------------------------
 Report on small energy denominators, large coefficients, and large energy contributions.
CASE  SYMM ACTIVE-MIX  NON-ACTIVE INDICES          DENOMINATOR     RHS VALUE       COEFFICIENT     CONTRIBUTION
ATVX     1  Mu1.0007  Se1.016                       1.88315373     -0.04927517      0.02683239     -0.00132217
ATVX     1  Mu1.0005  Se1.021                       1.81447332     -0.09185211      0.04966956     -0.00456225
AIVX     1  Mu1.0003  In1.005 Se1.014               2.03660818     -0.05721717      0.02775197     -0.00158789
AIVX     1  Mu1.0004  In1.007 Se1.014               1.64989839      0.06269352     -0.03853437     -0.00241586
AIVX     1  Mu1.0002  In1.008 Se1.014               1.31411839      0.05412666     -0.04074740     -0.00220552
AIVX     1  Mu1.0002  In1.009 Se1.014               1.10157058     -0.04577148      0.04074003     -0.00186473
AIVX     1  Mu1.0003  In1.009 Se1.014               1.18562790     -0.03211500      0.02672908     -0.00085840
AIVX     1  Mu1.0004  In1.008 Se1.015               1.66857591      0.04535614     -0.02769199     -0.00125600
AIVX     1  Mu1.0002  In1.010 Se1.015               1.08868749     -0.03555333      0.03219223     -0.00114454
AIVX     1  Mu1.0004  In1.007 Se1.017               1.85746542     -0.05354363      0.02928604     -0.00156808
AIVX     1  Mu1.0002  In1.008 Se1.017               1.52168542     -0.05359500      0.03440550     -0.00184396
AIVX     1  Mu1.0004  In1.010 Se1.017               1.59228561      0.05625075     -0.03548007     -0.00199578
AIVX     1  Mu1.0002  In1.007 Se1.018               1.62835206     -0.04185483      0.02510062     -0.00105058
AIVX     1  Mu1.0004  In1.008 Se1.018               1.94306066     -0.11203018      0.05821855     -0.00652224
AIVX     1  Mu1.0006  In1.008 Se1.018               2.11160115     -0.06760809      0.03223468     -0.00217933
AIVX     1  Mu1.0002  In1.010 Se1.018               1.36317225      0.03943866     -0.02856515     -0.00112657
AIVX     1  Mu1.0002  In1.009 Se1.019               1.45690940     -0.07152661      0.04764117     -0.00340761
AIVX     1  Mu1.0003  In1.009 Se1.019               1.54096672     -0.05004168      0.03158238     -0.00158044
AIVX     1  Mu1.0002  In1.010 Se1.020               1.49119303     -0.06451257      0.04197129     -0.00270768
AIVX     1  Mu1.0003  In1.010 Se1.020               1.57525035     -0.04272511      0.02623976     -0.00112110
BJAIP    1  Se1.018 In1.008 Se1.018 In1.008         2.70002555      0.10313742     -0.03819866     -0.00393971
BJAIP    1  Se1.019 In1.009 Se1.019 In1.009         2.37821164      0.06138152     -0.02580995     -0.00158425
BJAIP    1  Se1.017 In1.008 Se1.018 In1.010         2.34925050     -0.06475543      0.02756428     -0.00178494
BJAIP    1  Se1.019 In1.009 Se1.020 In1.010         2.41249526      0.06147395     -0.02548148     -0.00156645
--
 
   (Skipping property calculation,
    use PROP keyword to activate)
--
 
  Total CASPT2 energies:
::    CASPT2 Root  1     Total energy:   -225.12132603
 
  A NEW JOBIPH FILE NAMED 'JOBMIX' IS PREPARED.
********************************************************************************
forrtl: warning (528): IEEE_UNDERFLOW is signaling
--- Stop Module: caspt2 at Fri Jan 24 15:14:38 2025 /rc=_RC_ALL_IS_WELL_ ---
*** files: xmldump
    saved to directory /home/grierjones/DDCASPT2/ozone/ANO-RCC-VDZP/ozone_121.75

>>> EXPORT i = B

>>> EXPORT j = P

>>> IF (-FILE GMJ_e2_${i}_${j}.csv)

>>> COPY /tmp/ozone_121.75/GMJ_RHS_B_P.csv /home/grierjones/DDCASPT2/ozone/ANO-RCC-VDZP/ozone_121.75/GMJ_RHS_B_P.csv

>>> COPY /tmp/ozone_121.75/GMJ_IVECW_B_P.csv /home/grierjones/DDCASPT2/ozone/ANO-RCC-VDZP/ozone_121.75/GMJ_IVECW_B_P.csv

>>> COPY /tmp/ozone_121.75/GMJ_IVECX_B_P.csv /home/grierjones/DDCASPT2/ozone/ANO-RCC-VDZP/ozone_121.75/GMJ_IVECX_B_P.csv

>>> COPY /tmp/ozone_121.75/GMJ_IVECC2_B_P.csv /home/grierjones/DDCASPT2/ozone/ANO-RCC-VDZP/ozone_121.75/GMJ_IVECC2_B_P.csv

>>> COPY /tmp/ozone_121.75/GMJ_e2_B_P.csv /home/grierjones/DDCASPT2/ozone/ANO-RCC-VDZP/ozone_121.75/GMJ_e2_B_P.csv

>>> END FOREACH

>>> EXPORT j = M

>>> IF (-FILE GMJ_e2_${i}_${j}.csv)
(Skipped)

>>> END FOREACH

>>> END FOREACH

>>> EXPORT i = E

>>> EXPORT j = P

>>> IF (-FILE GMJ_e2_${i}_${j}.csv)

>>> COPY /tmp/ozone_121.75/GMJ_RHS_E_P.csv /home/grierjones/DDCASPT2/ozone/ANO-RCC-VDZP/ozone_121.75/GMJ_RHS_E_P.csv

>>> COPY /tmp/ozone_121.75/GMJ_IVECW_E_P.csv /home/grierjones/DDCASPT2/ozone/ANO-RCC-VDZP/ozone_121.75/GMJ_IVECW_E_P.csv

>>> COPY /tmp/ozone_121.75/GMJ_IVECX_E_P.csv /home/grierjones/DDCASPT2/ozone/ANO-RCC-VDZP/ozone_121.75/GMJ_IVECX_E_P.csv

>>> COPY /tmp/ozone_121.75/GMJ_IVECC2_E_P.csv /home/grierjones/DDCASPT2/ozone/ANO-RCC-VDZP/ozone_121.75/GMJ_IVECC2_E_P.csv

>>> COPY /tmp/ozone_121.75/GMJ_e2_E_P.csv /home/grierjones/DDCASPT2/ozone/ANO-RCC-VDZP/ozone_121.75/GMJ_e2_E_P.csv

>>> END FOREACH

>>> EXPORT j = M

>>> IF (-FILE GMJ_e2_${i}_${j}.csv)

>>> COPY /tmp/ozone_121.75/GMJ_RHS_E_M.csv /home/grierjones/DDCASPT2/ozone/ANO-RCC-VDZP/ozone_121.75/GMJ_RHS_E_M.csv

>>> COPY /tmp/ozone_121.75/GMJ_IVECW_E_M.csv /home/grierjones/DDCASPT2/ozone/ANO-RCC-VDZP/ozone_121.75/GMJ_IVECW_E_M.csv

>>> COPY /tmp/ozone_121.75/GMJ_IVECX_E_M.csv /home/grierjones/DDCASPT2/ozone/ANO-RCC-VDZP/ozone_121.75/GMJ_IVECX_E_M.csv

>>> COPY /tmp/ozone_121.75/GMJ_IVECC2_E_M.csv /home/grierjones/DDCASPT2/ozone/ANO-RCC-VDZP/ozone_121.75/GMJ_IVECC2_E_M.csv

>>> COPY /tmp/ozone_121.75/GMJ_e2_E_M.csv /home/grierjones/DDCASPT2/ozone/ANO-RCC-VDZP/ozone_121.75/GMJ_e2_E_M.csv

>>> END FOREACH

>>> END FOREACH

>>> EXPORT i = F

>>> EXPORT j = P

>>> IF (-FILE GMJ_e2_${i}_${j}.csv)

>>> COPY /tmp/ozone_121.75/GMJ_RHS_F_P.csv /home/grierjones/DDCASPT2/ozone/ANO-RCC-VDZP/ozone_121.75/GMJ_RHS_F_P.csv

>>> COPY /tmp/ozone_121.75/GMJ_IVECW_F_P.csv /home/grierjones/DDCASPT2/ozone/ANO-RCC-VDZP/ozone_121.75/GMJ_IVECW_F_P.csv

>>> COPY /tmp/ozone_121.75/GMJ_IVECX_F_P.csv /home/grierjones/DDCASPT2/ozone/ANO-RCC-VDZP/ozone_121.75/GMJ_IVECX_F_P.csv

>>> COPY /tmp/ozone_121.75/GMJ_IVECC2_F_P.csv /home/grierjones/DDCASPT2/ozone/ANO-RCC-VDZP/ozone_121.75/GMJ_IVECC2_F_P.csv

>>> COPY /tmp/ozone_121.75/GMJ_e2_F_P.csv /home/grierjones/DDCASPT2/ozone/ANO-RCC-VDZP/ozone_121.75/GMJ_e2_F_P.csv

>>> END FOREACH

>>> EXPORT j = M

>>> IF (-FILE GMJ_e2_${i}_${j}.csv)

>>> COPY /tmp/ozone_121.75/GMJ_RHS_F_M.csv /home/grierjones/DDCASPT2/ozone/ANO-RCC-VDZP/ozone_121.75/GMJ_RHS_F_M.csv

>>> COPY /tmp/ozone_121.75/GMJ_IVECW_F_M.csv /home/grierjones/DDCASPT2/ozone/ANO-RCC-VDZP/ozone_121.75/GMJ_IVECW_F_M.csv

>>> COPY /tmp/ozone_121.75/GMJ_IVECX_F_M.csv /home/grierjones/DDCASPT2/ozone/ANO-RCC-VDZP/ozone_121.75/GMJ_IVECX_F_M.csv

>>> COPY /tmp/ozone_121.75/GMJ_IVECC2_F_M.csv /home/grierjones/DDCASPT2/ozone/ANO-RCC-VDZP/ozone_121.75/GMJ_IVECC2_F_M.csv

>>> COPY /tmp/ozone_121.75/GMJ_e2_F_M.csv /home/grierjones/DDCASPT2/ozone/ANO-RCC-VDZP/ozone_121.75/GMJ_e2_F_M.csv

>>> END FOREACH

>>> END FOREACH

>>> EXPORT i = G

>>> EXPORT j = P

>>> IF (-FILE GMJ_e2_${i}_${j}.csv)

>>> COPY /tmp/ozone_121.75/GMJ_RHS_G_P.csv /home/grierjones/DDCASPT2/ozone/ANO-RCC-VDZP/ozone_121.75/GMJ_RHS_G_P.csv

>>> COPY /tmp/ozone_121.75/GMJ_IVECW_G_P.csv /home/grierjones/DDCASPT2/ozone/ANO-RCC-VDZP/ozone_121.75/GMJ_IVECW_G_P.csv

>>> COPY /tmp/ozone_121.75/GMJ_IVECX_G_P.csv /home/grierjones/DDCASPT2/ozone/ANO-RCC-VDZP/ozone_121.75/GMJ_IVECX_G_P.csv

>>> COPY /tmp/ozone_121.75/GMJ_IVECC2_G_P.csv /home/grierjones/DDCASPT2/ozone/ANO-RCC-VDZP/ozone_121.75/GMJ_IVECC2_G_P.csv

>>> COPY /tmp/ozone_121.75/GMJ_e2_G_P.csv /home/grierjones/DDCASPT2/ozone/ANO-RCC-VDZP/ozone_121.75/GMJ_e2_G_P.csv

>>> END FOREACH

>>> EXPORT j = M

>>> IF (-FILE GMJ_e2_${i}_${j}.csv)

>>> COPY /tmp/ozone_121.75/GMJ_RHS_G_M.csv /home/grierjones/DDCASPT2/ozone/ANO-RCC-VDZP/ozone_121.75/GMJ_RHS_G_M.csv

>>> COPY /tmp/ozone_121.75/GMJ_IVECW_G_M.csv /home/grierjones/DDCASPT2/ozone/ANO-RCC-VDZP/ozone_121.75/GMJ_IVECW_G_M.csv

>>> COPY /tmp/ozone_121.75/GMJ_IVECX_G_M.csv /home/grierjones/DDCASPT2/ozone/ANO-RCC-VDZP/ozone_121.75/GMJ_IVECX_G_M.csv

>>> COPY /tmp/ozone_121.75/GMJ_IVECC2_G_M.csv /home/grierjones/DDCASPT2/ozone/ANO-RCC-VDZP/ozone_121.75/GMJ_IVECC2_G_M.csv

>>> COPY /tmp/ozone_121.75/GMJ_e2_G_M.csv /home/grierjones/DDCASPT2/ozone/ANO-RCC-VDZP/ozone_121.75/GMJ_e2_G_M.csv

>>> END FOREACH

>>> END FOREACH

>>> EXPORT i = H

>>> EXPORT j = P

>>> IF (-FILE GMJ_e2_${i}_${j}.csv)

>>> COPY /tmp/ozone_121.75/GMJ_RHS_H_P.csv /home/grierjones/DDCASPT2/ozone/ANO-RCC-VDZP/ozone_121.75/GMJ_RHS_H_P.csv

>>> COPY /tmp/ozone_121.75/GMJ_IVECW_H_P.csv /home/grierjones/DDCASPT2/ozone/ANO-RCC-VDZP/ozone_121.75/GMJ_IVECW_H_P.csv

>>> COPY /tmp/ozone_121.75/GMJ_IVECX_H_P.csv /home/grierjones/DDCASPT2/ozone/ANO-RCC-VDZP/ozone_121.75/GMJ_IVECX_H_P.csv

>>> COPY /tmp/ozone_121.75/GMJ_IVECC2_H_P.csv /home/grierjones/DDCASPT2/ozone/ANO-RCC-VDZP/ozone_121.75/GMJ_IVECC2_H_P.csv

>>> COPY /tmp/ozone_121.75/GMJ_e2_H_P.csv /home/grierjones/DDCASPT2/ozone/ANO-RCC-VDZP/ozone_121.75/GMJ_e2_H_P.csv

>>> END FOREACH

>>> EXPORT j = M

>>> IF (-FILE GMJ_e2_${i}_${j}.csv)

>>> COPY /tmp/ozone_121.75/GMJ_RHS_H_M.csv /home/grierjones/DDCASPT2/ozone/ANO-RCC-VDZP/ozone_121.75/GMJ_RHS_H_M.csv

>>> COPY /tmp/ozone_121.75/GMJ_IVECW_H_M.csv /home/grierjones/DDCASPT2/ozone/ANO-RCC-VDZP/ozone_121.75/GMJ_IVECW_H_M.csv

>>> COPY /tmp/ozone_121.75/GMJ_IVECX_H_M.csv /home/grierjones/DDCASPT2/ozone/ANO-RCC-VDZP/ozone_121.75/GMJ_IVECX_H_M.csv

>>> COPY /tmp/ozone_121.75/GMJ_IVECC2_H_M.csv /home/grierjones/DDCASPT2/ozone/ANO-RCC-VDZP/ozone_121.75/GMJ_IVECC2_H_M.csv

>>> COPY /tmp/ozone_121.75/GMJ_e2_H_M.csv /home/grierjones/DDCASPT2/ozone/ANO-RCC-VDZP/ozone_121.75/GMJ_e2_H_M.csv

>>> END FOREACH

>>> END FOREACH

>>> EXPORT i = A

>>> IF (-FILE GMJ_e2_$i.csv)

>>> COPY /tmp/ozone_121.75/GMJ_RHS_A.csv /home/grierjones/DDCASPT2/ozone/ANO-RCC-VDZP/ozone_121.75/GMJ_RHS_A.csv

>>> COPY /tmp/ozone_121.75/GMJ_IVECW_A.csv /home/grierjones/DDCASPT2/ozone/ANO-RCC-VDZP/ozone_121.75/GMJ_IVECW_A.csv

>>> COPY /tmp/ozone_121.75/GMJ_IVECX_A.csv /home/grierjones/DDCASPT2/ozone/ANO-RCC-VDZP/ozone_121.75/GMJ_IVECX_A.csv

>>> COPY /tmp/ozone_121.75/GMJ_IVECC2_A.csv /home/grierjones/DDCASPT2/ozone/ANO-RCC-VDZP/ozone_121.75/GMJ_IVECC2_A.csv

>>> COPY /tmp/ozone_121.75/GMJ_e2_A.csv /home/grierjones/DDCASPT2/ozone/ANO-RCC-VDZP/ozone_121.75/GMJ_e2_A.csv

>>> END FOREACH

>>> EXPORT i = C

>>> IF (-FILE GMJ_e2_$i.csv)

>>> COPY /tmp/ozone_121.75/GMJ_RHS_C.csv /home/grierjones/DDCASPT2/ozone/ANO-RCC-VDZP/ozone_121.75/GMJ_RHS_C.csv

>>> COPY /tmp/ozone_121.75/GMJ_IVECW_C.csv /home/grierjones/DDCASPT2/ozone/ANO-RCC-VDZP/ozone_121.75/GMJ_IVECW_C.csv

>>> COPY /tmp/ozone_121.75/GMJ_IVECX_C.csv /home/grierjones/DDCASPT2/ozone/ANO-RCC-VDZP/ozone_121.75/GMJ_IVECX_C.csv

>>> COPY /tmp/ozone_121.75/GMJ_IVECC2_C.csv /home/grierjones/DDCASPT2/ozone/ANO-RCC-VDZP/ozone_121.75/GMJ_IVECC2_C.csv

>>> COPY /tmp/ozone_121.75/GMJ_e2_C.csv /home/grierjones/DDCASPT2/ozone/ANO-RCC-VDZP/ozone_121.75/GMJ_e2_C.csv

>>> END FOREACH

>>> EXPORT i = D

>>> IF (-FILE GMJ_e2_$i.csv)

>>> COPY /tmp/ozone_121.75/GMJ_RHS_D.csv /home/grierjones/DDCASPT2/ozone/ANO-RCC-VDZP/ozone_121.75/GMJ_RHS_D.csv

>>> COPY /tmp/ozone_121.75/GMJ_IVECW_D.csv /home/grierjones/DDCASPT2/ozone/ANO-RCC-VDZP/ozone_121.75/GMJ_IVECW_D.csv

>>> COPY /tmp/ozone_121.75/GMJ_IVECX_D.csv /home/grierjones/DDCASPT2/ozone/ANO-RCC-VDZP/ozone_121.75/GMJ_IVECX_D.csv

>>> COPY /tmp/ozone_121.75/GMJ_IVECC2_D.csv /home/grierjones/DDCASPT2/ozone/ANO-RCC-VDZP/ozone_121.75/GMJ_IVECC2_D.csv

>>> COPY /tmp/ozone_121.75/GMJ_e2_D.csv /home/grierjones/DDCASPT2/ozone/ANO-RCC-VDZP/ozone_121.75/GMJ_e2_D.csv

>>> END FOREACH

.########################.
.# Non-zero return code #.
.########################.

    Timing: Wall=3.62 User=2.58 System=0.96
********************************************
*** WorkDir at /tmp/ozone_121.75 cleaned ***
********************************************
