[Molden Format]
[N_Atoms]
                     2
[Atoms] (AU)
O1          1      8           0.00000000      0.00000000      0.00000000
O2          2      8           0.00000000      0.00000000      1.13383567
[Charge] (Mulliken)
  4.405364961712621E-013
 -4.405364961712621E-013
[GTO] (AU)
   1
   s  14
  1.053749500E+05  1.238600013E-04
  1.567924000E+04  5.120100053E-04
  3.534544700E+03  2.152910022E-03
  9.873651600E+02  8.528440089E-03
  3.159787500E+02  3.018049031E-02
  1.116542800E+02  9.099702095E-02
  4.269945100E+01  2.177936423E-01
  1.739559600E+01  3.686245738E-01
  7.438309000E+00  3.366707335E-01
  3.222862000E+00  9.657630101E-02
  1.253877000E+00  2.144520022E-03
  4.951550000E-01  1.194350012E-03
  1.916650000E-01  5.390200056E-04
  6.708300000E-02  2.103400022E-04
   s  14
  1.053749500E+05 -2.815000008E-05
  1.567924000E+04 -1.163000003E-04
  3.534544700E+03 -4.909200013E-04
  9.873651600E+02 -1.946160005E-03
  3.159787500E+02 -7.005300019E-03
  1.116542800E+02 -2.167814006E-02
  4.269945100E+01 -5.641213015E-02
  1.739559600E+01 -1.127053003E-01
  7.438309000E+00 -1.589119704E-01
  3.222862000E+00 -3.355083009E-02
  1.253877000E+00  3.531902810E-01
  4.951550000E-01  5.534199315E-01
  1.916650000E-01  2.301839106E-01
  6.708300000E-02  1.127267003E-02
   p   9
  2.000000000E+02  9.173000030E-04
  4.653336700E+01  7.377140024E-03
  1.462180900E+01  3.483515011E-02
  5.313064000E+00  1.144397004E-01
  2.102525000E+00  2.554966408E-01
  8.502230000E-01  3.722557412E-01
  3.375970000E-01  3.323314911E-01
  1.288920000E-01  1.400847905E-01
  4.511200000E-02  2.395784008E-02
 
   2
   s  14
  1.053749500E+05  1.238600013E-04
  1.567924000E+04  5.120100053E-04
  3.534544700E+03  2.152910022E-03
  9.873651600E+02  8.528440089E-03
  3.159787500E+02  3.018049031E-02
  1.116542800E+02  9.099702095E-02
  4.269945100E+01  2.177936423E-01
  1.739559600E+01  3.686245738E-01
  7.438309000E+00  3.366707335E-01
  3.222862000E+00  9.657630101E-02
  1.253877000E+00  2.144520022E-03
  4.951550000E-01  1.194350012E-03
  1.916650000E-01  5.390200056E-04
  6.708300000E-02  2.103400022E-04
   s  14
  1.053749500E+05 -2.815000008E-05
  1.567924000E+04 -1.163000003E-04
  3.534544700E+03 -4.909200013E-04
  9.873651600E+02 -1.946160005E-03
  3.159787500E+02 -7.005300019E-03
  1.116542800E+02 -2.167814006E-02
  4.269945100E+01 -5.641213015E-02
  1.739559600E+01 -1.127053003E-01
  7.438309000E+00 -1.589119704E-01
  3.222862000E+00 -3.355083009E-02
  1.253877000E+00  3.531902810E-01
  4.951550000E-01  5.534199315E-01
  1.916650000E-01  2.301839106E-01
  6.708300000E-02  1.127267003E-02
   p   9
  2.000000000E+02  9.173000030E-04
  4.653336700E+01  7.377140024E-03
  1.462180900E+01  3.483515011E-02
  5.313064000E+00  1.144397004E-01
  2.102525000E+00  2.554966408E-01
  8.502230000E-01  3.722557412E-01
  3.375970000E-01  3.323314911E-01
  1.288920000E-01  1.400847905E-01
  4.511200000E-02  2.395784008E-02
 
[MO]
Sym=     1a  
Ene=   -21.5800
Spin= Alpha
Occup=    1.00000
   1         0.70172045
   2        -0.00098752
   3         0.00000000
   4        -0.00000000
   5         0.01178488
   6         0.70172045
   7        -0.00098752
   8         0.00000000
   9         0.00000000
  10        -0.01178488
Sym=     1a  
Ene=   -21.5800
Spin= Beta
Occup=    1.00000
   1         0.70172045
   2        -0.00098752
   3         0.00000000
   4        -0.00000000
   5         0.01178488
   6         0.70172045
   7        -0.00098752
   8         0.00000000
   9         0.00000000
  10        -0.01178488
Sym=     2a  
Ene=   -21.4480
Spin= Alpha
Occup=    1.00000
   1        -0.71569629
   2        -0.02040465
   3        -0.00000000
   4        -0.00000000
   5        -0.01207388
   6         0.71569629
   7         0.02040465
   8         0.00000000
   9         0.00000000
  10        -0.01207388
Sym=     2a  
Ene=   -21.4480
Spin= Beta
Occup=    1.00000
   1        -0.71569629
   2        -0.02040465
   3        -0.00000000
   4        -0.00000000
   5        -0.01207388
   6         0.71569629
   7         0.02040465
   8         0.00000000
   9         0.00000000
  10        -0.01207388
Sym=     3a  
Ene=    -2.6193
Spin= Alpha
Occup=    1.00000
   1         0.15347278
   2        -0.33742982
   3        -0.00000000
   4        -0.00000000
   5        -0.45122167
   6         0.15347278
   7        -0.33742982
   8        -0.00000000
   9        -0.00000000
  10         0.45122167
Sym=     3a  
Ene=    -2.6193
Spin= Beta
Occup=    1.00000
   1         0.15347278
   2        -0.33742982
   3        -0.00000000
   4        -0.00000000
   5        -0.45122167
   6         0.15347278
   7        -0.33742982
   8        -0.00000000
   9        -0.00000000
  10         0.45122167
Sym=     4a  
Ene=    -1.4206
Spin= Alpha
Occup=    1.00000
   1         0.00000000
   2        -0.00000000
   3         0.29744249
   4         0.47137973
   5        -0.00000000
   6         0.00000000
   7         0.00000000
   8         0.29744249
   9         0.47137973
  10         0.00000000
Sym=     4a  
Ene=    -1.4206
Spin= Beta
Occup=    1.00000
   1         0.00000000
   2        -0.00000000
   3         0.29744249
   4         0.47137973
   5        -0.00000000
   6         0.00000000
   7         0.00000000
   8         0.29744249
   9         0.47137973
  10         0.00000000
Sym=     5a  
Ene=    -1.3781
Spin= Alpha
Occup=    1.00000
   1         0.00000000
   2         0.00000000
   3         0.47137973
   4        -0.29744249
   5        -0.00000000
   6         0.00000000
   7         0.00000000
   8         0.47137973
   9        -0.29744249
  10         0.00000000
Sym=     5a  
Ene=    -1.3781
Spin= Beta
Occup=    1.00000
   1         0.00000000
   2         0.00000000
   3         0.47137973
   4        -0.29744249
   5        -0.00000000
   6         0.00000000
   7         0.00000000
   8         0.47137973
   9        -0.29744249
  10         0.00000000
Sym=     6a  
Ene=    -1.0717
Spin= Alpha
Occup=    1.00000
   1         0.08668705
   2         0.48602960
   3        -0.00000000
   4         0.00000000
   5        -0.70081827
   6         0.08668705
   7         0.48602960
   8        -0.00000000
   9         0.00000000
  10         0.70081827
Sym=     6a  
Ene=    -1.0717
Spin= Beta
Occup=    1.00000
   1         0.08668705
   2         0.48602960
   3        -0.00000000
   4         0.00000000
   5        -0.70081827
   6         0.08668705
   7         0.48602960
   8        -0.00000000
   9         0.00000000
  10         0.70081827
Sym=     7a  
Ene=    -1.0513
Spin= Alpha
Occup=    1.00000
   1        -0.02987507
   2        -0.69242456
   3        -0.00000000
   4        -0.00000000
   5         0.33797213
   6         0.02987507
   7         0.69242456
   8        -0.00000000
   9        -0.00000000
  10         0.33797213
Sym=     7a  
Ene=    -1.0513
Spin= Beta
Occup=    1.00000
   1        -0.02987507
   2        -0.69242456
   3        -0.00000000
   4        -0.00000000
   5         0.33797213
   6         0.02987507
   7         0.69242456
   8        -0.00000000
   9        -0.00000000
  10         0.33797213
Sym=     8a  
Ene=    -0.2125
Spin= Alpha
Occup=    1.00000
   1         0.00000000
   2         0.00000000
   3        -0.60378575
   4        -0.95686518
   5        -0.00000000
   6        -0.00000000
   7         0.00000000
   8         0.60378575
   9         0.95686518
  10         0.00000000
Sym=     8a  
Ene=    -0.2125
Spin= Beta
Occup=    1.00000
   1         0.00000000
   2         0.00000000
   3        -0.60378575
   4        -0.95686518
   5        -0.00000000
   6        -0.00000000
   7         0.00000000
   8         0.60378575
   9         0.95686518
  10         0.00000000
Sym=     9a  
Ene=     0.4211
Spin= Alpha
Occup=    0.00000
   1        -0.00000000
   2        -0.00000000
   3        -0.95686518
   4         0.60378575
   5        -0.00000000
   6         0.00000000
   7         0.00000000
   8         0.95686518
   9        -0.60378575
  10        -0.00000000
Sym=     9a  
Ene=     0.4211
Spin= Beta
Occup=    0.00000
   1        -0.00000000
   2        -0.00000000
   3        -0.95686518
   4         0.60378575
   5        -0.00000000
   6         0.00000000
   7         0.00000000
   8         0.95686518
   9        -0.60378575
  10        -0.00000000
Sym=    10a  
Ene=     3.1527
Spin= Alpha
Occup=    0.00000
   1         0.97264637
   2         3.74962298
   3        -0.00000000
   4         0.00000000
   5         1.94469170
   6        -0.97264637
   7        -3.74962298
   8         0.00000000
   9        -0.00000000
  10         1.94469170
Sym=    10a  
Ene=     3.1527
Spin= Beta
Occup=    0.00000
   1         0.97264637
   2         3.74962298
   3        -0.00000000
   4         0.00000000
   5         1.94469170
   6        -0.97264637
   7        -3.74962298
   8         0.00000000
   9        -0.00000000
  10         1.94469170
