[Molden Format]
[N_Atoms]
                     2
[Atoms] (AU)
O1          1      8           0.00000000      0.00000000      0.00000000
O2          2      8           0.00000000      0.00000000      1.13383567
[Charge] (Mulliken)
  0.000000000000000E+000
  0.000000000000000E+000
[GTO] (AU)
   1
   s  14
  1.053749500E+05  1.238600013E-04
  1.567924000E+04  5.120100053E-04
  3.534544700E+03  2.152910022E-03
  9.873651600E+02  8.528440089E-03
  3.159787500E+02  3.018049031E-02
  1.116542800E+02  9.099702095E-02
  4.269945100E+01  2.177936423E-01
  1.739559600E+01  3.686245738E-01
  7.438309000E+00  3.366707335E-01
  3.222862000E+00  9.657630101E-02
  1.253877000E+00  2.144520022E-03
  4.951550000E-01  1.194350012E-03
  1.916650000E-01  5.390200056E-04
  6.708300000E-02  2.103400022E-04
   s  14
  1.053749500E+05 -2.815000008E-05
  1.567924000E+04 -1.163000003E-04
  3.534544700E+03 -4.909200013E-04
  9.873651600E+02 -1.946160005E-03
  3.159787500E+02 -7.005300019E-03
  1.116542800E+02 -2.167814006E-02
  4.269945100E+01 -5.641213015E-02
  1.739559600E+01 -1.127053003E-01
  7.438309000E+00 -1.589119704E-01
  3.222862000E+00 -3.355083009E-02
  1.253877000E+00  3.531902810E-01
  4.951550000E-01  5.534199315E-01
  1.916650000E-01  2.301839106E-01
  6.708300000E-02  1.127267003E-02
   p   9
  2.000000000E+02  9.173000030E-04
  4.653336700E+01  7.377140024E-03
  1.462180900E+01  3.483515011E-02
  5.313064000E+00  1.144397004E-01
  2.102525000E+00  2.554966408E-01
  8.502230000E-01  3.722557412E-01
  3.375970000E-01  3.323314911E-01
  1.288920000E-01  1.400847905E-01
  4.511200000E-02  2.395784008E-02
 
   2
   s  14
  1.053749500E+05  1.238600013E-04
  1.567924000E+04  5.120100053E-04
  3.534544700E+03  2.152910022E-03
  9.873651600E+02  8.528440089E-03
  3.159787500E+02  3.018049031E-02
  1.116542800E+02  9.099702095E-02
  4.269945100E+01  2.177936423E-01
  1.739559600E+01  3.686245738E-01
  7.438309000E+00  3.366707335E-01
  3.222862000E+00  9.657630101E-02
  1.253877000E+00  2.144520022E-03
  4.951550000E-01  1.194350012E-03
  1.916650000E-01  5.390200056E-04
  6.708300000E-02  2.103400022E-04
   s  14
  1.053749500E+05 -2.815000008E-05
  1.567924000E+04 -1.163000003E-04
  3.534544700E+03 -4.909200013E-04
  9.873651600E+02 -1.946160005E-03
  3.159787500E+02 -7.005300019E-03
  1.116542800E+02 -2.167814006E-02
  4.269945100E+01 -5.641213015E-02
  1.739559600E+01 -1.127053003E-01
  7.438309000E+00 -1.589119704E-01
  3.222862000E+00 -3.355083009E-02
  1.253877000E+00  3.531902810E-01
  4.951550000E-01  5.534199315E-01
  1.916650000E-01  2.301839106E-01
  6.708300000E-02  1.127267003E-02
   p   9
  2.000000000E+02  9.173000030E-04
  4.653336700E+01  7.377140024E-03
  1.462180900E+01  3.483515011E-02
  5.313064000E+00  1.144397004E-01
  2.102525000E+00  2.554966408E-01
  8.502230000E-01  3.722557412E-01
  3.375970000E-01  3.323314911E-01
  1.288920000E-01  1.400847905E-01
  4.511200000E-02  2.395784008E-02
 
[MO]
Sym=     1a  
Ene=   -20.9170
Spin= Alpha
Occup=    2.00000
   1         0.70203834
   2         0.00696360
   3        -0.00000000
   4        -0.00000000
   5         0.00485168
   6         0.70203834
   7         0.00696360
   8         0.00000000
   9         0.00000000
  10        -0.00485168
Sym=     2a  
Ene=   -20.5690
Spin= Alpha
Occup=    2.00000
   1        -0.70809581
   2         0.00625241
   3         0.00000000
   4         0.00000000
   5         0.00480812
   6         0.70809581
   7        -0.00625241
   8        -0.00000000
   9        -0.00000000
  10         0.00480812
Sym=     3a  
Ene=    -2.1803
Spin= Alpha
Occup=    2.00000
   1        -0.10562498
   2         0.51912294
   3        -0.00000000
   4         0.00000000
   5         0.09012081
   6        -0.10562498
   7         0.51912294
   8         0.00000000
   9        -0.00000000
  10        -0.09012081
Sym=     4a  
Ene=    -1.0239
Spin= Alpha
Occup=    2.00000
   1        -0.00000000
   2        -0.00000000
   3         0.55668437
   4        -0.02781003
   5         0.00000000
   6         0.00000000
   7         0.00000000
   8         0.55668437
   9        -0.02781003
  10         0.00000000
Sym=     5a  
Ene=    -1.0239
Spin= Alpha
Occup=    2.00000
   1         0.00000000
   2        -0.00000000
   3         0.02781003
   4         0.55668437
   5         0.00000000
   6        -0.00000000
   7         0.00000000
   8         0.02781003
   9         0.55668437
  10         0.00000000
Sym=     6a  
Ene=    -1.0036
Spin= Alpha
Occup=    2.00000
   1         0.03441377
   2        -0.45679254
   3        -0.00000000
   4        -0.00000000
   5         0.45881775
   6        -0.03441377
   7         0.45679254
   8        -0.00000000
   9        -0.00000000
  10         0.45881775
Sym=     7a  
Ene=    -0.4367
Spin= Alpha
Occup=    2.00000
   1         0.13951939
   2         0.28380894
   3         0.00000000
   4        -0.00000000
   5        -0.82869827
   6         0.13951939
   7         0.28380894
   8        -0.00000000
   9         0.00000000
  10         0.82869827
Sym=     8a  
Ene=    -0.2485
Spin= Alpha
Occup=    1.00000
   1         0.00000000
   2         0.00000000
   3        -0.60378575
   4        -0.95686518
   5         0.00000000
   6        -0.00000000
   7        -0.00000000
   8         0.60378575
   9         0.95686518
  10         0.00000000
Sym=     9a  
Ene=    -0.2485
Spin= Alpha
Occup=    1.00000
   1        -0.00000000
   2        -0.00000000
   3        -0.95686518
   4         0.60378575
   5        -0.00000000
   6         0.00000000
   7         0.00000000
   8         0.95686518
   9        -0.60378575
  10        -0.00000000
Sym=    10a  
Ene=    -0.0289
Spin= Alpha
Occup=    0.00000
   1         0.97804431
   2         3.78560987
   3        -0.00000000
   4         0.00000000
   5         1.91980726
   6        -0.97804431
   7        -3.78560987
   8         0.00000000
   9        -0.00000000
  10         1.91980726
