[Molden Format]
[N_Atoms]
                     2
[Atoms] (AU)
B1          1      5           0.00000000      0.00000000      0.00000000
BE2         2      4           0.00000000      0.00000000      4.53534270
[Charge] (Mulliken)
 -4.644050313186021E-002
  4.644050313183712E-002
[GTO] (AU)
   1
   s  14
  3.336021700E+04  1.039699991E-04
  4.972095200E+03  5.254399956E-04
  1.125641700E+03  2.509059979E-03
  3.164913600E+02  1.031887991E-02
  1.020072600E+02  3.636632969E-02
  3.629587300E+01  1.064607991E-01
  1.397141000E+01  2.403999880E-01
  5.741156000E+00  3.748581168E-01
  2.494268000E+00  3.100066974E-01
  1.114202000E+00  7.922455933E-02
  4.215490000E-01 -4.947589958E-03
  1.696330000E-01 -7.737119935E-03
  6.853500000E-02 -1.501079987E-03
  2.398700000E-02 -1.333299989E-04
   s  14
  3.336021700E+04 -2.030000008E-05
  4.972095200E+03 -1.025700004E-04
  1.125641700E+03 -4.911300020E-04
  3.164913600E+02 -2.026570008E-03
  1.020072600E+02 -7.261010030E-03
  3.629587300E+01 -2.197722009E-02
  1.397141000E+01 -5.408428022E-02
  5.741156000E+00 -1.022402604E-01
  2.494268000E+00 -1.423595206E-01
  1.114202000E+00 -4.658690019E-02
  4.215490000E-01  3.799402916E-01
  1.696330000E-01  5.890463624E-01
  6.853500000E-02  1.749075107E-01
  2.398700000E-02 -1.142030005E-03
   p   9
  5.500000000E+01  1.229800005E-03
  1.336610100E+01  8.827380035E-03
  4.135394000E+00  3.843340015E-02
  1.481256000E+00  1.150031805E-01
  6.021360000E-01  2.733674011E-01
  2.556360000E-01  4.061972116E-01
  1.111510000E-01  3.014967912E-01
  4.764800000E-02  7.684809030E-02
  1.667700000E-02 -8.170000032E-06
 
   2
   s  14
  2.262859900E+04  8.443999941E-05
  3.372318100E+03  4.601499968E-04
  7.603504000E+02  2.285389984E-03
  2.117404800E+02  9.648129932E-03
  6.722346800E+01  3.494469975E-02
  2.337217700E+01  1.061099893E-01
  8.721373000E+00  2.458240383E-01
  3.468091000E+00  3.862428773E-01
  1.452144000E+00  3.105526078E-01
  6.086150000E-01  6.415933955E-02
  2.576860000E-01 -2.265049984E-03
  1.041760000E-01 -5.217499963E-04
  4.242700000E-02 -8.757499938E-04
  1.484900000E-02  1.242199991E-04
   s  14
  2.262859900E+04 -1.586999994E-05
  3.372318100E+03 -8.656999968E-05
  7.603504000E+02 -4.302199984E-04
  2.117404800E+02 -1.825079993E-03
  6.722346800E+01 -6.682749976E-03
  2.337217700E+01 -2.095119992E-02
  8.721373000E+00 -5.200308981E-02
  3.468091000E+00 -9.849176964E-02
  1.452144000E+00 -1.355800695E-01
  6.086150000E-01 -6.429875976E-02
  2.576860000E-01  3.125414989E-01
  1.041760000E-01  6.270468577E-01
  4.242700000E-02  2.110231492E-01
  1.484900000E-02 -4.104669985E-03
   p   9
  3.371018400E+01  1.069960000E-03
  8.057649500E+00  6.828550001E-03
  2.836471400E+00  2.119065000E-02
  1.099965700E+00  5.843696001E-02
  4.433964000E-01  2.020920800E-01
  1.822264000E-01  4.582953101E-01
  7.572410000E-02  3.691239601E-01
  3.168540000E-02  6.611471001E-02
  1.108990000E-02  1.405160000E-03
 
[MO]
Sym=     1a  
Ene=    -7.6298
Spin= Alpha
Occup=    1.00000
   1         0.99992897
   2         0.01464553
   3         0.00000019
   4        -0.00000015
   5         0.00074567
   6        -0.00008495
   7        -0.00048239
   8        -0.00000008
   9         0.00000006
  10         0.00052645
Sym=     1a  
Ene=    -7.6298
Spin= Beta
Occup=    1.00000
   1         0.99992897
   2         0.01464553
   3         0.00000019
   4        -0.00000015
   5         0.00074567
   6        -0.00008495
   7        -0.00048239
   8        -0.00000008
   9         0.00000006
  10         0.00052645
Sym=     2a  
Ene=    -4.7263
Spin= Alpha
Occup=    1.00000
   1        -0.00002144
   2         0.00016547
   3        -0.00000001
   4        -0.00000001
   5         0.00005394
   6         0.99999238
   7         0.00216465
   8        -0.00000011
   9         0.00000012
  10        -0.00024559
Sym=     2a  
Ene=    -4.7263
Spin= Beta
Occup=    1.00000
   1        -0.00002144
   2         0.00016547
   3        -0.00000001
   4        -0.00000001
   5         0.00005394
   6         0.99999238
   7         0.00216465
   8        -0.00000011
   9         0.00000012
  10        -0.00024559
Sym=     3a  
Ene=    -0.5058
Spin= Alpha
Occup=    1.00000
   1        -0.02302051
   2         0.85283152
   3        -0.00004846
   4         0.00002908
   5         0.04870012
   6        -0.01791182
   7         0.26323528
   8        -0.00001614
   9         0.00000930
  10        -0.09489145
Sym=     3a  
Ene=    -0.5058
Spin= Beta
Occup=    1.00000
   1        -0.02302051
   2         0.85283152
   3        -0.00004846
   4         0.00002908
   5         0.04870012
   6        -0.01791182
   7         0.26323528
   8        -0.00001614
   9         0.00000930
  10        -0.09489145
Sym=     4a  
Ene=    -0.2884
Spin= Alpha
Occup=    1.00000
   1         0.01254083
   2         0.49138596
   3        -0.00000451
   4         0.00001165
   5        -0.19357212
   6         0.00154881
   7        -0.91466551
   8        -0.00001089
   9         0.00001109
  10        -0.05511424
Sym=     4a  
Ene=    -0.2884
Spin= Beta
Occup=    1.00000
   1         0.01254083
   2         0.49138596
   3        -0.00000451
   4         0.00001165
   5        -0.19357212
   6         0.00154881
   7        -0.91466551
   8        -0.00001089
   9         0.00001109
  10        -0.05511424
Sym=     5a  
Ene=     0.1177
Spin= Alpha
Occup=    0.00000
   1         0.00378912
   2         0.04573658
   3         0.34270122
   4        -0.04416317
   5        -0.13591994
   6         0.00490935
   7         0.06147166
   8        -0.83089419
   9         0.51447121
  10         0.12550597
Sym=     5a  
Ene=     0.1177
Spin= Beta
Occup=    0.00000
   1         0.00378912
   2         0.04573658
   3         0.34270122
   4        -0.04416317
   5        -0.13591994
   6         0.00490935
   7         0.06147166
   8        -0.83089419
   9         0.51447121
  10         0.12550597
Sym=     6a  
Ene=    -0.0000
Spin= Alpha
Occup=    1.00000
   1        -0.00000236
   2         0.00004286
   3         0.82946521
   4        -0.49186156
   5         0.00051679
   6        -0.00002233
   7        -0.00025213
   8         0.11951141
   9        -0.07086753
  10        -0.00015814
Sym=     6a  
Ene=    -0.0000
Spin= Beta
Occup=    0.00000
   1        -0.00000236
   2         0.00004286
   3         0.82946521
   4        -0.49186156
   5         0.00051679
   6        -0.00002233
   7        -0.00025213
   8         0.11951141
   9        -0.07086753
  10        -0.00015814
Sym=     7a  
Ene=     0.0477
Spin= Alpha
Occup=    0.00000
   1         0.02113952
   2         0.25308459
   3        -0.08758493
   4        -0.02468631
   5        -0.58918308
   6         0.02035861
   7         0.25889017
   8         0.13048003
   9        -0.16202331
  10         0.65776139
Sym=     7a  
Ene=     0.0477
Spin= Beta
Occup=    0.00000
   1         0.02113952
   2         0.25308459
   3        -0.08758493
   4        -0.02468631
   5        -0.58918308
   6         0.02035861
   7         0.25889017
   8         0.13048003
   9        -0.16202331
  10         0.65776139
Sym=     8a  
Ene=     0.0628
Spin= Alpha
Occup=    0.00000
   1         0.00180846
   2         0.02164001
   3         0.22811828
   4         0.46616078
   5        -0.04966572
   6         0.00171096
   7         0.02178850
   8         0.49273658
   9         0.57972328
  10         0.05608811
Sym=     8a  
Ene=     0.0628
Spin= Beta
Occup=    0.00000
   1         0.00180846
   2         0.02164001
   3         0.22811828
   4         0.46616078
   5        -0.04966572
   6         0.00171096
   7         0.02178850
   8         0.49273658
   9         0.57972328
  10         0.05608811
Sym=     9a  
Ene=     0.1651
Spin= Alpha
Occup=    0.00000
   1         0.00018269
   2         0.00217598
   3        -0.41475474
   4        -0.75855982
   5        -0.00416708
   6         0.00013745
   7         0.00177551
   8         0.26944323
   9         0.63650088
  10         0.00545225
Sym=     9a  
Ene=     0.1651
Spin= Beta
Occup=    0.00000
   1         0.00018269
   2         0.00217598
   3        -0.41475474
   4        -0.75855982
   5        -0.00416708
   6         0.00013745
   7         0.00177551
   8         0.26944323
   9         0.63650088
  10         0.00545225
Sym=    10a  
Ene=     0.3092
Spin= Alpha
Occup=    0.00000
   1        -0.04932258
   2        -0.56084367
   3        -0.00439770
   4         0.00031909
   5        -0.94379804
   6         0.04887962
   7         0.54749550
   8         0.01115349
   9        -0.00630278
  10        -0.95320096
Sym=    10a  
Ene=     0.3092
Spin= Beta
Occup=    0.00000
   1        -0.04932258
   2        -0.56084367
   3        -0.00439770
   4         0.00031909
   5        -0.94379804
   6         0.04887962
   7         0.54749550
   8         0.01115349
   9        -0.00630278
  10        -0.95320096
