[Molden Format]
[N_Atoms]
                     2
[Atoms] (AU)
B1          1      5           0.00000000      0.00000000      0.00000000
BE2         2      4           0.00000000      0.00000000      4.53534270
[Charge] (Mulliken)
 -9.857249500207210E-002
  9.857249500203880E-002
[GTO] (AU)
   1
   s  14
  3.336021700E+04  1.039699991E-04
  4.972095200E+03  5.254399956E-04
  1.125641700E+03  2.509059979E-03
  3.164913600E+02  1.031887991E-02
  1.020072600E+02  3.636632969E-02
  3.629587300E+01  1.064607991E-01
  1.397141000E+01  2.403999880E-01
  5.741156000E+00  3.748581168E-01
  2.494268000E+00  3.100066974E-01
  1.114202000E+00  7.922455933E-02
  4.215490000E-01 -4.947589958E-03
  1.696330000E-01 -7.737119935E-03
  6.853500000E-02 -1.501079987E-03
  2.398700000E-02 -1.333299989E-04
   s  14
  3.336021700E+04 -2.030000008E-05
  4.972095200E+03 -1.025700004E-04
  1.125641700E+03 -4.911300020E-04
  3.164913600E+02 -2.026570008E-03
  1.020072600E+02 -7.261010030E-03
  3.629587300E+01 -2.197722009E-02
  1.397141000E+01 -5.408428022E-02
  5.741156000E+00 -1.022402604E-01
  2.494268000E+00 -1.423595206E-01
  1.114202000E+00 -4.658690019E-02
  4.215490000E-01  3.799402916E-01
  1.696330000E-01  5.890463624E-01
  6.853500000E-02  1.749075107E-01
  2.398700000E-02 -1.142030005E-03
   p   9
  5.500000000E+01  1.229800005E-03
  1.336610100E+01  8.827380035E-03
  4.135394000E+00  3.843340015E-02
  1.481256000E+00  1.150031805E-01
  6.021360000E-01  2.733674011E-01
  2.556360000E-01  4.061972116E-01
  1.111510000E-01  3.014967912E-01
  4.764800000E-02  7.684809030E-02
  1.667700000E-02 -8.170000032E-06
 
   2
   s  14
  2.262859900E+04  8.443999941E-05
  3.372318100E+03  4.601499968E-04
  7.603504000E+02  2.285389984E-03
  2.117404800E+02  9.648129932E-03
  6.722346800E+01  3.494469975E-02
  2.337217700E+01  1.061099893E-01
  8.721373000E+00  2.458240383E-01
  3.468091000E+00  3.862428773E-01
  1.452144000E+00  3.105526078E-01
  6.086150000E-01  6.415933955E-02
  2.576860000E-01 -2.265049984E-03
  1.041760000E-01 -5.217499963E-04
  4.242700000E-02 -8.757499938E-04
  1.484900000E-02  1.242199991E-04
   s  14
  2.262859900E+04 -1.586999994E-05
  3.372318100E+03 -8.656999968E-05
  7.603504000E+02 -4.302199984E-04
  2.117404800E+02 -1.825079993E-03
  6.722346800E+01 -6.682749976E-03
  2.337217700E+01 -2.095119992E-02
  8.721373000E+00 -5.200308981E-02
  3.468091000E+00 -9.849176964E-02
  1.452144000E+00 -1.355800695E-01
  6.086150000E-01 -6.429875976E-02
  2.576860000E-01  3.125414989E-01
  1.041760000E-01  6.270468577E-01
  4.242700000E-02  2.110231492E-01
  1.484900000E-02 -4.104669985E-03
   p   9
  3.371018400E+01  1.069960000E-03
  8.057649500E+00  6.828550001E-03
  2.836471400E+00  2.119065000E-02
  1.099965700E+00  5.843696001E-02
  4.433964000E-01  2.020920800E-01
  1.822264000E-01  4.582953101E-01
  7.572410000E-02  3.691239601E-01
  3.168540000E-02  6.611471001E-02
  1.108990000E-02  1.405160000E-03
 
[MO]
Sym=     1a  
Ene=    -7.6263
Spin= Alpha
Occup=    1.00000
   1         0.99990098
   2         0.01665019
   3         0.00000000
   4         0.00000000
   5         0.00016417
   6        -0.00008064
   7        -0.00049223
   8         0.00000000
   9         0.00000000
  10         0.00057709
Sym=     1a  
Ene=    -7.6015
Spin= Beta
Occup=    1.00000
   1         0.99992964
   2         0.01333981
   3        -0.00000000
   4         0.00000000
   5         0.00068702
   6        -0.00005752
   7        -0.00031173
   8         0.00000000
   9         0.00000000
  10         0.00024319
Sym=     2a  
Ene=    -4.7385
Spin= Alpha
Occup=    1.00000
   1        -0.00007276
   2        -0.00004567
   3        -0.00000000
   4        -0.00000000
   5         0.00012693
   6         0.99999147
   7         0.00264972
   8        -0.00000000
   9        -0.00000000
  10        -0.00083329
Sym=     2a  
Ene=    -4.7463
Spin= Beta
Occup=    1.00000
   1         0.00000625
   2         0.00054036
   3         0.00000000
   4        -0.00000000
   5         0.00030387
   6         0.99997432
   7         0.00242467
   8        -0.00000000
   9        -0.00000000
  10         0.00063754
Sym=     3a  
Ene=    -0.5593
Spin= Alpha
Occup=    1.00000
   1        -0.02529725
   2         0.87842364
   3         0.00000000
   4         0.00000000
   5        -0.12577554
   6        -0.01101034
   7         0.20543627
   8         0.00000000
   9        -0.00000000
  10        -0.12538260
Sym=     3a  
Ene=    -0.4379
Spin= Beta
Occup=    1.00000
   1        -0.02176659
   2         0.73191663
   3         0.00000000
   4        -0.00000000
   5         0.21691029
   6        -0.02351367
   7         0.40854184
   8        -0.00000000
   9         0.00000000
  10        -0.04819838
Sym=     4a  
Ene=    -0.3253
Spin= Alpha
Occup=    1.00000
   1        -0.02338220
   2        -0.38287322
   3         0.00000000
   4         0.00000000
   5         0.49934588
   6        -0.01675056
   7         0.67591730
   8         0.00000000
   9        -0.00000000
  10        -0.27830768
Sym=     4a  
Ene=    -0.3190
Spin= Beta
Occup=    1.00000
   1         0.00751067
   2        -0.40180515
   3         0.00000000
   4         0.00000000
   5        -0.06824590
   6         0.00779921
   7         0.81721890
   8        -0.00000000
   9         0.00000000
  10         0.46725812
Sym=     5a  
Ene=    -0.2874
Spin= Alpha
Occup=    1.00000
   1         0.00000000
   2         0.00000000
   3         0.94262887
   4         0.20522155
   5        -0.00000000
   6         0.00000000
   7        -0.00000000
   8         0.13463049
   9         0.02931066
  10         0.00000000
Sym=     5a  
Ene=     0.0657
Spin= Beta
Occup=    0.00000
   1        -0.00000000
   2         0.00000000
   3        -0.07686397
   4         0.35305358
   5         0.00000000
   6         0.00000000
   7        -0.00000000
   8        -0.18433247
   9         0.84668063
  10        -0.00000000
Sym=     6a  
Ene=     0.0647
Spin= Alpha
Occup=    0.00000
   1         0.00000000
   2        -0.00000000
   3        -0.12968944
   4         0.59569286
   5        -0.00000000
   6         0.00000000
   7         0.00000000
   8        -0.14584098
   9         0.66988055
  10         0.00000000
Sym=     6a  
Ene=     0.0767
Spin= Beta
Occup=    0.00000
   1        -0.00000000
   2        -0.00000000
   3         0.25023684
   4         0.05447955
   5         0.00000000
   6        -0.00000000
   7         0.00000000
   8         0.89831906
   9         0.19557477
  10         0.00000000
Sym=     7a  
Ene=     0.0691
Spin= Alpha
Occup=    0.00000
   1        -0.00779029
   2         0.09781014
   3        -0.00000000
   4         0.00000000
   5         0.51088257
   6        -0.02229870
   7        -0.73918233
   8        -0.00000000
   9         0.00000000
  10        -0.51542512
Sym=     7a  
Ene=     0.1074
Spin= Beta
Occup=    0.00000
   1         0.02620596
   2         0.65901394
   3        -0.00000000
   4         0.00000000
   5        -0.50460329
   6         0.01016856
   7        -0.21105235
   8         0.00000000
   9         0.00000000
  10         0.63558057
Sym=     8a  
Ene=     0.1193
Spin= Alpha
Occup=    0.00000
   1         0.00000000
   2         0.00000000
   3        -0.31893591
   4        -0.06943615
   5         0.00000000
   6        -0.00000000
   7        -0.00000000
   8         0.98597360
   9         0.21465821
  10         0.00000000
Sym=     8a  
Ene=     0.1905
Spin= Beta
Occup=    0.00000
   1         0.00000000
   2        -0.00000000
   3         0.20255664
   4        -0.93038835
   5        -0.00000000
   6         0.00000000
   7         0.00000000
   8        -0.11383674
   9         0.52287782
  10         0.00000000
Sym=     9a  
Ene=     0.1680
Spin= Alpha
Occup=    0.00000
   1        -0.00000000
   2        -0.00000000
   3         0.17354513
   4        -0.79713194
   5        -0.00000000
   6         0.00000000
   7         0.00000000
   8        -0.16021133
   9         0.73588679
  10         0.00000000
Sym=     9a  
Ene=     0.2321
Spin= Beta
Occup=    0.00000
   1         0.00000000
   2         0.00000000
   3        -0.96314632
   4        -0.20968844
   5         0.00000000
   6        -0.00000000
   7        -0.00000000
   8         0.42812636
   9         0.09320821
  10         0.00000000
Sym=    10a  
Ene=     0.3062
Spin= Alpha
Occup=    0.00000
   1         0.04891909
   2         0.64968803
   3         0.00000000
   4        -0.00000000
   5         0.87893435
   6        -0.04750517
   7        -0.48112040
   8        -0.00000000
   9         0.00000000
  10         1.00666367
Sym=    10a  
Ene=     0.3330
Spin= Beta
Occup=    0.00000
   1         0.04864365
   2         0.46747367
   3         0.00000000
   4        -0.00000000
   5         0.99617258
   6        -0.04972897
   7        -0.63058754
   8        -0.00000000
   9         0.00000000
  10         0.86463601
