[Molden Format]
[N_Atoms]
                     2
[Atoms] (AU)
LI1         1      3           0.00000000      0.00000000      0.00000000
N2          2      7           0.00000000      0.00000000      1.51178090
[Charge] (Mulliken)
  0.648786815895480     
 -0.648786815895486     
[GTO] (AU)
   1
   s  14
  9.497934400E+03  9.668999974E-05
  1.416811200E+03  6.087099984E-04
  3.214599400E+02  3.101519992E-03
  9.112416300E+01  1.266904997E-02
  2.999989100E+01  4.248012989E-02
  1.101763100E+01  1.150183297E-01
  4.372801000E+00  2.398650094E-01
  1.831256000E+00  3.584300090E-01
  8.022610000E-01  3.048527792E-01
  3.626480000E-01  8.824261976E-02
  1.139950000E-01 -8.445899977E-04
  5.123700000E-02 -7.943959979E-03
  2.246800000E-02 -3.764419990E-03
  7.860000000E-03 -8.868999976E-05
   s  14
  9.497934400E+03 -1.244999993E-05
  1.416811200E+03 -7.838999954E-05
  3.214599400E+02 -4.007099976E-04
  9.112416300E+01 -1.645249990E-03
  2.999989100E+01 -5.634599967E-03
  1.101763100E+01 -1.590780991E-02
  4.372801000E+00 -3.612581979E-02
  1.831256000E+00 -6.459927962E-02
  8.022610000E-01 -1.008321794E-01
  3.626480000E-01 -9.757613942E-02
  1.139950000E-01  2.301215886E-01
  5.123700000E-02  6.102389764E-01
  2.246800000E-02  2.849406083E-01
  7.860000000E-03  4.026899976E-03
   p   9
  1.311950400E+01  1.524940000E-03
  3.077424200E+00  8.314830000E-03
  1.098800500E+00  1.933203000E-02
  4.357784000E-01  4.934293000E-02
  1.802432000E-01  1.623554000E-01
  7.613330000E-02  3.847505400E-01
  3.254650000E-02  4.336100400E-01
  1.401820000E-02  1.287005900E-01
  4.906400000E-03 -1.018520000E-03
 
   2
   s  14
  7.476171500E+04  1.182599996E-04
  1.112365400E+04  5.172899983E-04
  2.512685700E+03  2.266659992E-03
  7.037772900E+02  9.145289970E-03
  2.254787900E+02  3.239342989E-02
  7.961581000E+01  9.770792967E-02
  3.023728300E+01  2.317036792E-01
  1.226362200E+01  3.768898887E-01
  5.265086000E+00  3.177420689E-01
  2.333471000E+00  8.211308973E-02
  9.018560000E-01  3.312089989E-03
  3.583360000E-01  3.720819988E-03
  1.410930000E-01  3.165419989E-03
  4.938300000E-02  4.595799985E-04
   s  14
  7.476171500E+04 -2.707000010E-05
  1.112365400E+04 -1.183700004E-04
  2.512685700E+03 -5.203800020E-04
  7.037772900E+02 -2.102930008E-03
  2.254787900E+02 -7.568200028E-03
  7.961581000E+01 -2.346767009E-02
  3.023728300E+01 -6.042901023E-02
  1.226362200E+01 -1.170549104E-01
  5.265086000E+00 -1.555321506E-01
  2.333471000E+00 -2.468935009E-02
  9.018560000E-01  3.625054514E-01
  3.583360000E-01  5.550845021E-01
  1.410930000E-01  2.148376908E-01
  4.938300000E-02  8.983850034E-03
   p   9
  1.266665700E+02  1.233630000E-03
  2.983738900E+01  9.493409996E-03
  9.394038000E+00  4.293961998E-02
  3.405104000E+00  1.362925399E-01
  1.350000000E+00  2.921362499E-01
  5.576960000E-01  3.887887598E-01
  2.324490000E-01  2.946801399E-01
  9.426400000E-02  8.012875997E-02
  3.299200000E-02  5.405199998E-04
 
[MO]
Sym=     1a  
Ene=   -15.5790
Spin= Alpha
Occup=    2.00000
   1        -0.00164544
   2        -0.00232269
   3         0.00009136
   4        -0.00000301
   5        -0.00005628
   6         1.00017826
   7        -0.00265092
   8         0.00049184
   9        -0.00001618
  10        -0.00442707
Sym=     2a  
Ene=    -3.0081
Spin= Alpha
Occup=    2.00000
   1        -0.93773980
   2         0.01542878
   3         0.00100521
   4        -0.00003307
   5        -0.01577783
   6         0.04628314
   7        -0.07365249
   8         0.00541899
   9        -0.00017826
  10         0.07111010
Sym=     3a  
Ene=    -0.7927
Spin= Alpha
Occup=    2.00000
   1        -0.36908442
   2         0.03187863
   3         0.00398442
   4        -0.00013107
   5         0.06068072
   6         0.01697656
   7         1.00408268
   8         0.02138819
   9        -0.00070357
  10         0.10133079
Sym=     4a  
Ene=    -0.4752
Spin= Alpha
Occup=    2.00000
   1        -0.00000000
   2        -0.00000000
   3         0.00565251
   4         0.17183369
   5        -0.00000000
   6         0.00000000
   7         0.00000000
   8         0.03026302
   9         0.91998136
  10         0.00000000
Sym=     5a  
Ene=    -0.4749
Spin= Alpha
Occup=    1.99675
   1         0.01413599
   2        -0.00079360
   3         0.17038145
   4        -0.00560474
   5        -0.00129279
   6        -0.00120690
   7        -0.02294984
   8         0.92046902
   9        -0.03027906
  10        -0.00273965
Sym=     6a  
Ene=    -0.0006
Spin= Alpha
Occup=    0.00325
   1         0.73358275
   2         0.09080315
   3         0.00585444
   4        -0.00019258
   5        -0.05549257
   6        -0.03315596
   7        -0.34836816
   8        -0.00316811
   9         0.00010422
  10         1.16214682
Sym=     7a  
Ene=     0.0023
Spin= Alpha
Occup=    0.00000
   1         0.10586385
   2         0.81795495
   3         0.00109435
   4        -0.00003600
   5        -0.60860303
   6         0.00159763
   7        -0.13284431
   8        -0.00059506
   9         0.00001957
  10         0.09296085
Sym=     8a  
Ene=     0.1545
Spin= Alpha
Occup=    0.00000
   1         0.00427102
   2         0.00187712
   3        -1.07148167
   4         0.03524666
   5        -0.00027935
   6        -0.00025967
   7        -0.00258328
   8         0.57392930
   9        -0.01887955
  10         0.00634808
Sym=     9a  
Ene=     0.1546
Spin= Alpha
Occup=    0.00000
   1         0.00000000
   2        -0.00000000
   3        -0.03523984
   4        -1.07127441
   5        -0.00000000
   6         0.00000000
   7        -0.00000000
   8         0.01891949
   9         0.57514344
  10         0.00000000
Sym=    10a  
Ene=     0.2223
Spin= Alpha
Occup=    0.00000
   1         0.24155194
   2         0.81763985
   3         0.00070625
   4        -0.00002323
   5         0.97124144
   6        -0.12146679
   7        -0.84847492
   8        -0.00041183
   9         0.00001355
  10        -0.15806364
