[Molden Format]
[N_Atoms]
                     2
[Atoms] (AU)
N1          1      7           0.00000000      0.00000000      0.00000000
O2          2      8           0.00000000      0.00000000      1.70075351
[Charge] (Mulliken)
  0.214060249583763     
 -0.214060249583786     
[GTO] (AU)
   1
   s  14
  7.476171500E+04  1.182599996E-04
  1.112365400E+04  5.172899983E-04
  2.512685700E+03  2.266659992E-03
  7.037772900E+02  9.145289970E-03
  2.254787900E+02  3.239342989E-02
  7.961581000E+01  9.770792967E-02
  3.023728300E+01  2.317036792E-01
  1.226362200E+01  3.768898887E-01
  5.265086000E+00  3.177420689E-01
  2.333471000E+00  8.211308973E-02
  9.018560000E-01  3.312089989E-03
  3.583360000E-01  3.720819988E-03
  1.410930000E-01  3.165419989E-03
  4.938300000E-02  4.595799985E-04
   s  14
  7.476171500E+04 -2.707000010E-05
  1.112365400E+04 -1.183700004E-04
  2.512685700E+03 -5.203800020E-04
  7.037772900E+02 -2.102930008E-03
  2.254787900E+02 -7.568200028E-03
  7.961581000E+01 -2.346767009E-02
  3.023728300E+01 -6.042901023E-02
  1.226362200E+01 -1.170549104E-01
  5.265086000E+00 -1.555321506E-01
  2.333471000E+00 -2.468935009E-02
  9.018560000E-01  3.625054514E-01
  3.583360000E-01  5.550845021E-01
  1.410930000E-01  2.148376908E-01
  4.938300000E-02  8.983850034E-03
   p   9
  1.266665700E+02  1.233630000E-03
  2.983738900E+01  9.493409996E-03
  9.394038000E+00  4.293961998E-02
  3.405104000E+00  1.362925399E-01
  1.350000000E+00  2.921362499E-01
  5.576960000E-01  3.887887598E-01
  2.324490000E-01  2.946801399E-01
  9.426400000E-02  8.012875997E-02
  3.299200000E-02  5.405199998E-04
 
   2
   s  14
  1.053749500E+05  1.238600013E-04
  1.567924000E+04  5.120100053E-04
  3.534544700E+03  2.152910022E-03
  9.873651600E+02  8.528440089E-03
  3.159787500E+02  3.018049031E-02
  1.116542800E+02  9.099702095E-02
  4.269945100E+01  2.177936423E-01
  1.739559600E+01  3.686245738E-01
  7.438309000E+00  3.366707335E-01
  3.222862000E+00  9.657630101E-02
  1.253877000E+00  2.144520022E-03
  4.951550000E-01  1.194350012E-03
  1.916650000E-01  5.390200056E-04
  6.708300000E-02  2.103400022E-04
   s  14
  1.053749500E+05 -2.815000008E-05
  1.567924000E+04 -1.163000003E-04
  3.534544700E+03 -4.909200013E-04
  9.873651600E+02 -1.946160005E-03
  3.159787500E+02 -7.005300019E-03
  1.116542800E+02 -2.167814006E-02
  4.269945100E+01 -5.641213015E-02
  1.739559600E+01 -1.127053003E-01
  7.438309000E+00 -1.589119704E-01
  3.222862000E+00 -3.355083009E-02
  1.253877000E+00  3.531902810E-01
  4.951550000E-01  5.534199315E-01
  1.916650000E-01  2.301839106E-01
  6.708300000E-02  1.127267003E-02
   p   9
  2.000000000E+02  9.173000030E-04
  4.653336700E+01  7.377140024E-03
  1.462180900E+01  3.483515011E-02
  5.313064000E+00  1.144397004E-01
  2.102525000E+00  2.554966408E-01
  8.502230000E-01  3.722557412E-01
  3.375970000E-01  3.323314911E-01
  1.288920000E-01  1.400847905E-01
  4.511200000E-02  2.395784008E-02
 
[MO]
Sym=     1a  
Ene=   -20.9900
Spin= Alpha
Occup=    1.00000
   1        -0.00070993
   2        -0.00425175
   3         0.00000000
   4         0.00000000
   5        -0.00171012
   6         1.00052086
   7         0.00432694
   8        -0.00000000
   9        -0.00000000
  10        -0.00531921
Sym=     1a  
Ene=   -20.9690
Spin= Beta
Occup=    1.00000
   1        -0.00041699
   2        -0.00332437
   3         0.00000000
   4         0.00000000
   5        -0.00114906
   6         1.00038358
   7         0.00272211
   8        -0.00000000
   9        -0.00000000
  10        -0.00494127
Sym=     2a  
Ene=   -15.9420
Spin= Alpha
Occup=    1.00000
   1         1.00048442
   2        -0.00088961
   3        -0.00000000
   4         0.00000000
   5         0.00731995
   6        -0.00259747
   7        -0.00513153
   8         0.00000000
   9        -0.00000000
  10         0.00050597
Sym=     2a  
Ene=   -15.9130
Spin= Beta
Occup=    1.00000
   1         1.00024473
   2        -0.00369290
   3        -0.00000000
   4        -0.00000000
   5         0.00661804
   6        -0.00240728
   7        -0.00356075
   8         0.00000000
   9        -0.00000000
  10        -0.00020650
Sym=     3a  
Ene=    -2.0044
Spin= Alpha
Occup=    1.00000
   1        -0.09608154
   2         0.25829728
   3        -0.00000000
   4        -0.00000000
   5         0.26214258
   6        -0.05327364
   7         0.57791004
   8        -0.00000000
   9        -0.00000000
  10        -0.34418953
Sym=     3a  
Ene=    -1.9643
Spin= Beta
Occup=    1.00000
   1        -0.09717126
   2         0.24243751
   3        -0.00000000
   4        -0.00000000
   5         0.27305220
   6        -0.05291994
   7         0.57528109
   8        -0.00000000
   9        -0.00000000
  10        -0.35817534
Sym=     4a  
Ene=    -1.0186
Spin= Alpha
Occup=    1.00000
   1         0.00000000
   2         0.00000000
   3         0.40207726
   4        -0.27102835
   5        -0.00000000
   6        -0.00000000
   7        -0.00000000
   8         0.57731022
   9        -0.38914769
  10        -0.00000000
Sym=     4a  
Ene=    -0.9238
Spin= Beta
Occup=    1.00000
   1         0.02910625
   2        -0.35289349
   3        -0.00000000
   4        -0.00000000
   5        -0.05446283
   6         0.03519472
   7         0.73043564
   8        -0.00000000
   9        -0.00000000
  10         0.65630921
Sym=     5a  
Ene=    -0.9882
Spin= Alpha
Occup=    1.00000
   1         0.01530722
   2        -0.49183180
   3        -0.00000000
   4        -0.00000000
   5         0.00012669
   6         0.03814837
   7         0.75332530
   8        -0.00000000
   9        -0.00000000
  10         0.57097952
Sym=     5a  
Ene=    -0.8940
Spin= Beta
Occup=    1.00000
   1         0.00000000
   2        -0.00000000
   3         0.25820594
   4         0.38305489
   5        -0.00000000
   6         0.00000000
   7         0.00000000
   8         0.40003693
   9         0.59346467
  10         0.00000000
Sym=     6a  
Ene=    -0.9100
Spin= Alpha
Occup=    1.00000
   1         0.00000000
   2        -0.00000000
   3         0.26507157
   4         0.39324022
   5        -0.00000000
   6         0.00000000
   7         0.00000000
   8         0.39424762
   9         0.58487609
  10         0.00000000
Sym=     6a  
Ene=    -0.8523
Spin= Beta
Occup=    1.00000
   1         0.00000000
   2         0.00000000
   3         0.37302762
   4        -0.25144685
   5        -0.00000000
   6         0.00000000
   7         0.00000000
   8         0.60178452
   9        -0.40564509
  10         0.00000000
Sym=     7a  
Ene=    -0.7770
Spin= Alpha
Occup=    1.00000
   1         0.07014630
   2         0.76397171
   3        -0.00000000
   4        -0.00000000
   5        -0.62864113
   6         0.02045687
   7         0.09886564
   8        -0.00000000
   9        -0.00000000
  10         0.51944668
Sym=     7a  
Ene=    -0.7197
Spin= Beta
Occup=    1.00000
   1         0.06241063
   2         0.80470203
   3        -0.00000000
   4         0.00000000
   5        -0.63750398
   6         0.01819622
   7         0.03294602
   8        -0.00000000
   9        -0.00000000
  10         0.41511579
Sym=     8a  
Ene=    -0.4038
Spin= Alpha
Occup=    1.00000
   1         0.00000000
   2         0.00000000
   3        -0.81787169
   4         0.55130304
   5         0.00000000
   6        -0.00000000
   7        -0.00000000
   8         0.70519013
   9        -0.47534775
  10         0.00000000
Sym=     8a  
Ene=     0.2150
Spin= Beta
Occup=    0.00000
   1         0.00000000
   2         0.00000000
   3        -0.55742363
   4        -0.82695173
   5        -0.00000000
   6        -0.00000000
   7        -0.00000000
   8         0.46622083
   9         0.69165013
  10         0.00000000
Sym=     9a  
Ene=     0.1859
Spin= Alpha
Occup=    0.00000
   1         0.00000000
   2         0.00000000
   3        -0.55419173
   4        -0.82215713
   5         0.00000000
   6        -0.00000000
   7        -0.00000000
   8         0.47112655
   9         0.69892788
  10         0.00000000
Sym=     9a  
Ene=     0.2684
Spin= Beta
Occup=    0.00000
   1         0.00000000
   2         0.00000000
   3        -0.83152307
   4         0.56050503
   5         0.00000000
   6        -0.00000000
   7        -0.00000000
   8         0.68442356
   9        -0.46134962
  10         0.00000000
Sym=    10a  
Ene=     1.3742
Spin= Alpha
Occup=    0.00000
   1         0.30174494
   2         1.57033046
   3         0.00000000
   4         0.00000000
   5         1.37038089
   6        -0.28244759
   7        -1.64161314
   8        -0.00000000
   9        -0.00000000
  10         1.18341595
Sym=    10a  
Ene=     1.4289
Spin= Beta
Occup=    0.00000
   1         0.30287265
   2         1.58976275
   3         0.00000000
   4         0.00000000
   5         1.36305853
   6        -0.28353807
   7        -1.65547640
   8        -0.00000000
   9        -0.00000000
  10         1.17619464
