[Molden Format]
[N_Atoms]
                     2
[Atoms] (AU)
H1          1      1           0.00000000      0.00000000      0.00000000
N2          2      7           0.00000000      0.00000000      4.15739747
[Charge] (Mulliken)
  6.306532290288325E-003
 -6.306532290293987E-003
[GTO] (AU)
   1
   s   8
  1.886144500E+02  9.638500027E-04
  2.827659600E+01  7.491960021E-03
  6.424830000E+00  3.759541011E-02
  1.815041000E+00  1.433949804E-01
  5.910630000E-01  3.486363010E-01
  2.121490000E-01  4.382973612E-01
  7.989100000E-02  1.651066105E-01
  2.796200000E-02  2.102287006E-02
 
   2
   s  14
  7.476171500E+04  1.182599996E-04
  1.112365400E+04  5.172899983E-04
  2.512685700E+03  2.266659992E-03
  7.037772900E+02  9.145289970E-03
  2.254787900E+02  3.239342989E-02
  7.961581000E+01  9.770792967E-02
  3.023728300E+01  2.317036792E-01
  1.226362200E+01  3.768898887E-01
  5.265086000E+00  3.177420689E-01
  2.333471000E+00  8.211308973E-02
  9.018560000E-01  3.312089989E-03
  3.583360000E-01  3.720819988E-03
  1.410930000E-01  3.165419989E-03
  4.938300000E-02  4.595799985E-04
   s  14
  7.476171500E+04 -2.707000010E-05
  1.112365400E+04 -1.183700004E-04
  2.512685700E+03 -5.203800020E-04
  7.037772900E+02 -2.102930008E-03
  2.254787900E+02 -7.568200028E-03
  7.961581000E+01 -2.346767009E-02
  3.023728300E+01 -6.042901023E-02
  1.226362200E+01 -1.170549104E-01
  5.265086000E+00 -1.555321506E-01
  2.333471000E+00 -2.468935009E-02
  9.018560000E-01  3.625054514E-01
  3.583360000E-01  5.550845021E-01
  1.410930000E-01  2.148376908E-01
  4.938300000E-02  8.983850034E-03
   p   9
  1.266665700E+02  1.233630000E-03
  2.983738900E+01  9.493409996E-03
  9.394038000E+00  4.293961998E-02
  3.405104000E+00  1.362925399E-01
  1.350000000E+00  2.921362499E-01
  5.576960000E-01  3.887887598E-01
  2.324490000E-01  2.946801399E-01
  9.426400000E-02  8.012875997E-02
  3.299200000E-02  5.405199998E-04
 
[MO]
Sym=     1a  
Ene=   -15.5930
Spin= Alpha
Occup=    1.00000
   1        -0.00038845
   2         0.99998572
   3        -0.00582367
   4        -0.00000000
   5         0.00000000
   6        -0.00044054
Sym=     1a  
Ene=   -15.5930
Spin= Beta
Occup=    1.00000
   1        -0.00038845
   2         0.99998572
   3        -0.00582367
   4        -0.00000000
   5         0.00000000
   6        -0.00044054
Sym=     2a  
Ene=    -0.9338
Spin= Alpha
Occup=    1.00000
   1         0.04570460
   2         0.00551481
   3         0.99394684
   4        -0.00000000
   5        -0.00000000
   6         0.00501312
Sym=     2a  
Ene=    -0.9338
Spin= Beta
Occup=    1.00000
   1         0.04570460
   2         0.00551481
   3         0.99394684
   4        -0.00000000
   5        -0.00000000
   6         0.00501312
Sym=     3a  
Ene=    -0.4323
Spin= Alpha
Occup=    1.00000
   1        -0.00000000
   2         0.00000000
   3         0.00000000
   4         1.00000000
   5         0.00000017
   6         0.00000000
Sym=     3a  
Ene=    -0.4323
Spin= Beta
Occup=    1.00000
   1        -0.00000000
   2         0.00000000
   3         0.00000000
   4         1.00000000
   5         0.00000017
   6         0.00000000
Sym=     4a  
Ene=    -0.3340
Spin= Alpha
Occup=    1.00000
   1        -0.65972088
   2         0.00545169
   3         0.10281317
   4        -0.00000000
   5         0.00000000
   6         0.66710984
Sym=     4a  
Ene=    -0.3340
Spin= Beta
Occup=    1.00000
   1        -0.65972088
   2         0.00545169
   3         0.10281317
   4        -0.00000000
   5         0.00000000
   6         0.66710984
Sym=     5a  
Ene=     0.0361
Spin= Alpha
Occup=    0.00000
   1         0.77185414
   2        -0.00577165
   3        -0.11808774
   4        -0.00000000
   5         0.00000000
   6         0.75860020
Sym=     5a  
Ene=     0.0361
Spin= Beta
Occup=    0.00000
   1         0.77185414
   2        -0.00577165
   3        -0.11808774
   4        -0.00000000
   5         0.00000000
   6         0.75860020
Sym=     6a  
Ene=     0.1116
Spin= Alpha
Occup=    0.00000
   1        -0.00000000
   2         0.00000000
   3         0.00000000
   4        -0.00000017
   5         1.00000000
   6        -0.00000000
Sym=     6a  
Ene=     0.1116
Spin= Beta
Occup=    0.00000
   1        -0.00000000
   2         0.00000000
   3         0.00000000
   4        -0.00000017
   5         1.00000000
   6        -0.00000000
