[Molden Format]
[N_Atoms]
                     2
[Atoms] (AU)
C1          1      6           0.00000000      0.00000000      0.00000000
F2          2      9           0.00000000      0.00000000      1.51178090
[Charge] (Mulliken)
  0.342153943226061     
 -0.342153943226091     
[GTO] (AU)
   1
   s  14
  5.055750100E+04  1.128874000E-04
  7.524785600E+03  5.295373000E-04
  1.694327600E+03  2.450038300E-03
  4.728227900E+02  1.005398470E-02
  1.517107500E+02  3.545398060E-02
  5.391874600E+01  1.044071086E-01
  2.065931100E+01  2.412894918E-01
  8.383976000E+00  3.834225483E-01
  3.577015000E+00  3.078514393E-01
  1.547118000E+00  6.872442990E-02
  6.130130000E-01  2.224445000E-04
  2.460680000E-01  1.976748900E-03
  9.908700000E-02  2.057859400E-03
  3.468000000E-02  4.182020000E-04
   s  14
  5.055750100E+04 -2.507420000E-05
  7.524785600E+03 -1.175945000E-04
  1.694327600E+03 -5.456275000E-04
  4.728227900E+02 -2.245077100E-03
  1.517107500E+02 -8.043471800E-03
  5.391874600E+01 -2.442588710E-02
  2.065931100E+01 -6.136791180E-02
  8.383976000E+00 -1.177767835E-01
  3.577015000E+00 -1.550487783E-01
  1.547118000E+00 -1.933316860E-02
  6.130130000E-01  3.996930678E-01
  2.460680000E-01  5.589420949E-01
  9.908700000E-02  1.711195023E-01
  3.468000000E-02  7.456244600E-03
   p   9
  8.333315500E+01  1.344656000E-03
  1.955761100E+01  1.023555500E-02
  6.080365000E+00  4.520067100E-02
  2.179317000E+00  1.410756198E-01
  8.651500000E-01  3.047388085E-01
  3.619440000E-01  3.995281011E-01
  1.547400000E-01  2.719163432E-01
  6.542900000E-02  5.857669330E-02
  2.290000000E-02 -1.263813000E-04
 
   2
   s  14
  1.031094600E+05  1.713099991E-04
  1.528100700E+04  7.123999962E-04
  3.441539200E+03  2.990479984E-03
  9.670948300E+02  1.164036994E-02
  3.140353400E+02  3.968642979E-02
  1.134423000E+02  1.128546094E-01
  4.464472700E+01  2.473650687E-01
  1.894287400E+01  3.672702681E-01
  8.532743000E+00  2.896286985E-01
  3.919401000E+00  7.786681959E-02
  1.568157000E+00  4.562139976E-03
  6.232900000E-01  2.468879987E-03
  2.408610000E-01  1.106309994E-03
  8.430100000E-02  1.739699991E-04
   s  14
  1.031094600E+05 -4.044999995E-05
  1.528100700E+04 -1.682299998E-04
  3.441539200E+03 -7.084299991E-04
  9.670948300E+02 -2.767999996E-03
  3.140353400E+02 -9.611379987E-03
  1.134423000E+02 -2.833957996E-02
  4.464472700E+01 -6.839343991E-02
  1.894287400E+01 -1.237379298E-01
  8.532743000E+00 -1.512859698E-01
  3.919401000E+00 -9.099909988E-03
  1.568157000E+00  3.716257695E-01
  6.232900000E-01  5.500214393E-01
  2.408610000E-01  2.092318697E-01
  8.430100000E-02  8.074639989E-03
   p   9
  2.453302900E+02  1.024860004E-03
  5.691900500E+01  8.344290032E-03
  1.760456800E+01  4.078927016E-02
  6.274995000E+00  1.351370605E-01
  2.447030000E+00  2.798830811E-01
  9.950600000E-01  3.597966414E-01
  4.039730000E-01  3.055347412E-01
  1.548100000E-01  1.354703905E-01
  5.418400000E-02  2.804449011E-02
 
[MO]
Sym=     1a  
Ene=   -26.7460
Spin= Alpha
Occup=    1.00000
   1        -0.00121972
   2        -0.00354840
   3         0.00000000
   4         0.00000000
   5        -0.00165757
   6         1.00051568
   7         0.00116212
   8        -0.00000000
   9        -0.00000000
  10        -0.00405517
Sym=     1a  
Ene=   -26.7270
Spin= Beta
Occup=    1.00000
   1        -0.00101411
   2        -0.00292446
   3         0.00000000
   4         0.00000000
   5        -0.00122465
   6         1.00040453
   7         0.00004165
   8         0.00000000
   9        -0.00000000
  10        -0.00389437
Sym=     2a  
Ene=   -11.5980
Spin= Alpha
Occup=    1.00000
   1         0.99772913
   2        -0.00301905
   3        -0.00000000
   4        -0.00000000
   5         0.00738902
   6        -0.00372008
   7         0.00309927
   8         0.00000000
   9         0.00000000
  10        -0.00923449
Sym=     2a  
Ene=   -11.5740
Spin= Beta
Occup=    1.00000
   1         0.99750303
   2        -0.00599363
   3         0.00000000
   4        -0.00000000
   5         0.00689485
   6        -0.00343841
   7         0.00463747
   8         0.00000000
   9         0.00000000
  10        -0.00941803
Sym=     3a  
Ene=    -2.2761
Spin= Alpha
Occup=    1.00000
   1        -0.19159530
   2        -0.01520936
   3         0.00000000
   4        -0.00000000
   5         0.13701067
   6        -0.01531159
   7         0.85934073
   8        -0.00000000
   9        -0.00000000
  10        -0.39447680
Sym=     3a  
Ene=    -2.2454
Spin= Beta
Occup=    1.00000
   1        -0.19226026
   2        -0.02098975
   3         0.00000000
   4        -0.00000000
   5         0.14420101
   6        -0.01538246
   7         0.85438255
   8        -0.00000000
   9        -0.00000000
  10        -0.40374469
Sym=     4a  
Ene=    -1.1774
Spin= Alpha
Occup=    1.00000
   1         0.00000000
   2         0.00000000
   3         0.20665291
   4        -0.05937732
   5        -0.00000000
   6         0.00000000
   7         0.00000000
   8         0.84574284
   9        -0.24300623
  10         0.00000000
Sym=     4a  
Ene=    -1.1166
Spin= Beta
Occup=    1.00000
   1         0.13096805
   2         0.02526384
   3         0.00000000
   4        -0.00000000
   5        -0.15136394
   6         0.02066665
   7         0.46507757
   8         0.00000000
   9        -0.00000000
  10         0.92162463
Sym=     5a  
Ene=    -1.1465
Spin= Alpha
Occup=    1.00000
   1         0.12619283
   2        -0.02868653
   3        -0.00000000
   4        -0.00000000
   5        -0.15193109
   6         0.02496167
   7         0.48599597
   8        -0.00000000
   9        -0.00000000
  10         0.90801959
Sym=     5a  
Ene=    -1.0889
Spin= Beta
Occup=    1.00000
   1         0.00000000
   2         0.00000000
   3         0.06370027
   4         0.22169820
   5        -0.00000000
   6         0.00000000
   7         0.00000000
   8         0.24019481
   9         0.83595816
  10         0.00000000
Sym=     6a  
Ene=    -1.1000
Spin= Alpha
Occup=    1.00000
   1         0.00000000
   2         0.00000000
   3         0.06566075
   4         0.22852135
   5        -0.00000000
   6         0.00000000
   7         0.00000000
   8         0.23890142
   9         0.83145674
  10         0.00000000
Sym=     6a  
Ene=    -1.0552
Spin= Beta
Occup=    1.00000
   1        -0.00000000
   2         0.00000000
   3         0.21208735
   4        -0.06093879
   5         0.00000000
   6        -0.00000000
   7        -0.00000000
   8         0.84223090
   9        -0.24199715
  10        -0.00000000
Sym=     7a  
Ene=    -0.6120
Spin= Alpha
Occup=    1.00000
   1         0.08162343
   2         0.98087239
   3         0.00000000
   4         0.00000000
   5        -0.47502593
   6        -0.02020894
   7        -0.22526533
   8        -0.00000000
   9        -0.00000000
  10         0.24539051
Sym=     7a  
Ene=    -0.5275
Spin= Beta
Occup=    1.00000
   1        -0.06872591
   2        -0.94690363
   3        -0.00000000
   4        -0.00000000
   5         0.50246564
   6         0.01395793
   7         0.19621327
   8         0.00000000
   9         0.00000000
  10        -0.19006344
Sym=     8a  
Ene=    -0.2695
Spin= Alpha
Occup=    1.00000
   1        -0.00000000
   2         0.00000000
   3        -1.07190827
   4         0.30799006
   5        -0.00000000
   6         0.00000000
   7         0.00000000
   8         0.69022591
   9        -0.19832175
  10         0.00000000
Sym=     8a  
Ene=     0.2981
Spin= Beta
Occup=    0.00000
   1         0.00000000
   2         0.00000000
   3        -0.30712509
   4        -1.06889788
   5        -0.00000000
   6        -0.00000000
   7        -0.00000000
   8         0.20171762
   9         0.70204467
  10         0.00000000
Sym=     9a  
Ene=     0.2698
Spin= Alpha
Occup=    0.00000
   1         0.00000000
   2         0.00000000
   3        -0.30671193
   4        -1.06745996
   5        -0.00000000
   6        -0.00000000
   7        -0.00000000
   8         0.20324776
   9         0.70737010
  10         0.00000000
Sym=     9a  
Ene=     0.3509
Spin= Beta
Occup=    0.00000
   1        -0.00000000
   2         0.00000000
   3        -1.07084627
   4         0.30768491
   5        -0.00000000
   6         0.00000000
   7         0.00000000
   8         0.69450693
   9        -0.19955181
  10         0.00000000
Sym=    10a  
Ene=     1.1747
Spin= Alpha
Occup=    0.00000
   1         0.36220761
   2         1.46149889
   3        -0.00000000
   4         0.00000000
   5         1.49647896
   6        -0.31974561
   7        -1.74421326
   8         0.00000000
   9        -0.00000000
  10         0.76122243
Sym=    10a  
Ene=     1.2161
Spin= Beta
Occup=    0.00000
   1         0.36345813
   2         1.48371689
   3        -0.00000000
   4         0.00000000
   5         1.48687105
   6        -0.32073205
   7        -1.75582062
   8         0.00000000
   9        -0.00000000
  10         0.75581719
