[Molden Format]
[N_Atoms]
                     2
[Atoms] (AU)
B1          1      5           0.00000000      0.00000000      0.00000000
C2          2      6           0.00000000      0.00000000      2.26767135
[Charge] (Mulliken)
  0.198923169187706     
 -0.198923169187747     
[GTO] (AU)
   1
   s  14
  3.336021700E+04  1.039699991E-04
  4.972095200E+03  5.254399956E-04
  1.125641700E+03  2.509059979E-03
  3.164913600E+02  1.031887991E-02
  1.020072600E+02  3.636632969E-02
  3.629587300E+01  1.064607991E-01
  1.397141000E+01  2.403999880E-01
  5.741156000E+00  3.748581168E-01
  2.494268000E+00  3.100066974E-01
  1.114202000E+00  7.922455933E-02
  4.215490000E-01 -4.947589958E-03
  1.696330000E-01 -7.737119935E-03
  6.853500000E-02 -1.501079987E-03
  2.398700000E-02 -1.333299989E-04
   s  14
  3.336021700E+04 -2.030000008E-05
  4.972095200E+03 -1.025700004E-04
  1.125641700E+03 -4.911300020E-04
  3.164913600E+02 -2.026570008E-03
  1.020072600E+02 -7.261010030E-03
  3.629587300E+01 -2.197722009E-02
  1.397141000E+01 -5.408428022E-02
  5.741156000E+00 -1.022402604E-01
  2.494268000E+00 -1.423595206E-01
  1.114202000E+00 -4.658690019E-02
  4.215490000E-01  3.799402916E-01
  1.696330000E-01  5.890463624E-01
  6.853500000E-02  1.749075107E-01
  2.398700000E-02 -1.142030005E-03
   p   9
  5.500000000E+01  1.229800005E-03
  1.336610100E+01  8.827380035E-03
  4.135394000E+00  3.843340015E-02
  1.481256000E+00  1.150031805E-01
  6.021360000E-01  2.733674011E-01
  2.556360000E-01  4.061972116E-01
  1.111510000E-01  3.014967912E-01
  4.764800000E-02  7.684809030E-02
  1.667700000E-02 -8.170000032E-06
 
   2
   s  14
  5.055750100E+04  1.128874000E-04
  7.524785600E+03  5.295373000E-04
  1.694327600E+03  2.450038300E-03
  4.728227900E+02  1.005398470E-02
  1.517107500E+02  3.545398060E-02
  5.391874600E+01  1.044071086E-01
  2.065931100E+01  2.412894918E-01
  8.383976000E+00  3.834225483E-01
  3.577015000E+00  3.078514393E-01
  1.547118000E+00  6.872442990E-02
  6.130130000E-01  2.224445000E-04
  2.460680000E-01  1.976748900E-03
  9.908700000E-02  2.057859400E-03
  3.468000000E-02  4.182020000E-04
   s  14
  5.055750100E+04 -2.507420000E-05
  7.524785600E+03 -1.175945000E-04
  1.694327600E+03 -5.456275000E-04
  4.728227900E+02 -2.245077100E-03
  1.517107500E+02 -8.043471800E-03
  5.391874600E+01 -2.442588710E-02
  2.065931100E+01 -6.136791180E-02
  8.383976000E+00 -1.177767835E-01
  3.577015000E+00 -1.550487783E-01
  1.547118000E+00 -1.933316860E-02
  6.130130000E-01  3.996930678E-01
  2.460680000E-01  5.589420949E-01
  9.908700000E-02  1.711195023E-01
  3.468000000E-02  7.456244600E-03
   p   9
  8.333315500E+01  1.344656000E-03
  1.955761100E+01  1.023555500E-02
  6.080365000E+00  4.520067100E-02
  2.179317000E+00  1.410756198E-01
  8.651500000E-01  3.047388085E-01
  3.619440000E-01  3.995281011E-01
  1.547400000E-01  2.719163432E-01
  6.542900000E-02  5.857669330E-02
  2.290000000E-02 -1.263813000E-04
 
[MO]
Sym=     1a  
Ene=   -11.3450
Spin= Alpha
Occup=    1.00000
   1        -0.00052460
   2        -0.00343143
   3        -0.00000000
   4         0.00000000
   5        -0.00162658
   6         1.00050154
   7         0.00307332
   8        -0.00000000
   9         0.00000000
  10        -0.00286606
Sym=     1a  
Ene=   -11.2930
Spin= Beta
Occup=    1.00000
   1        -0.00022615
   2        -0.00227953
   3        -0.00000000
   4         0.00000000
   5        -0.00082119
   6         1.00029424
   7        -0.00090950
   8        -0.00000000
   9         0.00000000
  10        -0.00279979
Sym=     2a  
Ene=    -7.7712
Spin= Alpha
Occup=    1.00000
   1         0.99914897
   2         0.01250963
   3         0.00000000
   4        -0.00000000
   5        -0.00165039
   6        -0.00119840
   7         0.00338655
   8        -0.00000000
   9        -0.00000000
  10        -0.00299196
Sym=     2a  
Ene=    -7.7780
Spin= Beta
Occup=    1.00000
   1         0.99938457
   2         0.01568970
   3         0.00000000
   4        -0.00000000
   5        -0.00077385
   6        -0.00151291
   7         0.00176082
   8         0.00000000
   9        -0.00000000
  10        -0.00211825
Sym=     3a  
Ene=    -0.9570
Spin= Alpha
Occup=    1.00000
   1        -0.09571543
   2         0.24460407
   3         0.00000000
   4        -0.00000000
   5         0.18779298
   6        -0.04582421
   7         0.71044378
   8        -0.00000000
   9         0.00000000
  10        -0.16399677
Sym=     3a  
Ene=    -0.8666
Spin= Beta
Occup=    1.00000
   1        -0.10060289
   2         0.40094242
   3        -0.00000000
   4         0.00000000
   5         0.22779237
   6        -0.06225475
   7         0.49059732
   8         0.00000000
   9        -0.00000000
  10        -0.30336814
Sym=     4a  
Ene=    -0.5576
Spin= Alpha
Occup=    1.00000
   1         0.08299221
   2        -0.25466809
   3        -0.00000000
   4         0.00000000
   5        -0.12349315
   6         0.03840221
   7         0.51576276
   8        -0.00000000
   9         0.00000000
  10         0.81570589
Sym=     4a  
Ene=    -0.3907
Spin= Beta
Occup=    1.00000
   1         0.00000000
   2         0.00000000
   3        -0.02021995
   4         0.73170901
   5        -0.00000000
   6         0.00000000
   7        -0.00000000
   8        -0.01197516
   9         0.43335105
  10         0.00000000
Sym=     5a  
Ene=    -0.4394
Spin= Alpha
Occup=    1.00000
   1        -0.00000000
   2        -0.00000000
   3        -0.00189829
   4         0.43241415
   5         0.00000000
   6         0.00000000
   7        -0.00000000
   8        -0.00321731
   9         0.73287776
  10        -0.00000000
Sym=     5a  
Ene=    -0.3907
Spin= Beta
Occup=    1.00000
   1         0.00000000
   2         0.00000000
   3        -0.73170901
   4        -0.02021995
   5        -0.00000000
   6         0.00000000
   7        -0.00000000
   8        -0.43335105
   9        -0.01197516
  10         0.00000000
Sym=     6a  
Ene=    -0.4394
Spin= Alpha
Occup=    1.00000
   1        -0.00000000
   2        -0.00000000
   3        -0.43241415
   4        -0.00189829
   5         0.00000000
   6         0.00000000
   7        -0.00000000
   8        -0.73287776
   9        -0.00321731
  10        -0.00000000
Sym=     6a  
Ene=    -0.0978
Spin= Beta
Occup=    0.00000
   1        -0.02111279
   2        -0.75401129
   3        -0.00000000
   4         0.00000000
   5         0.63434605
   6        -0.02206844
   7         0.29497794
   8        -0.00000000
   9         0.00000000
  10        -0.04090838
Sym=     7a  
Ene=    -0.0526
Spin= Alpha
Occup=    0.00000
   1         0.03866911
   2         0.74759934
   3         0.00000000
   4        -0.00000000
   5        -0.70171941
   6         0.03278043
   7        -0.02114451
   8        -0.00000000
   9         0.00000000
  10         0.30825366
Sym=     7a  
Ene=     0.1499
Spin= Beta
Occup=    0.00000
   1         0.05539616
   2         0.01841995
   3        -0.00000000
   4         0.00000000
   5        -0.38189236
   6         0.05237954
   7         0.68933091
   8         0.00000000
   9        -0.00000000
  10         0.76910248
Sym=     8a  
Ene=     0.2491
Spin= Alpha
Occup=    0.00000
   1         0.00000000
   2        -0.00000000
   3        -0.00275852
   4        -1.02311820
   5         0.00000000
   6        -0.00000000
   7        -0.00000000
   8         0.00225037
   9         0.83464893
  10        -0.00000000
Sym=     8a  
Ene=     0.3241
Spin= Beta
Occup=    0.00000
   1         0.00000000
   2         0.00000000
   3        -0.00139164
   4        -0.83543714
   5        -0.00000000
   6        -0.00000000
   7         0.00000000
   8         0.00170351
   9         1.02265568
  10         0.00000000
Sym=     9a  
Ene=     0.2491
Spin= Alpha
Occup=    0.00000
   1        -0.00000000
   2        -0.00000000
   3         1.02311820
   4        -0.00275852
   5         0.00000000
   6        -0.00000000
   7        -0.00000000
   8        -0.83464893
   9         0.00225037
  10        -0.00000000
Sym=     9a  
Ene=     0.3241
Spin= Beta
Occup=    0.00000
   1         0.00000000
   2         0.00000000
   3         0.83543714
   4        -0.00139164
   5        -0.00000000
   6        -0.00000000
   7         0.00000000
   8        -1.02265568
   9         0.00170351
  10         0.00000000
Sym=    10a  
Ene=     0.9891
Spin= Alpha
Occup=    0.00000
   1         0.33670731
   2         1.78010834
   3        -0.00000000
   4         0.00000000
   5         1.51987175
   6        -0.35024268
   7        -1.93366118
   8        -0.00000000
   9         0.00000000
  10         1.18693548
Sym=    10a  
Ene=     1.0207
Spin= Beta
Occup=    0.00000
   1         0.34177508
   2         1.76710703
   3        -0.00000000
   4         0.00000000
   5         1.50093807
   6        -0.34731355
   7        -1.92545485
   8         0.00000000
   9        -0.00000000
  10         1.22918171
