[Molden Format]
[N_Atoms]
                     2
[Atoms] (AU)
C1          1      6           0.00000000      0.00000000      0.00000000
C2          2      6           0.00000000      0.00000000      2.26767135
[Charge] (Mulliken)
   1.00000000000077     
  0.999999999999210     
[GTO] (AU)
   1
   s  14
  5.055750100E+04  1.128874000E-04
  7.524785600E+03  5.295373000E-04
  1.694327600E+03  2.450038300E-03
  4.728227900E+02  1.005398470E-02
  1.517107500E+02  3.545398060E-02
  5.391874600E+01  1.044071086E-01
  2.065931100E+01  2.412894918E-01
  8.383976000E+00  3.834225483E-01
  3.577015000E+00  3.078514393E-01
  1.547118000E+00  6.872442990E-02
  6.130130000E-01  2.224445000E-04
  2.460680000E-01  1.976748900E-03
  9.908700000E-02  2.057859400E-03
  3.468000000E-02  4.182020000E-04
   s  14
  5.055750100E+04 -2.507420000E-05
  7.524785600E+03 -1.175945000E-04
  1.694327600E+03 -5.456275000E-04
  4.728227900E+02 -2.245077100E-03
  1.517107500E+02 -8.043471800E-03
  5.391874600E+01 -2.442588710E-02
  2.065931100E+01 -6.136791180E-02
  8.383976000E+00 -1.177767835E-01
  3.577015000E+00 -1.550487783E-01
  1.547118000E+00 -1.933316860E-02
  6.130130000E-01  3.996930678E-01
  2.460680000E-01  5.589420949E-01
  9.908700000E-02  1.711195023E-01
  3.468000000E-02  7.456244600E-03
   p   9
  8.333315500E+01  1.344656000E-03
  1.955761100E+01  1.023555500E-02
  6.080365000E+00  4.520067100E-02
  2.179317000E+00  1.410756198E-01
  8.651500000E-01  3.047388085E-01
  3.619440000E-01  3.995281011E-01
  1.547400000E-01  2.719163432E-01
  6.542900000E-02  5.857669330E-02
  2.290000000E-02 -1.263813000E-04
 
   2
   s  14
  5.055750100E+04  1.128874000E-04
  7.524785600E+03  5.295373000E-04
  1.694327600E+03  2.450038300E-03
  4.728227900E+02  1.005398470E-02
  1.517107500E+02  3.545398060E-02
  5.391874600E+01  1.044071086E-01
  2.065931100E+01  2.412894918E-01
  8.383976000E+00  3.834225483E-01
  3.577015000E+00  3.078514393E-01
  1.547118000E+00  6.872442990E-02
  6.130130000E-01  2.224445000E-04
  2.460680000E-01  1.976748900E-03
  9.908700000E-02  2.057859400E-03
  3.468000000E-02  4.182020000E-04
   s  14
  5.055750100E+04 -2.507420000E-05
  7.524785600E+03 -1.175945000E-04
  1.694327600E+03 -5.456275000E-04
  4.728227900E+02 -2.245077100E-03
  1.517107500E+02 -8.043471800E-03
  5.391874600E+01 -2.442588710E-02
  2.065931100E+01 -6.136791180E-02
  8.383976000E+00 -1.177767835E-01
  3.577015000E+00 -1.550487783E-01
  1.547118000E+00 -1.933316860E-02
  6.130130000E-01  3.996930678E-01
  2.460680000E-01  5.589420949E-01
  9.908700000E-02  1.711195023E-01
  3.468000000E-02  7.456244600E-03
   p   9
  8.333315500E+01  1.344656000E-03
  1.955761100E+01  1.023555500E-02
  6.080365000E+00  4.520067100E-02
  2.179317000E+00  1.410756198E-01
  8.651500000E-01  3.047388085E-01
  3.619440000E-01  3.995281011E-01
  1.547400000E-01  2.719163432E-01
  6.542900000E-02  5.857669330E-02
  2.290000000E-02 -1.263813000E-04
 
[MO]
Sym=     1a  
Ene=   -12.5380
Spin= Alpha
Occup=    2.00000
   1         0.70676420
   2        -0.00288846
   3         0.00000000
   4         0.00000000
   5         0.00158225
   6         0.70676420
   7        -0.00288846
   8        -0.00000000
   9         0.00000000
  10        -0.00158225
Sym=     2a  
Ene=   -12.5350
Spin= Alpha
Occup=    2.00000
   1        -0.70743742
   2         0.00228808
   3         0.00000000
   4         0.00000000
   5        -0.00122567
   6         0.70743742
   7        -0.00228808
   8         0.00000000
   9         0.00000000
  10        -0.00122567
Sym=     3a  
Ene=    -1.9978
Spin= Alpha
Occup=    2.00000
   1        -0.06277786
   2         0.43358958
   3         0.00000000
   4         0.00000000
   5         0.28974997
   6        -0.06277786
   7         0.43358958
   8        -0.00000000
   9         0.00000000
  10        -0.28974997
Sym=     4a  
Ene=    -1.3195
Spin= Alpha
Occup=    2.00000
   1         0.00000000
   2        -0.00000000
   3        -0.22914482
   4         0.55756007
   5         0.00000000
   6        -0.00000000
   7         0.00000000
   8        -0.22914482
   9         0.55756007
  10         0.00000000
Sym=     5a  
Ene=    -1.0291
Spin= Alpha
Occup=    0.47983
   1        -0.00000000
   2        -0.00000000
   3         0.55756007
   4         0.22914482
   5         0.00000000
   6         0.00000000
   7         0.00000000
   8         0.55756007
   9         0.22914482
  10         0.00000000
Sym=     6a  
Ene=    -0.0043
Spin= Alpha
Occup=    1.52017
   1        -0.03618169
   2        -0.80202841
   3        -0.00000000
   4        -0.00000000
   5         0.19288328
   6         0.03618169
   7         0.80202841
   8        -0.00000000
   9        -0.00000000
  10         0.19288328
Sym=     7a  
Ene=    -0.9166
Spin= Alpha
Occup=    0.00000
   1         0.04589993
   2         0.44138392
   3        -0.00000000
   4         0.00000000
   5        -0.62782199
   6         0.04589993
   7         0.44138392
   8        -0.00000000
   9        -0.00000000
  10         0.62782199
Sym=     8a  
Ene=    -0.6459
Spin= Alpha
Occup=    0.00000
   1         0.00000000
   2         0.00000000
   3         0.34025985
   4        -0.82792752
   5        -0.00000000
   6        -0.00000000
   7         0.00000000
   8        -0.34025985
   9         0.82792752
  10         0.00000000
Sym=     9a  
Ene=    -0.6023
Spin= Alpha
Occup=    0.00000
   1        -0.00000000
   2         0.00000000
   3        -0.82792752
   4        -0.34025985
   5        -0.00000000
   6         0.00000000
   7         0.00000000
   8         0.82792752
   9         0.34025985
  10         0.00000000
Sym=    10a  
Ene=     0.0686
Spin= Alpha
Occup=    0.00000
   1        -0.25276344
   2        -1.42089892
   3         0.00000000
   4         0.00000000
   5        -1.29094005
   6         0.25276344
   7         1.42089892
   8        -0.00000000
   9         0.00000000
  10        -1.29094005
