[Molden Format]
[N_Atoms]
                     2
[Atoms] (AU)
C1          1      6           0.00000000      0.00000000      0.00000000
C2          2      6           0.00000000      0.00000000      2.26767135
[Charge] (Mulliken)
  2.688871347800159E-011
 -2.689670708377889E-011
[GTO] (AU)
   1
   s  14
  5.055750100E+04  1.128874000E-04
  7.524785600E+03  5.295373000E-04
  1.694327600E+03  2.450038300E-03
  4.728227900E+02  1.005398470E-02
  1.517107500E+02  3.545398060E-02
  5.391874600E+01  1.044071086E-01
  2.065931100E+01  2.412894918E-01
  8.383976000E+00  3.834225483E-01
  3.577015000E+00  3.078514393E-01
  1.547118000E+00  6.872442990E-02
  6.130130000E-01  2.224445000E-04
  2.460680000E-01  1.976748900E-03
  9.908700000E-02  2.057859400E-03
  3.468000000E-02  4.182020000E-04
   s  14
  5.055750100E+04 -2.507420000E-05
  7.524785600E+03 -1.175945000E-04
  1.694327600E+03 -5.456275000E-04
  4.728227900E+02 -2.245077100E-03
  1.517107500E+02 -8.043471800E-03
  5.391874600E+01 -2.442588710E-02
  2.065931100E+01 -6.136791180E-02
  8.383976000E+00 -1.177767835E-01
  3.577015000E+00 -1.550487783E-01
  1.547118000E+00 -1.933316860E-02
  6.130130000E-01  3.996930678E-01
  2.460680000E-01  5.589420949E-01
  9.908700000E-02  1.711195023E-01
  3.468000000E-02  7.456244600E-03
   p   9
  8.333315500E+01  1.344656000E-03
  1.955761100E+01  1.023555500E-02
  6.080365000E+00  4.520067100E-02
  2.179317000E+00  1.410756198E-01
  8.651500000E-01  3.047388085E-01
  3.619440000E-01  3.995281011E-01
  1.547400000E-01  2.719163432E-01
  6.542900000E-02  5.857669330E-02
  2.290000000E-02 -1.263813000E-04
 
   2
   s  14
  5.055750100E+04  1.128874000E-04
  7.524785600E+03  5.295373000E-04
  1.694327600E+03  2.450038300E-03
  4.728227900E+02  1.005398470E-02
  1.517107500E+02  3.545398060E-02
  5.391874600E+01  1.044071086E-01
  2.065931100E+01  2.412894918E-01
  8.383976000E+00  3.834225483E-01
  3.577015000E+00  3.078514393E-01
  1.547118000E+00  6.872442990E-02
  6.130130000E-01  2.224445000E-04
  2.460680000E-01  1.976748900E-03
  9.908700000E-02  2.057859400E-03
  3.468000000E-02  4.182020000E-04
   s  14
  5.055750100E+04 -2.507420000E-05
  7.524785600E+03 -1.175945000E-04
  1.694327600E+03 -5.456275000E-04
  4.728227900E+02 -2.245077100E-03
  1.517107500E+02 -8.043471800E-03
  5.391874600E+01 -2.442588710E-02
  2.065931100E+01 -6.136791180E-02
  8.383976000E+00 -1.177767835E-01
  3.577015000E+00 -1.550487783E-01
  1.547118000E+00 -1.933316860E-02
  6.130130000E-01  3.996930678E-01
  2.460680000E-01  5.589420949E-01
  9.908700000E-02  1.711195023E-01
  3.468000000E-02  7.456244600E-03
   p   9
  8.333315500E+01  1.344656000E-03
  1.955761100E+01  1.023555500E-02
  6.080365000E+00  4.520067100E-02
  2.179317000E+00  1.410756198E-01
  8.651500000E-01  3.047388085E-01
  3.619440000E-01  3.995281011E-01
  1.547400000E-01  2.719163432E-01
  6.542900000E-02  5.857669330E-02
  2.290000000E-02 -1.263813000E-04
 
[MO]
Sym=     1a  
Ene=   -11.4390
Spin= Alpha
Occup=    1.00000
   1         0.70669618
   2        -0.00188027
   3        -0.00000000
   4         0.00000000
   5         0.00159186
   6         0.70669618
   7        -0.00188027
   8         0.00000000
   9         0.00000000
  10        -0.00159186
Sym=     1a  
Ene=   -11.4390
Spin= Beta
Occup=    1.00000
   1         0.70669618
   2        -0.00188027
   3        -0.00000000
   4         0.00000000
   5         0.00159186
   6         0.70669618
   7        -0.00188027
   8         0.00000000
   9         0.00000000
  10        -0.00159186
Sym=     2a  
Ene=   -11.4360
Spin= Alpha
Occup=    1.00000
   1        -0.70773677
   2        -0.00038841
   3        -0.00000000
   4         0.00000000
   5        -0.00213869
   6         0.70773677
   7         0.00038841
   8         0.00000000
   9         0.00000000
  10        -0.00213869
Sym=     2a  
Ene=   -11.4360
Spin= Beta
Occup=    1.00000
   1        -0.70773677
   2        -0.00038841
   3        -0.00000000
   4         0.00000000
   5        -0.00213869
   6         0.70773677
   7         0.00038841
   8         0.00000000
   9         0.00000000
  10        -0.00213869
Sym=     3a  
Ene=    -1.1108
Spin= Alpha
Occup=    1.00000
   1        -0.05837624
   2         0.48060798
   3        -0.00000000
   4        -0.00000000
   5         0.21709048
   6        -0.05837624
   7         0.48060798
   8        -0.00000000
   9         0.00000000
  10        -0.21709048
Sym=     3a  
Ene=    -1.1108
Spin= Beta
Occup=    1.00000
   1        -0.05837624
   2         0.48060798
   3        -0.00000000
   4        -0.00000000
   5         0.21709048
   6        -0.05837624
   7         0.48060798
   8        -0.00000000
   9         0.00000000
  10        -0.21709048
Sym=     4a  
Ene=    -0.5249
Spin= Alpha
Occup=    1.00000
   1        -0.01781843
   2        -0.70370237
   3         0.00000000
   4        -0.00000000
   5         0.28009347
   6         0.01781843
   7         0.70370237
   8         0.00000000
   9        -0.00000000
  10         0.28009347
Sym=     4a  
Ene=    -0.5249
Spin= Beta
Occup=    1.00000
   1        -0.01781843
   2        -0.70370237
   3         0.00000000
   4        -0.00000000
   5         0.28009347
   6         0.01781843
   7         0.70370237
   8         0.00000000
   9        -0.00000000
  10         0.28009347
Sym=     5a  
Ene=    -0.4980
Spin= Alpha
Occup=    1.00000
   1         0.00000000
   2         0.00000000
   3         0.50466817
   4        -0.32968262
   5        -0.00000000
   6        -0.00000000
   7        -0.00000000
   8         0.50466817
   9        -0.32968262
  10        -0.00000000
Sym=     5a  
Ene=    -0.4980
Spin= Beta
Occup=    1.00000
   1         0.00000000
   2         0.00000000
   3         0.50466817
   4        -0.32968262
   5        -0.00000000
   6        -0.00000000
   7        -0.00000000
   8         0.50466817
   9        -0.32968262
  10        -0.00000000
Sym=     6a  
Ene=    -0.4980
Spin= Alpha
Occup=    1.00000
   1        -0.00000000
   2        -0.00000000
   3         0.32968262
   4         0.50466817
   5         0.00000000
   6         0.00000000
   7         0.00000000
   8         0.32968262
   9         0.50466817
  10         0.00000000
Sym=     6a  
Ene=    -0.4980
Spin= Beta
Occup=    1.00000
   1        -0.00000000
   2        -0.00000000
   3         0.32968262
   4         0.50466817
   5         0.00000000
   6         0.00000000
   7         0.00000000
   8         0.32968262
   9         0.50466817
  10         0.00000000
Sym=     7a  
Ene=    -0.1091
Spin= Alpha
Occup=    0.00000
   1         0.05230895
   2         0.38966712
   3         0.00000000
   4         0.00000000
   5        -0.65649614
   6         0.05230895
   7         0.38966712
   8        -0.00000000
   9        -0.00000000
  10         0.65649614
Sym=     7a  
Ene=    -0.1091
Spin= Beta
Occup=    0.00000
   1         0.05230895
   2         0.38966712
   3         0.00000000
   4         0.00000000
   5        -0.65649614
   6         0.05230895
   7         0.38966712
   8        -0.00000000
   9        -0.00000000
  10         0.65649614
Sym=     8a  
Ene=     0.2108
Spin= Alpha
Occup=    0.00000
   1         0.00000000
   2         0.00000000
   3        -0.04874166
   4        -0.89379248
   5        -0.00000000
   6         0.00000000
   7        -0.00000000
   8         0.04874166
   9         0.89379248
  10         0.00000000
Sym=     8a  
Ene=     0.2108
Spin= Beta
Occup=    0.00000
   1         0.00000000
   2         0.00000000
   3        -0.04874166
   4        -0.89379248
   5        -0.00000000
   6         0.00000000
   7        -0.00000000
   8         0.04874166
   9         0.89379248
  10         0.00000000
Sym=     9a  
Ene=     0.2108
Spin= Alpha
Occup=    0.00000
   1        -0.00000000
   2        -0.00000000
   3        -0.89379248
   4         0.04874166
   5        -0.00000000
   6         0.00000000
   7         0.00000000
   8         0.89379248
   9        -0.04874166
  10        -0.00000000
Sym=     9a  
Ene=     0.2108
Spin= Beta
Occup=    0.00000
   1        -0.00000000
   2        -0.00000000
   3        -0.89379248
   4         0.04874166
   5        -0.00000000
   6         0.00000000
   7         0.00000000
   8         0.89379248
   9        -0.04874166
  10        -0.00000000
Sym=    10a  
Ene=     1.0187
Spin= Alpha
Occup=    0.00000
   1         0.25388452
   2         1.47207723
   3        -0.00000000
   4         0.00000000
   5         1.27486264
   6        -0.25388452
   7        -1.47207723
   8         0.00000000
   9        -0.00000000
  10         1.27486264
Sym=    10a  
Ene=     1.0187
Spin= Beta
Occup=    0.00000
   1         0.25388452
   2         1.47207723
   3        -0.00000000
   4         0.00000000
   5         1.27486264
   6        -0.25388452
   7        -1.47207723
   8         0.00000000
   9        -0.00000000
  10         1.27486264
