[Molden Format]
[N_Atoms]
                     2
[Atoms] (AU)
C1          1      6           0.00000000      0.00000000      0.00000000
C2          2      6           0.00000000      0.00000000      2.26767135
[Charge] (Mulliken)
  6.163958232718869E-013
 -6.235012506294879E-013
[GTO] (AU)
   1
   s  14
  5.055750100E+04  1.128874000E-04
  7.524785600E+03  5.295373000E-04
  1.694327600E+03  2.450038300E-03
  4.728227900E+02  1.005398470E-02
  1.517107500E+02  3.545398060E-02
  5.391874600E+01  1.044071086E-01
  2.065931100E+01  2.412894918E-01
  8.383976000E+00  3.834225483E-01
  3.577015000E+00  3.078514393E-01
  1.547118000E+00  6.872442990E-02
  6.130130000E-01  2.224445000E-04
  2.460680000E-01  1.976748900E-03
  9.908700000E-02  2.057859400E-03
  3.468000000E-02  4.182020000E-04
   s  14
  5.055750100E+04 -2.507420000E-05
  7.524785600E+03 -1.175945000E-04
  1.694327600E+03 -5.456275000E-04
  4.728227900E+02 -2.245077100E-03
  1.517107500E+02 -8.043471800E-03
  5.391874600E+01 -2.442588710E-02
  2.065931100E+01 -6.136791180E-02
  8.383976000E+00 -1.177767835E-01
  3.577015000E+00 -1.550487783E-01
  1.547118000E+00 -1.933316860E-02
  6.130130000E-01  3.996930678E-01
  2.460680000E-01  5.589420949E-01
  9.908700000E-02  1.711195023E-01
  3.468000000E-02  7.456244600E-03
   p   9
  8.333315500E+01  1.344656000E-03
  1.955761100E+01  1.023555500E-02
  6.080365000E+00  4.520067100E-02
  2.179317000E+00  1.410756198E-01
  8.651500000E-01  3.047388085E-01
  3.619440000E-01  3.995281011E-01
  1.547400000E-01  2.719163432E-01
  6.542900000E-02  5.857669330E-02
  2.290000000E-02 -1.263813000E-04
 
   2
   s  14
  5.055750100E+04  1.128874000E-04
  7.524785600E+03  5.295373000E-04
  1.694327600E+03  2.450038300E-03
  4.728227900E+02  1.005398470E-02
  1.517107500E+02  3.545398060E-02
  5.391874600E+01  1.044071086E-01
  2.065931100E+01  2.412894918E-01
  8.383976000E+00  3.834225483E-01
  3.577015000E+00  3.078514393E-01
  1.547118000E+00  6.872442990E-02
  6.130130000E-01  2.224445000E-04
  2.460680000E-01  1.976748900E-03
  9.908700000E-02  2.057859400E-03
  3.468000000E-02  4.182020000E-04
   s  14
  5.055750100E+04 -2.507420000E-05
  7.524785600E+03 -1.175945000E-04
  1.694327600E+03 -5.456275000E-04
  4.728227900E+02 -2.245077100E-03
  1.517107500E+02 -8.043471800E-03
  5.391874600E+01 -2.442588710E-02
  2.065931100E+01 -6.136791180E-02
  8.383976000E+00 -1.177767835E-01
  3.577015000E+00 -1.550487783E-01
  1.547118000E+00 -1.933316860E-02
  6.130130000E-01  3.996930678E-01
  2.460680000E-01  5.589420949E-01
  9.908700000E-02  1.711195023E-01
  3.468000000E-02  7.456244600E-03
   p   9
  8.333315500E+01  1.344656000E-03
  1.955761100E+01  1.023555500E-02
  6.080365000E+00  4.520067100E-02
  2.179317000E+00  1.410756198E-01
  8.651500000E-01  3.047388085E-01
  3.619440000E-01  3.995281011E-01
  1.547400000E-01  2.719163432E-01
  6.542900000E-02  5.857669330E-02
  2.290000000E-02 -1.263813000E-04
 
[MO]
Sym=     1a  
Ene=   -11.4150
Spin= Alpha
Occup=    2.00000
   1         0.70667600
   2        -0.00173537
   3         0.00000000
   4         0.00000000
   5         0.00167856
   6         0.70667600
   7        -0.00173537
   8        -0.00000000
   9        -0.00000000
  10        -0.00167856
Sym=     2a  
Ene=   -11.4120
Spin= Alpha
Occup=    2.00000
   1        -0.70767681
   2         0.00034691
   3         0.00000000
   4         0.00000000
   5        -0.00207759
   6         0.70767680
   7        -0.00034691
   8        -0.00000000
   9        -0.00000000
  10        -0.00207759
Sym=     3a  
Ene=    -1.0900
Spin= Alpha
Occup=    2.00000
   1        -0.06211534
   2         0.45222070
   3        -0.00000000
   4         0.00000000
   5         0.26240950
   6        -0.06211534
   7         0.45222070
   8        -0.00000000
   9        -0.00000000
  10        -0.26240950
Sym=     4a  
Ene=    -0.4846
Spin= Alpha
Occup=    2.00000
   1        -0.00000000
   2         0.00000000
   3         0.49630979
   4        -0.34213620
   5        -0.00000000
   6        -0.00000000
   7        -0.00000000
   8         0.49630979
   9        -0.34213620
  10        -0.00000000
Sym=     5a  
Ene=    -0.4846
Spin= Alpha
Occup=    2.00000
   1         0.00000000
   2         0.00000000
   3         0.34213620
   4         0.49630979
   5         0.00000000
   6        -0.00000000
   7         0.00000000
   8         0.34213620
   9         0.49630979
  10         0.00000000
Sym=     6a  
Ene=    -0.4436
Spin= Alpha
Occup=    1.52736
   1        -0.00626056
   2        -0.63340160
   3        -0.00000000
   4        -0.00000000
   5         0.33998233
   6         0.00626056
   7         0.63340160
   8         0.00000000
   9        -0.00000000
  10         0.33998233
Sym=     7a  
Ene=     0.0000
Spin= Alpha
Occup=    0.47264
   1         0.04810632
   2         0.42228125
   3        -0.00000000
   4        -0.00000000
   5        -0.63973153
   6         0.04810632
   7         0.42228125
   8         0.00000000
   9        -0.00000000
  10         0.63973153
Sym=     8a  
Ene=     0.2284
Spin= Alpha
Occup=    0.00000
   1         0.00000000
   2         0.00000000
   3        -0.06449777
   4        -0.89279381
   5         0.00000000
   6        -0.00000000
   7         0.00000000
   8         0.06449777
   9         0.89279381
  10         0.00000000
Sym=     9a  
Ene=     0.2284
Spin= Alpha
Occup=    0.00000
   1        -0.00000000
   2         0.00000000
   3        -0.89279381
   4         0.06449777
   5        -0.00000000
   6         0.00000000
   7         0.00000000
   8         0.89279381
   9        -0.06449777
  10        -0.00000000
Sym=    10a  
Ene=     1.0353
Spin= Alpha
Occup=    0.00000
   1        -0.25459875
   2        -1.50366580
   3         0.00000000
   4        -0.00000000
   5        -1.26021402
   6         0.25459875
   7         1.50366580
   8        -0.00000000
   9         0.00000000
  10        -1.26021402
