   This run of MOLCAS is using the pymolcas driver

                             OPE
                             OPE          NMOL  CASOP  ENMOLC A   SO
                 OPE        NMOLC        AS  OP EN  MO LC     AS  OP
                OPENM       OL CA        SO  PE NM  OL CA     SOP EN
                OP EN      MO   LC       AS  OP ENMOL  CASO   PENMOL
                OP  EN     MO   LC       AS  OP EN     MO     LC ASO
               OP   E  NMOL  C  AS       OP  EN MO     LC     AS  OP
               OP  E   NMO   LC AS        OPEN  MO     LCASOP EN   M
               O  PEN   MO  LCA  SO
            OPE   NMO   L   CAS    OP
        OPENMOL  CASOP     ENMOL   CASOPE
     OPENMOLCA   SOPENMOLCASOPEN   MOLCASOPE
    OPENMOLCAS   OP           EN   MOL    CAS
    OPENMOLCAS       OP  ENM        O     LCA
    OPENMOLCAS    OPEN  MOLCASO     P  E  NMO
    OPENMOLCAS     OP               E  N  MOL
    OPENMOLCA   SO           PENM   O  L  CAS    OPEN    MO    LCAS
    OPENMOLCA   SOP           ENM   O  L  CAS   OP  EN  MOLC  AS   O
    OPENMOLCA   SOPE           NM      O  LCA   S      OP  EN MO
    OPENMOLC                AS         O  PEN   M      OL  CA  SOPE
    OPENMO        LCASOPE  NMOL        C  ASO   P      ENMOLC     AS
    OPE     NMO      LCA  SO     P     E   NM   OL  CA SO  PE N   MO
          OPENMOLCA            SOPE   NMO        LCAS  O    P  ENMO
     OPENMOLCASOPENMOLCASOPENMOLCASOPENMOLCA
        OPENMOLCASOPENMOLCASOPENMOLCASOPE
            OPENMOLCASOPENMOLCASOPENM
               OPENMOLCASOPENMOLCA        version: ea724fe96-dirty
                   OPENMOLCASO
                       OPE                tag:

 OpenMolcas is free software; you can redistribute it and/or modify it
 under the terms of the GNU Lesser General Public License version 2.1.
 OpenMolcas is distributed in the hope that it will be useful, but it
 is provided "as is" and without any express or implied warranties.
 For more details see the full text of the license in the file
 LICENSE or in <http://www.gnu.org/licenses/>.

                 Copyright (C) The OpenMolcas Authors
           For the author list and the recommended citation,
                   consult the file CONTRIBUTORS.md

           *************************************************
           * pymolcas version py2.28                       *
           *   build c4a6d18ded8cb6cad61d2372a9abd97c      *
           *   (after the EMIL interpreter by V. Veryazov) *
           *************************************************

configuration info
------------------
C Compiler ID: Intel
C flags: -std=gnu99
Fortran Compiler ID: Intel
Fortran flags: -fpp -i8 -r8 -heap-arrays
Definitions: _MOLCAS_;_I8_;_LINUX_
Parallel: OFF (GA=OFF)


   -------------------------------------------------------------------------------
  |
  |              Project: 7.62
  |       Submitted from: /home/grierjones/DDCASPT2/iron_oxo_DDCASPT2/cluster/7.62
  |         Scratch area: /tmp/7.62
  |      Save outputs to: /home/grierjones/DDCASPT2/iron_oxo_DDCASPT2/cluster/7.62
  |               Molcas: /home/grierjones/Test/build
  |
  | Scratch area is empty
  |
  |       MOLCAS_DRIVER = /usr/local/pymolcas
  | MOLCAS_KEEP_WORKDIR = NO
  |  MOLCAS_NEW_WORKDIR = YES
  |       MOLCAS_NPROCS = 1
  |        MOLCAS_PRINT = NORMAL
  |       MOLCAS_SOURCE = /home/grierjones/Test/build
  |    MOLCAS_STRUCTURE = 0
  |
   -------------------------------------------------------------------------------

++ ---------   Input file   ---------

&GATEWAY
coord=7.62.xyz
Basis = ANO-RCC-VDZP
Group = nosymm
Expert
End of Input

&SEWARD
End of Input

&SCF
UHF
charge
2
spin
5

>>> COPY $WorkDir/7.62.scf.h5 $CurrDir/

&RASSCF
Title= RASSCF
FileOrb
/home/grierjones/DDCASPT2/iron_oxo_DDCASPT2/cluster/7.60/7.60.RasOrb
NACTEL
10 0 0
RAS2
14
Symmetry
1
Spin
5
charge
2
orblisting
all
ITERation
300 200

>>> COPY $WorkDir/7.62.rasscf.h5 $CurrDir/

>>> COPY $WorkDir/GMJ_Fock_MO.csv $CurrDir/7.62.GMJ_Fock_MO.csv

>>> COPY $WorkDir/GMJ_PT2_Fock_MO.csv $CurrDir/7.62.GMJ_PT2_Fock_MO.csv

&MOTRA
Frozen=0
LUMORB

>>> COPY $WorkDir/GMJ_one_int_indx.csv $CurrDir/7.62.GMJ_one_int_indx.csv

>>> COPY $WorkDir/GMJ_one_int.csv $CurrDir/7.62.GMJ_one_int.csv

>>> COPY $WorkDir/GMJ_two_int_indx.csv $CurrDir/7.62.GMJ_two_int_indx.csv

>>> COPY $WorkDir/GMJ_two_int.csv $CurrDir/7.62.GMJ_two_int.csv

&CASPT2
Frozen
0
MAXITER
50

>>> FOREACH i IN (B,E,F,G,H)

  >>> FOREACH j IN (P,M)

    >>> IF (-FILE GMJ_e2_${i}_${j}.csv)

      >>> COPY $WorkDir/GMJ_RHS_${i}_${j}.csv $CurrDir/GMJ_RHS_${i}_${j}.csv

      >>> COPY $WorkDir/GMJ_IVECW_${i}_${j}.csv $CurrDir/GMJ_IVECW_${i}_${j}.csv

      >>> COPY $WorkDir/GMJ_IVECX_${i}_${j}.csv $CurrDir/GMJ_IVECX_${i}_${j}.csv

      >>> COPY $WorkDir/GMJ_IVECC2_${i}_${j}.csv $CurrDir/GMJ_IVECC2_${i}_${j}.csv

      >>> COPY $WorkDir/GMJ_e2_${i}_${j}.csv $CurrDir/GMJ_e2_${i}_${j}.csv

    >>> END IF

  >>> END FOREACH

>>> END FOREACH

>>> FOREACH i IN (A,C,D)

  >>> IF (-FILE GMJ_e2_$i.csv)

    >>> COPY $WorkDir/GMJ_RHS_$i.csv $CurrDir/GMJ_RHS_$i.csv

    >>> COPY $WorkDir/GMJ_IVECW_$i.csv $CurrDir/GMJ_IVECW_$i.csv

    >>> COPY $WorkDir/GMJ_IVECX_$i.csv $CurrDir/GMJ_IVECX_$i.csv

    >>> COPY $WorkDir/GMJ_IVECC2_$i.csv $CurrDir/GMJ_IVECC2_$i.csv

    >>> COPY $WorkDir/GMJ_e2_$i.csv $CurrDir/GMJ_e2_$i.csv

  >>> END IF

>>> END FOREACH

-- ----------------------------------

--- Start Module: gateway at Sun Dec 22 22:17:09 2024 ---
 
()()()()()()()()()()()()()()()()()()()()()()()()()()()()()()()()()()()()()()()()()()()()()()()()()()

                                              &GATEWAY

                                   only a single process is used
                       available to each process: 2.0 GB of memory, 1 thread?
()()()()()()()()()()()()()()()()()()()()()()()()()()()()()()()()()()()()()()()()()()()()()()()()()()
 
 ###############################################################################
 ###############################################################################
 ###                                                                         ###
 ###                                                                         ###
 ###                                                                         ###
 ###    WARNING: EXPERT option is ON!                                        ###
 ###                                                                         ###
 ###                                                                         ###
 ###############################################################################
 ###############################################################################
 
++    Symmetry information:
      ---------------------
 
                    Character Table for C1 
 
                             E  
                    a        1  x, y, xy, Rz, z, xz, Ry, yz, Rx, I
--
 
 
++    Basis set information:
      ----------------------
 
 
      Basis set label: O.ANO-RCC...3S2P1D.
 
      Electronic valence basis set:
      ------------------
      Associated Effective Charge   8.000000 au
      Associated Actual Charge      8.000000 au
      Nuclear Model: Point charge
 
      Shell  nPrim  nBasis  Cartesian Spherical Contaminant
         s      14       3        X                  
         p       9       2        X                  
         d       4       1                 X         
 
 
      Basis set label: FE.ANO-RCC...5S4P2D1F.
 
      Electronic valence basis set:
      ------------------
      Associated Effective Charge  26.000000 au
      Associated Actual Charge     26.000000 au
      Nuclear Model: Point charge
 
      Shell  nPrim  nBasis  Cartesian Spherical Contaminant
         s      21       5        X                  
         p      15       4        X                  
         d      10       2                 X         
         f       6       1                 X         
--
 
 
++    Molecular structure info:
      -------------------------
 
                    ************************************************ 
                    **** Cartesian Coordinates / Bohr, Angstrom **** 
                    ************************************************ 
 
     Center  Label                x              y              z                     x              y              z
        1      O1               0.000000       0.000000       8.708274              0.000000       0.000000       4.608220
        2      FE2              0.000000       0.000000      -5.684712              0.000000       0.000000      -3.008220
--
 
 
            Nuclear Potential Energy             14.45148387 au
 
 ###############################################################################
 ###############################################################################
 ###                                                                         ###
 ###                                                                         ###
 ###    There were warnings during the execution                             ###
 ###    Please, check the output with care!                                  ###
 ###                                                                         ###
 ###                                                                         ###
 ###############################################################################
 ###############################################################################
--- Stop Module: gateway at Sun Dec 22 22:17:09 2024 /rc=_RC_ALL_IS_WELL_ ---
*** files: xmldump
    saved to directory /home/grierjones/DDCASPT2/iron_oxo_DDCASPT2/cluster/7.62

--- Start Module: seward at Sun Dec 22 22:17:09 2024 ---
 
()()()()()()()()()()()()()()()()()()()()()()()()()()()()()()()()()()()()()()()()()()()()()()()()()()

                                              &SEWARD

                                   only a single process is used
                       available to each process: 2.0 GB of memory, 1 thread?
()()()()()()()()()()()()()()()()()()()()()()()()()()()()()()()()()()()()()()()()()()()()()()()()()()
 
 ###############################################################################
 ###############################################################################
 ###                                                                         ###
 ###                                                                         ###
 ###                                                                         ###
 ###    WARNING: EXPERT option is ON!                                        ###
 ###                                                                         ###
 ###                                                                         ###
 ###############################################################################
 ###############################################################################
               SEWARD will generate:
                  Multipole Moment integrals up to order  2
                  Kinetic Energy integrals
                  Nuclear Attraction integrals (point charge)
                  One-Electron Hamiltonian integrals
                  Velocity integrals
                  Relativistic Douglas-Kroll-Hess integrals:
                    - Parametrization         : EXP
                    - DKH order of Hamiltonian: 2
                    - DKH order of Properties : 0
                         - multipole moment operators
                         - electric potential operators
                         - contact operators
                  Atomic mean-field integrals
                  Two-Electron Repulsion integrals
 
                   Integrals are discarded if absolute value <: 0.10E-13
                   Integral cutoff threshold is set to       <: 0.10E-15
 
            Nuclear Potential Energy             14.45148387 au
 
 
      Basis set specifications :
      Symmetry species         a  
      Basis functions           48
 
 
  Input file to MOLDEN was generated!
 
 ###############################################################################
 ###############################################################################
 ###                                                                         ###
 ###                                                                         ###
 ###    There were warnings during the execution                             ###
 ###    Please, check the output with care!                                  ###
 ###                                                                         ###
 ###                                                                         ###
 ###############################################################################
 ###############################################################################
--- Stop Module: seward at Sun Dec 22 22:17:10 2024 /rc=_RC_ALL_IS_WELL_ ---
*** files: 7.62.GssOrb 7.62.guessorb.h5 7.62.guessorb.molden xmldump
    saved to directory /home/grierjones/DDCASPT2/iron_oxo_DDCASPT2/cluster/7.62

*** symbolic link created: INPORB -> 7.62.GssOrb
--- Start Module: scf at Sun Dec 22 22:17:10 2024 ---
 
()()()()()()()()()()()()()()()()()()()()()()()()()()()()()()()()()()()()()()()()()()()()()()()()()()

                                                &SCF

                                   only a single process is used
                       available to each process: 2.0 GB of memory, 1 thread?
()()()()()()()()()()()()()()()()()()()()()()()()()()()()()()()()()()()()()()()()()()()()()()()()()()
 
 *** Possible bug in opening file
 *** isFreeUnit resets the unit number
++    Input section:
      --------------
 
      Header of the integral files:
      
       Integrals generated by seward 4.2.0  , Sun Dec 22 22:17:09 2024
 
 
      Cartesian coordinates in Angstrom:
      -----------------------------------------------------
      No.  Label        X            Y            Z        
      -----------------------------------------------------
       1   O1         0.00000000   0.00000000   4.60822000
       2   FE2        0.00000000   0.00000000  -3.00822000
      -----------------------------------------------------
      Nuclear repulsion energy =   14.45148387
--
 
++    Orbital specifications:
      -----------------------
 
      Symmetry species               1
                                     a
      Frozen orbitals                0
      Start temperature = 0.500
      End temperature   = 0.010
      Temperature Factor= 0.460
      Deleted orbitals               0
      Total number of orbitals      48
      Number of basis functions     48
--
 
      Molecular charge                           2.000
 
++    Optimization specifications:
      ----------------------------
 
      SCF Algorithm: Conventional USCF
      D(i)-D(i-1) density differences are used
      Number of density matrices in core                5
      Maximum number of NDDO SCF iterations           400
      Maximum number of HF SCF iterations             400
      Threshold for SCF energy change            0.10E-08
      Threshold for density matrix               0.10E-03
      Threshold for Fock matrix                  0.15E-03
      Threshold for linear dependence            0.10E-08
      Threshold at which DIIS is turned on       0.15E+00
      Threshold at which QNR/C2DIIS is turned on 0.75E-01
      Threshold for Norm(delta) (QNR/C2DIIS)     0.20E-04
      DIIS extrapolation of the SCF procedure
      All orbitals punched on: UHFORB
--
 
      Input vectors read from INPORB
      Orbital file label: *Guess orbitals
 
 
++ Convergence information
                               UHF SCF        iterations: Energy and convergence statistics
 
Iter     Tot. SCF        One-elec.       Two-elec.     Energy      Max Dij or  Max Fij      DNorm      TNorm      AccCon     Time
         Energy          Energy          Energy        Change      Delta Norm                                                in Sec.
 
 The total and one-electron energies are shifted by a value of      1000. a.u.
 
   1  -343.331495484  -863.570342210   505.787362854   0.00E+00    0.16E+00*   0.35E+00*    0.75E+01   0.18E+03   None         0.
   2  -343.511219273  -859.687699019   501.724995874  -0.18E+00*   0.11E+00*   0.14E+00*    0.10E+01   0.18E+03   EDIIS        0.
   3  -341.581814064  -907.830045803   551.796747867   0.19E+01*   0.62E-01*   0.13E+00*    0.18E+01   0.19E+03   EDIIS        0.
   4  -342.730805400  -846.253605150   489.071315878  -0.11E+01*   0.77E-01*   0.59E-01*    0.15E+01   0.17E+03   EDIIS        0.
   5  -344.056494560  -881.639137049   523.131158618  -0.13E+01*   0.27E-01*   0.33E-01*    0.86E+00   0.18E+03   EDIIS        0.
   6  -344.042333749  -852.441833846   493.948016225   0.14E-01*   0.79E-01*   0.70E-01*    0.18E+01   0.17E+03   EDIIS        0.
   7  -343.916794472  -888.455453626   530.087175282   0.13E+00*   0.76E-01*   0.33E-01*    0.14E+01   0.18E+03   EDIIS        0.
   8  -344.466731469  -857.664637364   498.746422023  -0.55E+00*   0.24E-01*   0.37E-01*    0.96E+00   0.17E+03   EDIIS        0.
   9  -344.034781982  -875.672010315   517.185744462   0.43E+00*   0.20E+00*   0.12E+00*    0.28E+01   0.18E+03   EDIIS        0.
  10  -345.017184488  -876.652774883   517.184106523  -0.98E+00*   0.14E+00*   0.12E+00*    0.14E+01   0.18E+03   EDIIS        0.
  11  -345.132029841  -856.211446207   496.627932494  -0.11E+00*   0.15E+00*   0.15E+00*    0.17E+01   0.17E+03   EDIIS        0.
  12  -345.287852966  -863.060225452   503.320888615  -0.16E+00*   0.11E+00*   0.83E-01*    0.74E+00   0.18E+03   EDIIS        0.
  13  -345.296849220  -863.164307937   503.415974845  -0.90E-02*   0.32E-01*   0.21E-01*    0.22E+00   0.18E+03   EDIIS        0.
 
       Fermi aufbau procedure completed!
      nOcc(alpha)=   18
      nOcc(beta) =   14
 
  14  -345.297964952  -863.160302180   503.410853356  -0.11E-02*   0.19E-01*   0.11E-01*    0.74E-01   0.18E+03   EDIIS        0.
  15  -345.298198564  -863.196775418   503.447092983  -0.23E-03*   0.75E-02*   0.42E-02*    0.33E-01   0.18E+03   EDIIS        0.
  16  -345.298261116  -863.183938882   503.434193895  -0.63E-04*   0.51E-02*   0.28E-02*    0.16E-01   0.18E+03   EDIIS        0.
  17  -345.298279961  -863.190951489   503.441187657  -0.19E-04*   0.27E-02*   0.15E-02*    0.90E-02   0.18E+03   EDIIS        0.
  18  -345.298285958  -863.188185378   503.438415548  -0.60E-05*   0.24E-03*   0.20E-02*    0.50E-02   0.18E+03   c2DIIS       0.
  19  -345.298288887  -863.190696438   503.440923679  -0.29E-05*   0.22E-03*   0.89E-04     0.74E-03   0.18E+03   QNRc2DIIS    0.
  20  -345.298288908  -863.188200153   503.438427373  -0.21E-07*   0.13E-03*   0.33E-04     0.32E-03   0.18E+03   QNRc2DIIS    0.
  21  -345.298288914  -863.188688865   503.438916080  -0.55E-08*   0.68E-04*   0.16E-04     0.18E-03   0.18E+03   QNRc2DIIS    0.
  22  -345.298288914  -863.188873570   503.439100784  -0.79E-09    0.16E-04    0.32E-05     0.96E-04   0.18E+03   QNRc2DIIS    0.
 
       Convergence after 22 Macro Iterations
--
 
 *****************************************************************************************************************************
 *                                                                                                                           *
 *                                             SCF/KS-DFT Program, Final results                                             *
 *                                                                                                                           *
 *                                                                                                                           *
 *                                                                                                                           *
 *                                                       Final Results                                                       *
 *                                                                                                                           *
 *****************************************************************************************************************************
 
::    Total SCF energy                              -1345.2982889143
      One-electron energy                           -1863.1888735701
      Two-electron energy                             503.4391007841
      Nuclear repulsion energy                         14.4514838716
      Kinetic energy (interpolated)                  1399.7986755308
      Virial theorem                                    0.9610655535
      Total spin, S(S+1)                                8.0092302331
      Total spin, S                                     2.3738876514
      Max non-diagonal density matrix element           0.0000091367
      Max non-diagonal Fock matrix element              0.0000028244
 
 
      All orbitals with orbital energies smaller than  E(LUMO)+0.5 are printed
 
++    Molecular orbitals:
      -------------------
 
      Title: UHF orbitals (alpha)

      Molecular orbitals for symmetry species 1: a  
 
          Orbital            1         2         3         4         5         6         7         8         9        10    
          Energy         -264.6184  -33.4959  -28.5598  -28.5598  -28.5598  -20.7728   -5.4440   -3.9840   -3.9840   -3.9840
          Occ. No.          1.0000    1.0000    1.0000    1.0000    1.0000    1.0000    1.0000    1.0000    1.0000    1.0000
 
        1 O1     1s         0.0000   -0.0000   -0.0000   -0.0000    0.0000    1.0000   -0.0000    0.0000    0.0000   -0.0000
        2 O1     2s         0.0000   -0.0000   -0.0000   -0.0000   -0.0000   -0.0022   -0.0000    0.0000   -0.0000   -0.0000
        3 O1     3s         0.0000   -0.0000   -0.0000   -0.0000   -0.0000    0.0004   -0.0000    0.0000   -0.0000   -0.0000
        4 O1     2px       -0.0000    0.0000    0.0000    0.0000   -0.0000   -0.0000   -0.0000    0.0000   -0.0000    0.0000
        5 O1     3px        0.0000   -0.0000    0.0000    0.0000   -0.0000    0.0000    0.0000    0.0000   -0.0000    0.0000
        6 O1     2py        0.0000   -0.0000    0.0000   -0.0000   -0.0000   -0.0000    0.0000   -0.0000   -0.0000    0.0000
        7 O1     3py        0.0000   -0.0000    0.0000   -0.0000   -0.0000    0.0000    0.0000   -0.0000   -0.0000   -0.0000
        8 O1     2pz       -0.0000    0.0000    0.0000    0.0000    0.0000   -0.0000    0.0000   -0.0000    0.0000    0.0000
        9 O1     3pz       -0.0000    0.0000    0.0000    0.0000    0.0000    0.0000    0.0001   -0.0000    0.0000    0.0001
       10 O1     3d2-      -0.0000    0.0000   -0.0000    0.0000   -0.0000    0.0000   -0.0000    0.0000    0.0000    0.0000
       11 O1     3d1-       0.0000   -0.0000   -0.0000    0.0000    0.0000    0.0000    0.0000    0.0000    0.0000    0.0000
       12 O1     3d0       -0.0000   -0.0000   -0.0000   -0.0000   -0.0000    0.0009   -0.0000    0.0000   -0.0000   -0.0000
       13 O1     3d1+      -0.0000    0.0000   -0.0000   -0.0000    0.0000    0.0000    0.0000   -0.0000    0.0000   -0.0000
       14 O1     3d2+       0.0000    0.0000   -0.0000    0.0000    0.0000   -0.0000   -0.0000    0.0000   -0.0000   -0.0000
       15 FE2    1s         1.0000   -0.0000   -0.0000   -0.0000   -0.0000    0.0000    0.0000   -0.0000    0.0000    0.0000
       16 FE2    2s         0.0000    1.0000   -0.0000   -0.0000    0.0000    0.0000   -0.0035    0.0000   -0.0000   -0.0000
       17 FE2    3s        -0.0000    0.0035    0.0000    0.0000    0.0000    0.0000    0.9999    0.0000   -0.0000   -0.0000
       18 FE2    4s         0.0000   -0.0003    0.0000    0.0000    0.0000   -0.0000   -0.0077    0.0000    0.0000   -0.0000
       19 FE2    5s        -0.0000    0.0004    0.0000    0.0000    0.0000   -0.0000    0.0081   -0.0000    0.0000    0.0000
       20 FE2    2px        0.0000   -0.0000   -0.0000   -0.0058    1.0000   -0.0000   -0.0000    0.0007   -0.0034    0.0000
       21 FE2    3px       -0.0000    0.0000   -0.0000   -0.0000    0.0035   -0.0000    0.0000   -0.1964    0.9802   -0.0000
       22 FE2    4px        0.0000   -0.0000    0.0000    0.0000   -0.0006    0.0000    0.0000    0.0038   -0.0188    0.0000
       23 FE2    5px       -0.0000    0.0000   -0.0000   -0.0000    0.0015   -0.0000    0.0000   -0.0036    0.0178   -0.0000
       24 FE2    2py       -0.0000   -0.0000   -0.0000    1.0000    0.0058    0.0000   -0.0000   -0.0034   -0.0007   -0.0000
       25 FE2    3py        0.0000   -0.0000   -0.0000    0.0035    0.0000    0.0000   -0.0000    0.9802    0.1964    0.0000
       26 FE2    4py       -0.0000    0.0000    0.0000   -0.0006   -0.0000    0.0000    0.0000   -0.0188   -0.0038   -0.0000
       27 FE2    5py       -0.0000   -0.0000   -0.0000    0.0015    0.0000    0.0000   -0.0000    0.0178    0.0036    0.0000
       28 FE2    2pz        0.0000    0.0000    1.0000    0.0000    0.0000    0.0000   -0.0000    0.0000   -0.0000   -0.0035
       29 FE2    3pz       -0.0000    0.0000    0.0035    0.0000    0.0000    0.0000    0.0000   -0.0000    0.0000    0.9996
       30 FE2    4pz       -0.0000    0.0000   -0.0006   -0.0000   -0.0000   -0.0000    0.0000    0.0000   -0.0000   -0.0192
       31 FE2    5pz       -0.0000    0.0000    0.0015    0.0000    0.0000   -0.0000    0.0000   -0.0000    0.0000    0.0182
       32 FE2    3d2-      -0.0000    0.0000   -0.0000    0.0000   -0.0000    0.0000   -0.0000    0.0000   -0.0000    0.0000
       33 FE2    4d2-      -0.0000   -0.0000   -0.0000    0.0000    0.0000    0.0000   -0.0000    0.0000    0.0000   -0.0000
       34 FE2    3d1-      -0.0000    0.0000   -0.0000    0.0000    0.0000   -0.0000   -0.0000    0.0000    0.0000    0.0000
       35 FE2    4d1-       0.0000   -0.0000    0.0000   -0.0000   -0.0000   -0.0000    0.0000   -0.0000   -0.0000   -0.0000
       36 FE2    3d0       -0.0000    0.0000    0.0000    0.0000    0.0000   -0.0000   -0.0000   -0.0000    0.0000    0.0000
       37 FE2    4d0       -0.0000    0.0000    0.0000    0.0000    0.0000   -0.0000    0.0000    0.0000   -0.0000   -0.0000
       38 FE2    3d1+      -0.0000    0.0000   -0.0000   -0.0000    0.0000   -0.0000   -0.0000   -0.0000    0.0000   -0.0000
       39 FE2    4d1+       0.0000   -0.0000    0.0000    0.0000   -0.0000    0.0000    0.0000    0.0000   -0.0000    0.0000
       40 FE2    3d2+      -0.0000   -0.0000   -0.0000   -0.0000    0.0000   -0.0000   -0.0000    0.0000   -0.0000   -0.0000
       41 FE2    4d2+      -0.0000    0.0000   -0.0000   -0.0000   -0.0000    0.0000   -0.0000   -0.0000    0.0000    0.0000
       42 FE2    4f3-      -0.0000    0.0000   -0.0000   -0.0000   -0.0000   -0.0000   -0.0000   -0.0000   -0.0000    0.0000
       43 FE2    4f2-      -0.0000   -0.0000   -0.0000   -0.0000   -0.0000    0.0000   -0.0000    0.0000    0.0000   -0.0000
       44 FE2    4f1-      -0.0000    0.0000    0.0000   -0.0000   -0.0000    0.0000    0.0000   -0.0000   -0.0000   -0.0000
       45 FE2    4f0       -0.0000    0.0000    0.0000    0.0000    0.0000   -0.0000   -0.0000    0.0000   -0.0000   -0.0000
       46 FE2    4f1+       0.0000   -0.0000   -0.0000    0.0000   -0.0000    0.0000    0.0000    0.0000   -0.0000    0.0000
       47 FE2    4f2+       0.0000   -0.0000    0.0000    0.0000    0.0000    0.0000    0.0000   -0.0000    0.0000    0.0000
       48 FE2    4f3+       0.0000    0.0000    0.0000    0.0000   -0.0000    0.0000    0.0000    0.0000    0.0000    0.0000
 
          Orbital           11        12        13        14        15        16        17        18        19        20    
          Energy           -1.6647   -1.6647   -1.6647   -1.6647   -1.6647   -1.2181   -0.9515   -0.6578   -0.4833   -0.4833
          Occ. No.          1.0000    1.0000    1.0000    1.0000    1.0000    1.0000    1.0000    1.0000    0.0000    0.0000
 
        1 O1     1s        -0.0000   -0.0000    0.0000    0.0000    0.0000    0.0021    0.0000    0.0000   -0.0000   -0.0000
        2 O1     2s         0.0000   -0.0000    0.0000    0.0000    0.0000    0.9993    0.0006    0.0078   -0.0000   -0.0000
        3 O1     3s        -0.0000   -0.0000    0.0000    0.0000    0.0000    0.0221    0.0007   -0.0049   -0.0000   -0.0000
        4 O1     2px        0.0000    0.0000    0.0000   -0.0000   -0.0000    0.0000   -0.0000    0.0000   -0.0000   -0.0002
        5 O1     3px        0.0000    0.0000    0.0000   -0.0000   -0.0000   -0.0000   -0.0000    0.0000   -0.0001   -0.0003
        6 O1     2py        0.0000   -0.0000    0.0000    0.0000   -0.0000    0.0000   -0.0000    0.0000   -0.0002    0.0000
        7 O1     3py        0.0000   -0.0000    0.0000    0.0000   -0.0000   -0.0000   -0.0000    0.0000   -0.0003    0.0001
        8 O1     2pz        0.0000    0.0000   -0.0000   -0.0000   -0.0000   -0.0075   -0.0011    0.9988    0.0000    0.0000
        9 O1     3pz        0.0000    0.0000   -0.0000   -0.0000   -0.0001   -0.0027   -0.0022    0.0481    0.0000    0.0000
       10 O1     3d2-      -0.0000    0.0000    0.0000    0.0000    0.0000    0.0000    0.0000   -0.0000   -0.0000    0.0000
       11 O1     3d1-       0.0000    0.0000   -0.0000   -0.0000   -0.0000    0.0000   -0.0000   -0.0000    0.0000   -0.0000
       12 O1     3d0        0.0000    0.0000    0.0000    0.0000    0.0000    0.0290    0.0000   -0.0023   -0.0000   -0.0000
       13 O1     3d1+      -0.0000   -0.0000   -0.0000    0.0000    0.0000    0.0000   -0.0000   -0.0000    0.0000    0.0000
       14 O1     3d2+       0.0000    0.0000   -0.0000   -0.0000    0.0000   -0.0000   -0.0000   -0.0000    0.0000   -0.0000
       15 FE2    1s         0.0000    0.0000    0.0000    0.0000   -0.0000   -0.0000   -0.0000    0.0000   -0.0000   -0.0000
       16 FE2    2s         0.0000   -0.0000   -0.0000   -0.0000   -0.0000    0.0000    0.0004    0.0000   -0.0000    0.0000
       17 FE2    3s         0.0000   -0.0000    0.0000    0.0000    0.0000    0.0000    0.0101    0.0000   -0.0000    0.0000
       18 FE2    4s         0.0000    0.0000   -0.0000   -0.0000   -0.0000    0.0000    0.9290    0.0007   -0.0000    0.0000
       19 FE2    5s        -0.0000   -0.0000   -0.0000   -0.0000   -0.0000   -0.0001   -0.3700    0.0008    0.0000    0.0000
       20 FE2    2px       -0.0000   -0.0000   -0.0000    0.0000    0.0000   -0.0000   -0.0000    0.0000    0.0001    0.0005
       21 FE2    3px       -0.0000   -0.0000   -0.0000    0.0000    0.0000   -0.0000   -0.0000    0.0000    0.0050    0.0179
       22 FE2    4px       -0.0000   -0.0000   -0.0000    0.0000    0.0000   -0.0000    0.0000   -0.0000    0.2710    0.9619
       23 FE2    5px        0.0000    0.0000    0.0000   -0.0000   -0.0000    0.0000    0.0000   -0.0000    0.0088    0.0311
       24 FE2    2py        0.0000    0.0000   -0.0000   -0.0000    0.0000    0.0000    0.0000   -0.0000    0.0005   -0.0001
       25 FE2    3py       -0.0000    0.0000   -0.0000   -0.0000    0.0000   -0.0000    0.0000    0.0000    0.0179   -0.0050
       26 FE2    4py       -0.0000    0.0000   -0.0000   -0.0000    0.0000   -0.0000    0.0000    0.0000    0.9619   -0.2710
       27 FE2    5py       -0.0000   -0.0000    0.0000    0.0000    0.0000   -0.0000    0.0000   -0.0000    0.0311   -0.0088
       28 FE2    2pz        0.0000    0.0000   -0.0000   -0.0000   -0.0000   -0.0000   -0.0000    0.0000    0.0000    0.0000
       29 FE2    3pz        0.0000    0.0000   -0.0000   -0.0000   -0.0000   -0.0000   -0.0000    0.0000    0.0000    0.0000
       30 FE2    4pz        0.0000    0.0000   -0.0000   -0.0000   -0.0000   -0.0000   -0.0006    0.0007    0.0000    0.0000
       31 FE2    5pz       -0.0000   -0.0000   -0.0000    0.0000   -0.0000   -0.0000   -0.0000    0.0001    0.0000    0.0000
       32 FE2    3d2-      -0.4130    0.9005   -0.0000    0.0000    0.0000    0.0000    0.0000    0.0000   -0.0000    0.0000
       33 FE2    4d2-       0.0569   -0.1240    0.0000   -0.0000   -0.0000    0.0000    0.0000    0.0000    0.0000    0.0000
       34 FE2    3d1-       0.0000   -0.0000    0.0528    0.9892   -0.0000    0.0000    0.0000   -0.0000    0.0000   -0.0000
       35 FE2    4d1-      -0.0000    0.0000   -0.0073   -0.1362    0.0000   -0.0000    0.0000   -0.0000   -0.0001    0.0000
       36 FE2    3d0       -0.0000   -0.0000    0.0000    0.0000    0.9907   -0.0000    0.0000    0.0000    0.0000   -0.0000
       37 FE2    4d0        0.0000    0.0000   -0.0000   -0.0000   -0.1364   -0.0000   -0.0001    0.0000   -0.0000   -0.0000
       38 FE2    3d1+       0.0000    0.0000    0.9892   -0.0528   -0.0000   -0.0000   -0.0000   -0.0000    0.0000    0.0000
       39 FE2    4d1+      -0.0000   -0.0000   -0.1362    0.0073    0.0000   -0.0000    0.0000   -0.0000   -0.0000   -0.0001
       40 FE2    3d2+       0.9005    0.4130   -0.0000    0.0000    0.0000   -0.0000   -0.0000   -0.0000    0.0000   -0.0000
       41 FE2    4d2+      -0.1240   -0.0569    0.0000   -0.0000   -0.0000   -0.0000    0.0000    0.0000   -0.0000    0.0000
       42 FE2    4f3-       0.0000    0.0000   -0.0000   -0.0000   -0.0000    0.0000    0.0000    0.0000    0.0000    0.0000
       43 FE2    4f2-      -0.0000    0.0000   -0.0000    0.0000   -0.0000    0.0000   -0.0000    0.0000    0.0000   -0.0000
       44 FE2    4f1-       0.0000   -0.0000    0.0000    0.0000   -0.0000    0.0000   -0.0000    0.0000   -0.0000    0.0000
       45 FE2    4f0       -0.0000   -0.0000    0.0000    0.0000    0.0000   -0.0000   -0.0000   -0.0000   -0.0000   -0.0000
       46 FE2    4f1+       0.0000    0.0000    0.0000   -0.0000   -0.0000   -0.0000   -0.0000    0.0000   -0.0000   -0.0000
       47 FE2    4f2+       0.0000    0.0000   -0.0000    0.0000    0.0000   -0.0000   -0.0000    0.0000   -0.0000    0.0000
       48 FE2    4f3+       0.0000   -0.0000    0.0000    0.0000    0.0000    0.0000    0.0000    0.0000    0.0000    0.0000
 
          Orbital           21        22        23        24    
          Energy           -0.4832   -0.2498   -0.0502   -0.0502
          Occ. No.          0.0000    0.0000    0.0000    0.0000
 
        1 O1     1s        -0.0001   -0.0002   -0.0000    0.0000
        2 O1     2s        -0.0011   -0.0034   -0.0000    0.0000
        3 O1     3s        -0.0006   -0.0003    0.0000   -0.0000
        4 O1     2px        0.0000    0.0000    0.0144   -0.9442
        5 O1     3px        0.0000    0.0000    0.0050   -0.3289
        6 O1     2py        0.0000    0.0000    0.9442    0.0144
        7 O1     3py        0.0000    0.0000    0.3289    0.0050
        8 O1     2pz        0.0020    0.0063   -0.0000    0.0000
        9 O1     3pz        0.0022   -0.0002   -0.0000    0.0000
       10 O1     3d2-      -0.0000   -0.0000   -0.0000    0.0000
       11 O1     3d1-      -0.0000   -0.0000   -0.0023   -0.0000
       12 O1     3d0       -0.0000    0.0001    0.0000   -0.0000
       13 O1     3d1+       0.0000   -0.0000   -0.0000    0.0023
       14 O1     3d2+       0.0000    0.0000    0.0000    0.0000
       15 FE2    1s         0.0000    0.0000   -0.0000   -0.0000
       16 FE2    2s         0.0000   -0.0002    0.0000    0.0000
       17 FE2    3s         0.0000   -0.0047    0.0000   -0.0000
       18 FE2    4s         0.0004    0.3700   -0.0000    0.0000
       19 FE2    5s        -0.0006    0.9290   -0.0000    0.0000
       20 FE2    2px       -0.0000   -0.0000   -0.0000    0.0000
       21 FE2    3px       -0.0000   -0.0000   -0.0000    0.0000
       22 FE2    4px       -0.0000   -0.0000   -0.0000    0.0006
       23 FE2    5px       -0.0000    0.0000    0.0000   -0.0002
       24 FE2    2py       -0.0000    0.0000   -0.0000   -0.0000
       25 FE2    3py       -0.0000   -0.0000   -0.0000   -0.0000
       26 FE2    4py       -0.0000   -0.0000   -0.0006   -0.0000
       27 FE2    5py       -0.0000    0.0000    0.0002    0.0000
       28 FE2    2pz        0.0005    0.0000    0.0000    0.0000
       29 FE2    3pz        0.0186    0.0000   -0.0000    0.0000
       30 FE2    4pz        0.9993    0.0005   -0.0000    0.0000
       31 FE2    5pz        0.0323   -0.0001    0.0000   -0.0000
       32 FE2    3d2-       0.0000    0.0000    0.0000    0.0000
       33 FE2    4d2-       0.0000    0.0000   -0.0000    0.0000
       34 FE2    3d1-      -0.0000    0.0000    0.0001    0.0000
       35 FE2    4d1-       0.0000    0.0000    0.0008    0.0000
       36 FE2    3d0        0.0000   -0.0000    0.0000   -0.0000
       37 FE2    4d0       -0.0002   -0.0001    0.0000   -0.0000
       38 FE2    3d1+      -0.0000    0.0000    0.0000   -0.0001
       39 FE2    4d1+       0.0000    0.0000    0.0000   -0.0008
       40 FE2    3d2+      -0.0000    0.0000    0.0000   -0.0000
       41 FE2    4d2+      -0.0000    0.0000   -0.0000   -0.0000
       42 FE2    4f3-      -0.0000   -0.0000   -0.0000    0.0000
       43 FE2    4f2-       0.0000    0.0000    0.0000    0.0000
       44 FE2    4f1-       0.0000   -0.0000    0.0000    0.0000
       45 FE2    4f0       -0.0000   -0.0000    0.0000   -0.0000
       46 FE2    4f1+       0.0000    0.0000    0.0000   -0.0000
       47 FE2    4f2+      -0.0000    0.0000    0.0000   -0.0000
       48 FE2    4f3+       0.0000    0.0000   -0.0000    0.0000
--
 
 
  Input file to MOLDEN was generated!
 
 
++    Static properties:
      ------------------
 
 
      LoProp Charges per center
 

                   O1       FE2   
      Nuclear      8.0000  26.0000
      Electronic  -8.0000 -24.0000
 
      Total       -0.0000   2.0000
--
 
 
      All orbitals with orbital energies smaller than  E(LUMO)+0.5 are printed
 
++    Molecular orbitals:
      -------------------
 
      Title: UHF orbitals (beta)

      Molecular orbitals for symmetry species 1: a  
 
          Orbital            1         2         3         4         5         6         7         8         9        10    
          Energy         -264.6105  -33.3193  -28.3873  -28.3873  -28.3873  -20.8575   -4.9699   -3.4215   -3.4215   -3.4215
          Occ. No.          1.0000    1.0000    1.0000    1.0000    1.0000    1.0000    1.0000    1.0000    1.0000    1.0000
 
        1 O1     1s         0.0000   -0.0000   -0.0000    0.0000    0.0000    1.0000    0.0000   -0.0000    0.0000    0.0000
        2 O1     2s         0.0000   -0.0000   -0.0000   -0.0000    0.0000    0.0019    0.0000   -0.0000    0.0000    0.0000
        3 O1     3s         0.0000    0.0000   -0.0000   -0.0000    0.0000   -0.0017    0.0000   -0.0000    0.0000    0.0000
        4 O1     2px       -0.0000    0.0000    0.0000    0.0000    0.0000   -0.0000   -0.0000    0.0000    0.0000    0.0000
        5 O1     3px        0.0000   -0.0000    0.0000    0.0000    0.0000    0.0000    0.0000    0.0000    0.0000   -0.0000
        6 O1     2py        0.0000   -0.0000    0.0000   -0.0000    0.0000   -0.0000    0.0000    0.0000   -0.0000    0.0000
        7 O1     3py        0.0000   -0.0000    0.0000   -0.0000    0.0000    0.0000    0.0000    0.0000   -0.0000    0.0000
        8 O1     2pz       -0.0000   -0.0000    0.0000    0.0000   -0.0000   -0.0000    0.0000    0.0000   -0.0000   -0.0000
        9 O1     3pz       -0.0000   -0.0000    0.0000    0.0000   -0.0000    0.0000    0.0000    0.0000   -0.0000   -0.0001
       10 O1     3d2-      -0.0000    0.0000    0.0000   -0.0000   -0.0000   -0.0000   -0.0000    0.0000    0.0000    0.0000
       11 O1     3d1-       0.0000   -0.0000   -0.0000    0.0000   -0.0000   -0.0000    0.0000   -0.0000    0.0000   -0.0000
       12 O1     3d0       -0.0000    0.0000   -0.0000   -0.0000    0.0000   -0.0004   -0.0000   -0.0000    0.0000    0.0000
       13 O1     3d1+      -0.0000    0.0000   -0.0000   -0.0000   -0.0000   -0.0000    0.0000   -0.0000   -0.0000   -0.0000
       14 O1     3d2+       0.0000    0.0000    0.0000    0.0000   -0.0000    0.0000   -0.0000    0.0000   -0.0000   -0.0000
       15 FE2    1s         1.0000   -0.0000    0.0000    0.0000   -0.0000    0.0000    0.0000   -0.0000    0.0000    0.0000
       16 FE2    2s         0.0000    1.0000    0.0000    0.0000   -0.0000    0.0000    0.0011    0.0000   -0.0000   -0.0000
       17 FE2    3s        -0.0000   -0.0011   -0.0000   -0.0000    0.0000   -0.0000    1.0000    0.0000   -0.0000   -0.0000
       18 FE2    4s         0.0000    0.0002    0.0000    0.0000   -0.0000    0.0000   -0.0028    0.0000    0.0000   -0.0000
       19 FE2    5s        -0.0000   -0.0002    0.0000    0.0000   -0.0000    0.0000    0.0032    0.0000   -0.0000   -0.0000
       20 FE2    2px        0.0000   -0.0000    0.0033    1.0000    0.0000   -0.0000   -0.0000    0.0008    0.0031   -0.0000
       21 FE2    3px       -0.0000    0.0000   -0.0000   -0.0032   -0.0000   -0.0000    0.0000    0.2416    0.9703   -0.0000
       22 FE2    4px        0.0000   -0.0000    0.0000    0.0005    0.0000    0.0000    0.0000   -0.0028   -0.0111    0.0000
       23 FE2    5px       -0.0000    0.0000   -0.0000   -0.0011   -0.0000   -0.0000    0.0000    0.0013    0.0053   -0.0000
       24 FE2    2py       -0.0000   -0.0000    1.0000   -0.0033    0.0000    0.0000   -0.0000    0.0031   -0.0008    0.0000
       25 FE2    3py        0.0000   -0.0000   -0.0032    0.0000   -0.0000   -0.0000   -0.0000    0.9703   -0.2416    0.0000
       26 FE2    4py       -0.0000    0.0000    0.0005   -0.0000    0.0000   -0.0000    0.0000   -0.0111    0.0028   -0.0000
       27 FE2    5py       -0.0000   -0.0000   -0.0011    0.0000   -0.0000   -0.0000   -0.0000    0.0053   -0.0013    0.0000
       28 FE2    2pz        0.0000    0.0000   -0.0000   -0.0000    1.0000    0.0000   -0.0000   -0.0000    0.0000    0.0032
       29 FE2    3pz       -0.0000    0.0000    0.0000    0.0000   -0.0032   -0.0000    0.0000   -0.0000    0.0000    0.9999
       30 FE2    4pz       -0.0000   -0.0000   -0.0000   -0.0000    0.0005    0.0000    0.0000    0.0000   -0.0000   -0.0114
       31 FE2    5pz       -0.0000   -0.0000    0.0000    0.0000   -0.0011    0.0000    0.0000   -0.0000    0.0000    0.0055
       32 FE2    3d2-      -0.0000    0.0000   -0.0000   -0.0000    0.0000   -0.0000    0.0000   -0.0000   -0.0000    0.0000
       33 FE2    4d2-      -0.0000   -0.0000    0.0000    0.0000   -0.0000    0.0000   -0.0000   -0.0000    0.0000    0.0000
       34 FE2    3d1-      -0.0000    0.0000    0.0000   -0.0000    0.0000    0.0000   -0.0000    0.0000   -0.0000    0.0000
       35 FE2    4d1-       0.0000   -0.0000   -0.0000    0.0000   -0.0000   -0.0000    0.0000   -0.0000    0.0000   -0.0000
       36 FE2    3d0       -0.0000   -0.0000   -0.0000   -0.0000    0.0000    0.0000   -0.0000   -0.0000    0.0000    0.0000
       37 FE2    4d0       -0.0000   -0.0000    0.0000    0.0000   -0.0000    0.0000    0.0000    0.0000   -0.0000   -0.0000
       38 FE2    3d1+      -0.0000    0.0000    0.0000    0.0000    0.0000   -0.0000   -0.0000    0.0000    0.0000   -0.0000
       39 FE2    4d1+       0.0000   -0.0000   -0.0000   -0.0000   -0.0000    0.0000    0.0000   -0.0000   -0.0000    0.0000
       40 FE2    3d2+      -0.0000   -0.0000   -0.0000    0.0000   -0.0000    0.0000   -0.0000    0.0000   -0.0000   -0.0000
       41 FE2    4d2+      -0.0000    0.0000    0.0000   -0.0000   -0.0000    0.0000    0.0000   -0.0000    0.0000    0.0000
       42 FE2    4f3-      -0.0000    0.0000   -0.0000   -0.0000   -0.0000   -0.0000   -0.0000   -0.0000    0.0000   -0.0000
       43 FE2    4f2-      -0.0000   -0.0000   -0.0000   -0.0000   -0.0000    0.0000   -0.0000    0.0000    0.0000   -0.0000
       44 FE2    4f1-      -0.0000    0.0000   -0.0000    0.0000   -0.0000    0.0000    0.0000   -0.0000    0.0000   -0.0000
       45 FE2    4f0       -0.0000   -0.0000    0.0000    0.0000   -0.0000    0.0000   -0.0000    0.0000   -0.0000   -0.0000
       46 FE2    4f1+       0.0000   -0.0000   -0.0000   -0.0000   -0.0000    0.0000    0.0000   -0.0000   -0.0000    0.0000
       47 FE2    4f2+       0.0000   -0.0000    0.0000    0.0000    0.0000    0.0000    0.0000    0.0000    0.0000    0.0000
       48 FE2    4f3+       0.0000    0.0000    0.0000   -0.0000    0.0000    0.0000    0.0000    0.0000   -0.0000    0.0000
 
          Orbital           11        12        13        14        15        16        17        18        19        20    
          Energy           -1.5602   -0.8508   -0.8508   -0.7519   -0.5752   -0.5733   -0.5733   -0.5733   -0.5733   -0.5733
          Occ. No.          1.0000    1.0000    1.0000    1.0000    0.0000    0.0000    0.0000    0.0000    0.0000    0.0000
 
        1 O1     1s        -0.0020    0.0000   -0.0000    0.0000    0.0000    0.0000    0.0000   -0.0000   -0.0000   -0.0000
        2 O1     2s         0.9993   -0.0000    0.0000    0.0059    0.0002    0.0000   -0.0000   -0.0000   -0.0000   -0.0000
        3 O1     3s        -0.0283    0.0000   -0.0000   -0.0045    0.0002    0.0000    0.0000   -0.0000    0.0000    0.0000
        4 O1     2px       -0.0000    0.9987   -0.0201    0.0000    0.0000   -0.0000    0.0000   -0.0000    0.0000    0.0000
        5 O1     3px        0.0000   -0.0461    0.0009   -0.0000    0.0000   -0.0000    0.0000   -0.0000    0.0000    0.0000
        6 O1     2py       -0.0000   -0.0201   -0.9987    0.0000    0.0000    0.0000   -0.0000   -0.0000   -0.0000   -0.0000
        7 O1     3py        0.0000    0.0009    0.0461   -0.0000    0.0000    0.0000   -0.0000   -0.0000   -0.0000    0.0000
        8 O1     2pz       -0.0061   -0.0000    0.0000    0.9999    0.0001    0.0000    0.0000    0.0000   -0.0000    0.0001
        9 O1     3pz       -0.0013    0.0000   -0.0000   -0.0106   -0.0006    0.0000    0.0000    0.0000    0.0000    0.0001
       10 O1     3d2-      -0.0000   -0.0000    0.0000   -0.0000   -0.0000    0.0000   -0.0000    0.0000    0.0000    0.0000
       11 O1     3d1-      -0.0000    0.0000    0.0022   -0.0000   -0.0000   -0.0000   -0.0000   -0.0000   -0.0000   -0.0000
       12 O1     3d0       -0.0215    0.0000   -0.0000   -0.0028    0.0000   -0.0000   -0.0000    0.0000    0.0000    0.0000
       13 O1     3d1+      -0.0000   -0.0022    0.0000   -0.0000   -0.0000    0.0000   -0.0000   -0.0000    0.0000    0.0000
       14 O1     3d2+       0.0000   -0.0000   -0.0000    0.0000   -0.0000   -0.0000   -0.0000   -0.0000   -0.0000    0.0000
       15 FE2    1s        -0.0000    0.0000    0.0000    0.0000   -0.0000   -0.0000   -0.0000    0.0000   -0.0000   -0.0000
       16 FE2    2s        -0.0000   -0.0000   -0.0000    0.0000   -0.0002   -0.0000   -0.0000   -0.0000   -0.0000   -0.0000
       17 FE2    3s         0.0000    0.0000    0.0000    0.0000    0.0035    0.0000    0.0000    0.0000    0.0000    0.0000
       18 FE2    4s        -0.0000    0.0000    0.0000    0.0001    0.9688    0.0000    0.0000    0.0000    0.0000    0.0092
       19 FE2    5s        -0.0001   -0.0000    0.0000    0.0008   -0.2474   -0.0000   -0.0000   -0.0000   -0.0000   -0.0024
       20 FE2    2px       -0.0000   -0.0000    0.0000    0.0000   -0.0000    0.0000    0.0000   -0.0000    0.0000    0.0000
       21 FE2    3px       -0.0000   -0.0000    0.0000    0.0000   -0.0000   -0.0000    0.0000   -0.0000    0.0000    0.0000
       22 FE2    4px       -0.0000   -0.0000    0.0000   -0.0000    0.0000   -0.0000    0.0000   -0.0001    0.0000    0.0000
       23 FE2    5px        0.0000   -0.0000    0.0000   -0.0000    0.0000   -0.0000    0.0000   -0.0000    0.0000    0.0000
       24 FE2    2py        0.0000    0.0000    0.0000   -0.0000    0.0000    0.0000   -0.0000   -0.0000   -0.0000    0.0000
       25 FE2    3py       -0.0000    0.0000    0.0000    0.0000    0.0000    0.0000   -0.0000   -0.0000   -0.0000   -0.0000
       26 FE2    4py       -0.0000    0.0000    0.0000    0.0000    0.0000    0.0000   -0.0000   -0.0000   -0.0001    0.0000
       27 FE2    5py       -0.0000    0.0000    0.0000   -0.0000    0.0000    0.0000   -0.0000   -0.0000   -0.0000    0.0000
       28 FE2    2pz       -0.0000    0.0000   -0.0000    0.0000    0.0000   -0.0000   -0.0000   -0.0000   -0.0000   -0.0000
       29 FE2    3pz       -0.0000   -0.0000    0.0000    0.0000   -0.0000   -0.0000   -0.0000   -0.0000   -0.0000   -0.0000
       30 FE2    4pz       -0.0000   -0.0000    0.0000    0.0004   -0.0004   -0.0000   -0.0000   -0.0000   -0.0000   -0.0001
       31 FE2    5pz       -0.0000   -0.0000    0.0000    0.0001   -0.0000    0.0000   -0.0000   -0.0000   -0.0000   -0.0000
       32 FE2    3d2-      -0.0000    0.0000    0.0000   -0.0000   -0.0000    0.8781   -0.4614   -0.0000    0.0000    0.0000
       33 FE2    4d2-       0.0000   -0.0000    0.0000    0.0000   -0.0000    0.1120   -0.0588   -0.0000    0.0000    0.0000
       34 FE2    3d1-      -0.0000    0.0000    0.0000    0.0000    0.0000   -0.0000    0.0000    0.0467    0.9909   -0.0000
       35 FE2    4d1-       0.0000    0.0000    0.0000   -0.0000    0.0000   -0.0000    0.0000    0.0060    0.1263   -0.0000
       36 FE2    3d0       -0.0000   -0.0000   -0.0000    0.0001   -0.0094    0.0000    0.0000    0.0000    0.0000    0.9919
       37 FE2    4d0       -0.0000   -0.0000   -0.0000    0.0001   -0.0012    0.0000    0.0000    0.0000    0.0000    0.1264
       38 FE2    3d1+       0.0000   -0.0000    0.0000   -0.0000    0.0000    0.0000   -0.0000    0.9909   -0.0467   -0.0000
       39 FE2    4d1+      -0.0000   -0.0000    0.0000   -0.0000    0.0000    0.0000   -0.0000    0.1263   -0.0060   -0.0000
       40 FE2    3d2+       0.0000    0.0000    0.0000    0.0000    0.0000   -0.4614   -0.8781   -0.0000    0.0000    0.0000
       41 FE2    4d2+      -0.0000    0.0000    0.0000    0.0000    0.0000   -0.0588   -0.1120   -0.0000    0.0000    0.0000
       42 FE2    4f3-      -0.0000   -0.0000    0.0000    0.0000    0.0000    0.0000   -0.0000   -0.0000   -0.0000   -0.0000
       43 FE2    4f2-       0.0000   -0.0000   -0.0000    0.0000   -0.0000    0.0000   -0.0000   -0.0000    0.0000   -0.0000
       44 FE2    4f1-       0.0000    0.0000    0.0000    0.0000   -0.0000   -0.0000    0.0000    0.0000    0.0000   -0.0000
       45 FE2    4f0       -0.0000   -0.0000    0.0000    0.0000   -0.0000    0.0000    0.0000    0.0000    0.0000    0.0000
       46 FE2    4f1+      -0.0000   -0.0000    0.0000    0.0000   -0.0000   -0.0000   -0.0000    0.0000   -0.0000   -0.0000
       47 FE2    4f2+      -0.0000    0.0000   -0.0000    0.0000    0.0000   -0.0000   -0.0000   -0.0000    0.0000    0.0000
       48 FE2    4f3+       0.0000   -0.0000    0.0000    0.0000    0.0000    0.0000    0.0000    0.0000    0.0000    0.0000
 
          Orbital           21        22        23        24    
          Energy           -0.3932   -0.3932   -0.3931   -0.2281
          Occ. No.          0.0000    0.0000    0.0000    0.0000
 
        1 O1     1s        -0.0000   -0.0000   -0.0001   -0.0002
        2 O1     2s        -0.0000   -0.0000   -0.0010   -0.0029
        3 O1     3s        -0.0000   -0.0000   -0.0004    0.0001
        4 O1     2px       -0.0001   -0.0001    0.0000    0.0000
        5 O1     3px       -0.0002   -0.0001    0.0000    0.0000
        6 O1     2py       -0.0001    0.0001    0.0000    0.0000
        7 O1     3py       -0.0001    0.0002    0.0000    0.0000
        8 O1     2pz        0.0000    0.0000    0.0017    0.0046
        9 O1     3pz        0.0000   -0.0000    0.0011   -0.0016
       10 O1     3d2-       0.0000    0.0000   -0.0000   -0.0000
       11 O1     3d1-      -0.0000    0.0000    0.0000    0.0000
       12 O1     3d0       -0.0000   -0.0000    0.0000    0.0002
       13 O1     3d1+      -0.0000   -0.0000    0.0000    0.0000
       14 O1     3d2+      -0.0000   -0.0000   -0.0000   -0.0000
       15 FE2    1s        -0.0000   -0.0000   -0.0000    0.0000
       16 FE2    2s         0.0000    0.0000   -0.0000    0.0002
       17 FE2    3s        -0.0000    0.0000    0.0000   -0.0024
       18 FE2    4s        -0.0000    0.0000    0.0002    0.2474
       19 FE2    5s         0.0000   -0.0000   -0.0007    0.9689
       20 FE2    2px       -0.0003   -0.0002    0.0000   -0.0000
       21 FE2    3px        0.0094    0.0057   -0.0000   -0.0000
       22 FE2    4px        0.8533    0.5163   -0.0000   -0.0000
       23 FE2    5px        0.0616    0.0373   -0.0000    0.0000
       24 FE2    2py       -0.0002    0.0003    0.0000    0.0000
       25 FE2    3py        0.0057   -0.0094   -0.0000   -0.0000
       26 FE2    4py        0.5163   -0.8533   -0.0000   -0.0000
       27 FE2    5py        0.0373   -0.0616   -0.0000    0.0000
       28 FE2    2pz       -0.0000   -0.0000   -0.0003   -0.0000
       29 FE2    3pz        0.0000    0.0000    0.0110    0.0000
       30 FE2    4pz        0.0000    0.0000    0.9974    0.0007
       31 FE2    5pz        0.0000    0.0000    0.0720   -0.0000
       32 FE2    3d2-      -0.0000    0.0000    0.0000    0.0000
       33 FE2    4d2-       0.0000    0.0000    0.0000    0.0000
       34 FE2    3d1-       0.0000   -0.0001   -0.0000   -0.0000
       35 FE2    4d1-      -0.0000    0.0000    0.0000    0.0000
       36 FE2    3d0        0.0000    0.0000    0.0002    0.0000
       37 FE2    4d0       -0.0000   -0.0000   -0.0001   -0.0001
       38 FE2    3d1+       0.0001    0.0000   -0.0000   -0.0000
       39 FE2    4d1+      -0.0000   -0.0000    0.0000    0.0000
       40 FE2    3d2+      -0.0000   -0.0000   -0.0000    0.0000
       41 FE2    4d2+       0.0000    0.0000   -0.0000    0.0000
       42 FE2    4f3-       0.0000    0.0000   -0.0000   -0.0000
       43 FE2    4f2-       0.0000   -0.0000    0.0000   -0.0000
       44 FE2    4f1-      -0.0000    0.0000    0.0000   -0.0000
       45 FE2    4f0       -0.0000   -0.0000   -0.0000   -0.0000
       46 FE2    4f1+      -0.0000   -0.0000    0.0000    0.0000
       47 FE2    4f2+       0.0000    0.0000   -0.0000    0.0000
       48 FE2    4f3+       0.0000    0.0000    0.0000    0.0000
--
 
 
++    Molecular charges:
      ------------------
 
      Mulliken charges per centre and basis function type
      ---------------------------------------------------
 
                            O1                      FE2   
                     alpha        beta       alpha        beta
      1s           1.0000      1.0000      1.0000      1.0000
      2s           0.9987      0.9987      1.0000      1.0000
      2px          0.0000      0.9979      1.0000      1.0000
      2pz          0.9977      0.9999      1.0000      1.0000
      2py          0.0000      0.9979      1.0000      1.0000
      3s           0.0005      0.0008      1.0000      1.0000
      3px         -0.0000      0.0021      0.9993      0.9998
      3pz          0.0023      0.0001      0.9993      0.9998
      3py         -0.0000      0.0021      0.9993      0.9998
      4s           0.0000      0.0000      0.8631      0.0000
      3d2+        -0.0000      0.0000      0.9814      0.0000
      3d1+        -0.0000      0.0000      0.9814      0.0000
      3d0          0.0008      0.0005      0.9814     -0.0000
      3d1-        -0.0000      0.0000      0.9814      0.0000
      3d2-        -0.0000      0.0000      0.9814      0.0000
      4px          0.0000      0.0000      0.0004      0.0001
      4pz          0.0000      0.0000      0.0004      0.0001
      4py          0.0000      0.0000      0.0004      0.0001
      5s           0.0000      0.0000      0.1369      0.0000
      4d2+         0.0000      0.0000      0.0186      0.0000
      4d1+         0.0000      0.0000      0.0186     -0.0000
      4d0          0.0000      0.0000      0.0186     -0.0000
      4d1-         0.0000      0.0000      0.0186     -0.0000
      4d2-         0.0000      0.0000      0.0186      0.0000
      5px          0.0000      0.0000      0.0003      0.0000
      5pz          0.0000      0.0000      0.0003      0.0000
      5py          0.0000      0.0000      0.0003      0.0000
      4f3+         0.0000      0.0000      0.0000      0.0000
      4f2+         0.0000      0.0000      0.0000      0.0000
      4f1+         0.0000      0.0000      0.0000      0.0000
      4f0          0.0000      0.0000      0.0000      0.0000
      4f1-         0.0000      0.0000      0.0000      0.0000
      4f2-         0.0000      0.0000      0.0000      0.0000
      4f3-         0.0000      0.0000      0.0000      0.0000
      Total        3.0000      5.0000     15.0000      9.0000
      Total              8.0000                 24.0000
 
      Charge           -0.0000                  2.0000
 
      Total electronic charge=   32.000000
 
      Total            charge=    2.000000
--
 
 
  Input file to MOLDEN was generated!
 
 
++    Static properties:
      ------------------
 
 
      LoProp Charges per center
 

                   O1       FE2   
      Nuclear      8.0000  26.0000
      Electronic  -8.0000 -24.0000
 
      Total       -0.0000   2.0000
--
 
 
++    Natural Bond Order analysis
      ---------------------------
      Based on LoProp computed density
      -------------------------------------------------------------------------------------
      Atom A       Atom B       Bond Order
      -------------------------------------------------------------------------------------
      NBO located     20.000 core electrons.
      NBO located      3.996 lone pair electrons.
      NBO located      1.000 non-bonded electrons on atom O1        
      NBO located      1.000 non-bonded electrons on atom O1        
      NBO located      1.000 non-bonded electrons on atom FE2       
      NBO located      1.000 non-bonded electrons on atom FE2       
      NBO located      1.000 non-bonded electrons on atom FE2       
      NBO located      1.000 non-bonded electrons on atom FE2       
      NBO located      1.000 non-bonded electrons on atom FE2       
      NBO located      1.000 non-bonded electrons on atom FE2       
      The remaining    0.005 electrons are to be considered as diffuse
--
 
 
++    Molecular orbitals:
      -------------------
 
      Title: Natural orbitals

      Molecular orbitals for symmetry species 1: a  
 
          Orbital            1         2         3         4         5         6         7         8         9        10    
          Energy         -264.6144  -33.0574  -27.7149  -27.7139  -27.7131  -20.7934   -5.5575   -4.4605   -4.4621   -4.4629
          Occ. No.          2.0000    2.0000    2.0000    2.0000    2.0000    2.0000    2.0000    1.9999    1.9999    1.9999
 
        1 O1     1s         0.0000    0.0005    0.0090    0.0000   -0.0000   -0.9994   -0.0052   -0.0003   -0.0000   -0.0000
        2 O1     2s         0.0000   -0.0000   -0.0003   -0.0000    0.0000    0.0336    0.0002   -0.0001   -0.0000   -0.0000
        3 O1     3s         0.0000   -0.0000   -0.0000   -0.0000    0.0000    0.0005   -0.0000   -0.0000   -0.0000   -0.0000
        4 O1     2px       -0.0000   -0.0000   -0.0000   -0.0000    0.0000    0.0000   -0.0000    0.0000    0.0000   -0.0000
        5 O1     3px        0.0000   -0.0000    0.0000    0.0000   -0.0000    0.0000    0.0000   -0.0000    0.0000   -0.0000
        6 O1     2py        0.0000   -0.0000   -0.0000    0.0000    0.0000    0.0000   -0.0000    0.0000   -0.0000   -0.0000
        7 O1     3py        0.0000   -0.0000    0.0000   -0.0000   -0.0000   -0.0000    0.0000    0.0000   -0.0000   -0.0000
        8 O1     2pz       -0.0000   -0.0000   -0.0001   -0.0000    0.0000    0.0003   -0.0000    0.0011    0.0000    0.0000
        9 O1     3pz       -0.0000   -0.0000    0.0000    0.0000   -0.0000   -0.0001    0.0001    0.0000    0.0000    0.0000
       10 O1     3d2-      -0.0000    0.0000   -0.0000    0.0000   -0.0000   -0.0000   -0.0000    0.0000    0.0000    0.0000
       11 O1     3d1-       0.0000   -0.0000   -0.0000    0.0000    0.0000   -0.0000    0.0000   -0.0000    0.0000    0.0000
       12 O1     3d0       -0.0000    0.0000    0.0000    0.0000   -0.0000   -0.0002   -0.0000   -0.0000   -0.0000   -0.0000
       13 O1     3d1+      -0.0000   -0.0000    0.0000   -0.0000    0.0000   -0.0000    0.0000    0.0000   -0.0000    0.0000
       14 O1     3d2+       0.0000    0.0000   -0.0000    0.0000    0.0000    0.0000   -0.0000   -0.0000    0.0000   -0.0000
       15 FE2    1s         1.0000   -0.0000    0.0000   -0.0000   -0.0000   -0.0000    0.0000    0.0000    0.0000    0.0000
       16 FE2    2s         0.0000    0.9939    0.0001    0.0000    0.0000   -0.0000    0.1103    0.0000    0.0000    0.0000
       17 FE2    3s        -0.0000   -0.1103    0.0001    0.0000   -0.0000   -0.0052    0.9939    0.0001    0.0000    0.0000
       18 FE2    4s         0.0000    0.0005   -0.0000   -0.0000    0.0000    0.0000   -0.0022   -0.0000   -0.0000   -0.0000
       19 FE2    5s        -0.0000   -0.0006    0.0000    0.0000   -0.0000   -0.0000    0.0045    0.0000    0.0000    0.0000
       20 FE2    2px        0.0000   -0.0000   -0.0000   -0.0061    0.9845   -0.0000   -0.0000    0.0000   -0.0230    0.1736
       21 FE2    3px       -0.0000    0.0000    0.0000    0.0011   -0.1750    0.0000    0.0000    0.0000   -0.1295    0.9758
       22 FE2    4px        0.0000   -0.0000   -0.0000   -0.0000    0.0026   -0.0000   -0.0000   -0.0000    0.0020   -0.0150
       23 FE2    5px       -0.0000    0.0000    0.0000    0.0000   -0.0019    0.0000    0.0000    0.0000   -0.0015    0.0116
       24 FE2    2py        0.0000   -0.0000   -0.0000    0.9846    0.0061   -0.0000   -0.0000   -0.0000    0.1735    0.0230
       25 FE2    3py       -0.0000    0.0000    0.0000   -0.1750   -0.0011    0.0000    0.0000   -0.0000    0.9758    0.1295
       26 FE2    4py        0.0000   -0.0000   -0.0000    0.0026    0.0000   -0.0000   -0.0000    0.0000   -0.0150   -0.0020
       27 FE2    5py       -0.0000    0.0000    0.0000   -0.0019   -0.0000    0.0000    0.0000   -0.0000    0.0116    0.0015
       28 FE2    2pz       -0.0000   -0.0001    0.9846    0.0000    0.0000    0.0088   -0.0001    0.1748    0.0000    0.0000
       29 FE2    3pz       -0.0000    0.0000   -0.1748   -0.0000   -0.0000   -0.0018   -0.0001    0.9844    0.0000    0.0000
       30 FE2    4pz        0.0000   -0.0000    0.0026    0.0000    0.0000    0.0000    0.0000   -0.0151   -0.0000   -0.0000
       31 FE2    5pz       -0.0000    0.0000   -0.0019   -0.0000   -0.0000   -0.0000   -0.0000    0.0117    0.0000    0.0000
       32 FE2    3d2-      -0.0000    0.0000   -0.0000   -0.0000   -0.0000    0.0000    0.0000    0.0000    0.0000   -0.0000
       33 FE2    4d2-      -0.0000   -0.0000   -0.0000    0.0000    0.0000    0.0000   -0.0000    0.0000   -0.0000    0.0000
       34 FE2    3d1-      -0.0000    0.0000    0.0000   -0.0000   -0.0000    0.0000   -0.0000   -0.0000    0.0000    0.0000
       35 FE2    4d1-       0.0000   -0.0000   -0.0000    0.0000    0.0000   -0.0000    0.0000    0.0000   -0.0000   -0.0000
       36 FE2    3d0       -0.0000    0.0000   -0.0000   -0.0000   -0.0000   -0.0000   -0.0000    0.0000    0.0000    0.0000
       37 FE2    4d0       -0.0000   -0.0000    0.0000    0.0000    0.0000   -0.0000    0.0000   -0.0000   -0.0000   -0.0000
       38 FE2    3d1+      -0.0000    0.0000    0.0000    0.0000   -0.0000    0.0000   -0.0000    0.0000   -0.0000    0.0000
       39 FE2    4d1+       0.0000   -0.0000   -0.0000   -0.0000    0.0000   -0.0000    0.0000   -0.0000    0.0000   -0.0000
       40 FE2    3d2+      -0.0000    0.0000    0.0000   -0.0000    0.0000    0.0000   -0.0000   -0.0000    0.0000   -0.0000
       41 FE2    4d2+      -0.0000    0.0000   -0.0000    0.0000   -0.0000   -0.0000    0.0000    0.0000   -0.0000    0.0000
       42 FE2    4f3-      -0.0000    0.0000    0.0000    0.0000    0.0000    0.0000   -0.0000    0.0000   -0.0000   -0.0000
       43 FE2    4f2-      -0.0000   -0.0000   -0.0000   -0.0000   -0.0000   -0.0000   -0.0000   -0.0000    0.0000    0.0000
       44 FE2    4f1-      -0.0000   -0.0000   -0.0000    0.0000    0.0000   -0.0000    0.0000    0.0000   -0.0000   -0.0000
       45 FE2    4f0       -0.0000    0.0000    0.0000    0.0000    0.0000   -0.0000   -0.0000   -0.0000   -0.0000   -0.0000
       46 FE2    4f1+       0.0000   -0.0000   -0.0000   -0.0000    0.0000   -0.0000    0.0000   -0.0000    0.0000   -0.0000
       47 FE2    4f2+       0.0000   -0.0000   -0.0000    0.0000   -0.0000   -0.0000    0.0000    0.0000   -0.0000    0.0000
       48 FE2    4f3+       0.0000    0.0000    0.0000    0.0000   -0.0000   -0.0000    0.0000    0.0000    0.0000    0.0000
 
          Orbital           11        12        13        14        15        16        17        18        19        20    
          Energy           -0.7053   -1.4060   -0.7458   -0.7458   -1.0853   -1.0853   -1.0853   -0.7606   -0.7458   -0.7458
          Occ. No.          1.9983    1.9975    1.0000    1.0000    1.0000    1.0000    1.0000    1.0000    1.0000    1.0000
 
        1 O1     1s         0.0020    0.0336   -0.0000   -0.0000   -0.0000   -0.0000    0.0000   -0.0000   -0.0000   -0.0000
        2 O1     2s         0.0519    0.9981   -0.0000   -0.0000   -0.0000   -0.0000    0.0000   -0.0006   -0.0000   -0.0000
        3 O1     3s        -0.0048   -0.0029   -0.0000   -0.0000   -0.0000   -0.0000    0.0000   -0.0007   -0.0000   -0.0000
        4 O1     2px        0.0000   -0.0000   -0.7053    0.0376   -0.0000    0.0000   -0.0000    0.0000    0.7054   -0.0378
        5 O1     3px        0.0000   -0.0000    0.0325   -0.0017    0.0000   -0.0000   -0.0000   -0.0000   -0.0325    0.0017
        6 O1     2py        0.0000   -0.0000   -0.0376   -0.7053   -0.0000   -0.0000   -0.0000    0.0000    0.0378    0.7054
        7 O1     3py        0.0000   -0.0000    0.0017    0.0325    0.0000    0.0000    0.0000   -0.0000   -0.0017   -0.0325
        8 O1     2pz        0.9985   -0.0519    0.0000    0.0000    0.0000    0.0000   -0.0001    0.0005   -0.0000   -0.0000
        9 O1     3pz        0.0187   -0.0028    0.0000    0.0000    0.0000    0.0000   -0.0001    0.0022    0.0000    0.0000
       10 O1     3d2-      -0.0000   -0.0000    0.0000    0.0000   -0.0000    0.0000    0.0000   -0.0000   -0.0000   -0.0000
       11 O1     3d1-      -0.0000    0.0000    0.0001    0.0015    0.0000    0.0000   -0.0000   -0.0000   -0.0001   -0.0015
       12 O1     3d0       -0.0024    0.0039   -0.0000   -0.0000   -0.0000   -0.0000    0.0000   -0.0000   -0.0000   -0.0000
       13 O1     3d1+      -0.0000    0.0000    0.0015   -0.0001    0.0000   -0.0000    0.0000   -0.0000   -0.0015    0.0001
       14 O1     3d2+      -0.0000    0.0000    0.0000   -0.0000    0.0000    0.0000    0.0000    0.0000   -0.0000    0.0000
       15 FE2    1s         0.0000   -0.0000    0.0000    0.0000    0.0000    0.0000   -0.0000    0.0000    0.0000    0.0000
       16 FE2    2s         0.0000   -0.0000    0.0000    0.0000    0.0000    0.0000    0.0000    0.0003    0.0000    0.0000
       17 FE2    3s         0.0001    0.0000   -0.0000   -0.0000   -0.0000   -0.0000    0.0000   -0.0038   -0.0000   -0.0000
       18 FE2    4s         0.0001    0.0000   -0.0000   -0.0000   -0.0000   -0.0000   -0.0000   -0.9290   -0.0000   -0.0000
       19 FE2    5s         0.0009   -0.0001    0.0000    0.0000    0.0000    0.0000   -0.0000    0.3700    0.0000    0.0000
       20 FE2    2px        0.0000    0.0000   -0.0000    0.0000   -0.0000    0.0000    0.0000    0.0000   -0.0000    0.0000
       21 FE2    3px       -0.0000    0.0000   -0.0000    0.0000    0.0000   -0.0000    0.0000    0.0000   -0.0000    0.0000
       22 FE2    4px       -0.0000   -0.0000    0.0000   -0.0000    0.0000   -0.0000    0.0000    0.0000   -0.0000    0.0000
       23 FE2    5px       -0.0000    0.0000    0.0000   -0.0000    0.0000   -0.0000   -0.0000   -0.0000   -0.0000    0.0000
       24 FE2    2py        0.0000    0.0000   -0.0000   -0.0000    0.0000    0.0000   -0.0000    0.0000   -0.0000   -0.0000
       25 FE2    3py        0.0000   -0.0000   -0.0000   -0.0000    0.0000    0.0000   -0.0000    0.0000   -0.0000   -0.0000
       26 FE2    4py        0.0000    0.0000    0.0000    0.0000    0.0000    0.0000   -0.0000    0.0000   -0.0000   -0.0000
       27 FE2    5py       -0.0000   -0.0000    0.0000    0.0000    0.0000   -0.0000    0.0000   -0.0000   -0.0000   -0.0000
       28 FE2    2pz       -0.0001    0.0000   -0.0000   -0.0000    0.0000   -0.0000   -0.0000   -0.0000   -0.0000    0.0000
       29 FE2    3pz       -0.0010    0.0002    0.0000    0.0000    0.0000    0.0000   -0.0000    0.0000    0.0000    0.0000
       30 FE2    4pz        0.0006   -0.0001    0.0000    0.0000    0.0000    0.0000   -0.0000    0.0006    0.0000    0.0000
       31 FE2    5pz        0.0001   -0.0000    0.0000    0.0000    0.0000    0.0000   -0.0000    0.0000    0.0000    0.0000
       32 FE2    3d2-      -0.0000    0.0000   -0.0000    0.0000   -0.4130    0.9005    0.0000   -0.0000   -0.0000    0.0000
       33 FE2    4d2-       0.0000    0.0000    0.0000   -0.0000    0.0569   -0.1240   -0.0000    0.0000    0.0000   -0.0000
       34 FE2    3d1-       0.0000   -0.0000    0.0373    0.6995   -0.0000   -0.0000    0.0000   -0.0000    0.0375    0.6995
       35 FE2    4d1-      -0.0000    0.0000   -0.0051   -0.0963    0.0000    0.0000   -0.0000    0.0000   -0.0052   -0.0963
       36 FE2    3d0        0.0001   -0.0000    0.0000   -0.0000   -0.0000   -0.0000    0.9907    0.0000    0.0000   -0.0000
       37 FE2    4d0        0.0001   -0.0000   -0.0000    0.0000    0.0000    0.0000   -0.1364    0.0001   -0.0000    0.0000
       38 FE2    3d1+      -0.0000    0.0000    0.6995   -0.0373   -0.0000    0.0000   -0.0000   -0.0000    0.6995   -0.0375
       39 FE2    4d1+      -0.0000   -0.0000   -0.0963    0.0051    0.0000   -0.0000    0.0000    0.0000   -0.0963    0.0052
       40 FE2    3d2+       0.0000   -0.0000    0.0000    0.0000    0.9005    0.4130    0.0000   -0.0000    0.0000    0.0000
       41 FE2    4d2+       0.0000   -0.0000   -0.0000   -0.0000   -0.1240   -0.0569   -0.0000    0.0000   -0.0000   -0.0000
       42 FE2    4f3-       0.0000   -0.0000    0.0000    0.0000    0.0000    0.0000   -0.0000   -0.0000   -0.0000   -0.0000
       43 FE2    4f2-       0.0000    0.0000    0.0000    0.0000   -0.0000    0.0000    0.0000   -0.0000   -0.0000    0.0000
       44 FE2    4f1-       0.0000    0.0000    0.0000    0.0000   -0.0000   -0.0000    0.0000   -0.0000    0.0000    0.0000
       45 FE2    4f0       -0.0000   -0.0000    0.0000   -0.0000   -0.0000    0.0000    0.0000    0.0000    0.0000   -0.0000
       46 FE2    4f1+       0.0000   -0.0000    0.0000   -0.0000    0.0000    0.0000   -0.0000   -0.0000    0.0000   -0.0000
       47 FE2    4f2+       0.0000   -0.0000    0.0000    0.0000    0.0000    0.0000    0.0000   -0.0000    0.0000    0.0000
       48 FE2    4f3+       0.0000    0.0000    0.0000    0.0000    0.0000   -0.0000    0.0000   -0.0000   -0.0000   -0.0000
 
          Orbital           21        22        23        24        25        26        27        28        29        30    
          Energy            1.3877    0.4438    0.9442    0.9442    0.9447   -0.2411    1.3754   -0.0436   -0.0436   -0.0314
          Occ. No.          0.0025    0.0017    0.0001    0.0001    0.0001    0.0000    0.0000    0.0000    0.0000    0.0000
 
        1 O1     1s         0.0002   -0.0000   -0.0000   -0.0000   -0.0001    0.0002    0.0007   -0.0000    0.0000    0.0001
        2 O1     2s        -0.0006    0.0017   -0.0000   -0.0000   -0.0014    0.0031    0.0050   -0.0000    0.0000    0.0015
        3 O1     3s         0.7052    0.0328   -0.0000   -0.0000   -0.0032    0.0098    0.7057    0.0000    0.0000   -0.0596
        4 O1     2px        0.0000   -0.0000   -0.0000   -0.0003    0.0000    0.0000   -0.0000   -0.0001    0.0004    0.0000
        5 O1     3px       -0.0000    0.0000   -0.0001   -0.0014    0.0000    0.0000    0.0000   -0.0011    0.0039    0.0000
        6 O1     2py        0.0000   -0.0000   -0.0003    0.0000    0.0000    0.0000   -0.0000   -0.0004   -0.0001    0.0000
        7 O1     3py       -0.0000    0.0000   -0.0014    0.0001    0.0000    0.0000    0.0000   -0.0039   -0.0011    0.0000
        8 O1     2pz        0.0062   -0.0184    0.0000    0.0000    0.0022   -0.0048    0.0010   -0.0000   -0.0000   -0.0033
        9 O1     3pz       -0.0566    0.9983    0.0000    0.0000    0.0130   -0.0293    0.0085   -0.0000   -0.0000   -0.0185
       10 O1     3d2-      -0.0000   -0.0000   -0.0000   -0.0000   -0.0000   -0.0000   -0.0000    0.0000   -0.0000    0.0000
       11 O1     3d1-       0.0000    0.0000    0.0001   -0.0000   -0.0000    0.0000   -0.0000    0.0004    0.0001    0.0000
       12 O1     3d0        0.7067    0.0473   -0.0000   -0.0000   -0.0008    0.0010   -0.7028   -0.0000   -0.0000    0.0658
       13 O1     3d1+       0.0000    0.0000    0.0000    0.0001   -0.0000   -0.0000   -0.0000    0.0001   -0.0004    0.0000
       14 O1     3d2+       0.0000    0.0000   -0.0000    0.0000   -0.0000    0.0000    0.0000    0.0000   -0.0000   -0.0000
       15 FE2    1s        -0.0000    0.0000    0.0000    0.0000    0.0000   -0.0000    0.0000   -0.0000   -0.0000   -0.0000
       16 FE2    2s        -0.0000    0.0000    0.0000   -0.0000    0.0000    0.0000    0.0000   -0.0000    0.0000   -0.0000
       17 FE2    3s        -0.0000    0.0001   -0.0000   -0.0000   -0.0000    0.0033   -0.0000   -0.0000   -0.0000   -0.0000
       18 FE2    4s         0.0008    0.0006   -0.0000   -0.0000   -0.0002   -0.3702    0.0008   -0.0000    0.0000   -0.0011
       19 FE2    5s        -0.0000    0.0036    0.0000    0.0000    0.0004   -0.9296    0.0008   -0.0000    0.0000   -0.0012
       20 FE2    2px        0.0000   -0.0000   -0.0000   -0.0002    0.0000    0.0000   -0.0000   -0.0000    0.0000    0.0000
       21 FE2    3px       -0.0000   -0.0000   -0.0019   -0.0180    0.0000   -0.0000    0.0000    0.0019   -0.0067   -0.0000
       22 FE2    4px       -0.0000   -0.0000   -0.0555   -0.5135    0.0000   -0.0000    0.0000    0.2315   -0.8243   -0.0000
       23 FE2    5px        0.0000   -0.0000    0.0920    0.8512   -0.0000   -0.0000    0.0000    0.1397   -0.4974   -0.0000
       24 FE2    2py        0.0000   -0.0000   -0.0002    0.0000    0.0000    0.0000    0.0000   -0.0000   -0.0000   -0.0000
       25 FE2    3py       -0.0000    0.0000   -0.0180    0.0019    0.0000   -0.0000    0.0000    0.0067    0.0019    0.0000
       26 FE2    4py       -0.0000    0.0000   -0.5135    0.0555    0.0000   -0.0000    0.0000    0.8243    0.2315    0.0000
       27 FE2    5py       -0.0000   -0.0000    0.8512   -0.0920   -0.0000   -0.0000    0.0000    0.4974    0.1397    0.0000
       28 FE2    2pz       -0.0000    0.0000   -0.0000   -0.0000   -0.0002   -0.0000    0.0000   -0.0000   -0.0000    0.0000
       29 FE2    3pz       -0.0000    0.0001   -0.0000   -0.0000   -0.0181    0.0000   -0.0006    0.0000    0.0000   -0.0070
       30 FE2    4pz       -0.0001    0.0045   -0.0000   -0.0000   -0.5163    0.0006   -0.0784    0.0000    0.0000   -0.8528
       31 FE2    5pz        0.0002   -0.0002    0.0000    0.0000    0.8563    0.0003   -0.0476    0.0000    0.0000   -0.5146
       32 FE2    3d2-       0.0000    0.0000    0.0000   -0.0000   -0.0000   -0.0000   -0.0000   -0.0000   -0.0000    0.0000
       33 FE2    4d2-       0.0000    0.0000    0.0000   -0.0000   -0.0000   -0.0000   -0.0000   -0.0000   -0.0000    0.0000
       34 FE2    3d1-      -0.0000   -0.0000   -0.0000    0.0000    0.0000    0.0000    0.0000    0.0001    0.0000    0.0000
       35 FE2    4d1-       0.0000   -0.0000   -0.0001    0.0000    0.0000    0.0000    0.0000    0.0007    0.0002    0.0000
       36 FE2    3d0        0.0000   -0.0000   -0.0000   -0.0000   -0.0000   -0.0000   -0.0003   -0.0000   -0.0000   -0.0001
       37 FE2    4d0        0.0000   -0.0004   -0.0000   -0.0000   -0.0001   -0.0002   -0.0023   -0.0000   -0.0000   -0.0009
       38 FE2    3d1+      -0.0000    0.0000   -0.0000   -0.0000    0.0000    0.0000    0.0000    0.0000   -0.0001    0.0000
       39 FE2    4d1+      -0.0000    0.0000   -0.0000   -0.0001    0.0000    0.0000    0.0000    0.0002   -0.0007    0.0000
       40 FE2    3d2+      -0.0000   -0.0000   -0.0000    0.0000    0.0000    0.0000    0.0000    0.0000    0.0000   -0.0000
       41 FE2    4d2+      -0.0000   -0.0000   -0.0000   -0.0000   -0.0000    0.0000    0.0000    0.0000    0.0000   -0.0000
       42 FE2    4f3-      -0.0000   -0.0000   -0.0000   -0.0000    0.0000    0.0000   -0.0000    0.0000    0.0000    0.0000
       43 FE2    4f2-       0.0000    0.0000    0.0000    0.0000    0.0000    0.0000    0.0000    0.0000    0.0000    0.0000
       44 FE2    4f1-       0.0000   -0.0000   -0.0000    0.0000    0.0000    0.0000    0.0000    0.0000    0.0000    0.0000
       45 FE2    4f0        0.0000   -0.0000   -0.0000   -0.0000   -0.0000   -0.0000   -0.0000   -0.0000   -0.0000   -0.0000
       46 FE2    4f1+      -0.0000    0.0000   -0.0000   -0.0000    0.0000    0.0000    0.0000    0.0000   -0.0000    0.0000
       47 FE2    4f2+      -0.0000    0.0000    0.0000    0.0000    0.0000   -0.0000   -0.0000   -0.0000   -0.0000   -0.0000
       48 FE2    4f3+      -0.0000   -0.0000   -0.0000    0.0000    0.0000    0.0000    0.0000   -0.0000   -0.0000   -0.0000
 
          Orbital           31        32        33        34        35        36        37        38        39        40    
          Energy            0.2676    0.4425    0.2676    0.4428    0.2683    0.2677    0.2680    3.0911    1.9788    1.9882
          Occ. No.          0.0000    0.0000    0.0000    0.0000    0.0000    0.0000    0.0000    0.0000    0.0000    0.0000
 
        1 O1     1s        -0.0000    0.0000    0.0000    0.0000    0.0000    0.0000    0.0000    0.0000   -0.0000   -0.0000
        2 O1     2s        -0.0000    0.0000    0.0000    0.0000    0.0001    0.0000    0.0000    0.0000   -0.0000   -0.0000
        3 O1     3s         0.0000   -0.0000   -0.0000   -0.0000   -0.0009   -0.0000   -0.0000   -0.0000    0.0000    0.0000
        4 O1     2px        0.0000    0.0009    0.0000    0.0460   -0.0001   -0.0000    0.0002   -0.0006    0.0004    0.0016
        5 O1     3px        0.0003    0.0188    0.0003    0.9987   -0.0019    0.0004    0.0035   -0.0090   -0.0035    0.0022
        6 O1     2py       -0.0001    0.0461    0.0004   -0.0009   -0.0000    0.0001   -0.0003   -0.0000    0.0022   -0.0004
        7 O1     3py       -0.0028    0.9987    0.0079   -0.0188   -0.0002    0.0018   -0.0058   -0.0014    0.0021   -0.0006
        8 O1     2pz        0.0000   -0.0000   -0.0000   -0.0000   -0.0007   -0.0000   -0.0000   -0.0000    0.0000    0.0000
        9 O1     3pz        0.0000   -0.0000   -0.0000   -0.0000   -0.0068   -0.0000   -0.0000   -0.0000    0.0000    0.0000
       10 O1     3d2-      -0.0009   -0.0002    0.0001    0.0020    0.0002    0.0000    0.0001    0.0748    0.0000    0.6657
       11 O1     3d1-       0.0006   -0.0023   -0.0009    0.0045    0.0000    0.0004    0.0004    0.0171    0.9696   -0.1790
       12 O1     3d0       -0.0000    0.0000    0.0000    0.0000    0.0017    0.0000    0.0000    0.0000   -0.0000   -0.0000
       13 O1     3d1+       0.0011    0.0002   -0.0005   -0.0033   -0.0001   -0.0002   -0.0008   -0.0681    0.2445    0.7099
       14 O1     3d2+       0.0000    0.0008   -0.0000   -0.0032    0.0001    0.0008    0.0008    0.0290    0.0000    0.0988
       15 FE2    1s         0.0000   -0.0000   -0.0000   -0.0000   -0.0000   -0.0000   -0.0000   -0.0000    0.0000    0.0000
       16 FE2    2s         0.0000   -0.0000   -0.0000   -0.0000   -0.0000   -0.0000   -0.0000   -0.0000    0.0000    0.0000
       17 FE2    3s         0.0000   -0.0000   -0.0000   -0.0000   -0.0000   -0.0000   -0.0000   -0.0000    0.0000    0.0000
       18 FE2    4s         0.0000   -0.0000   -0.0000   -0.0000   -0.0000   -0.0000   -0.0000   -0.0000    0.0000    0.0000
       19 FE2    5s         0.0000   -0.0000   -0.0000   -0.0000   -0.0000   -0.0000   -0.0000   -0.0000   -0.0000   -0.0000
       20 FE2    2px       -0.0000   -0.0000   -0.0000   -0.0000    0.0000    0.0000    0.0000    0.0000    0.0000    0.0000
       21 FE2    3px        0.0000    0.0000    0.0000    0.0000   -0.0000   -0.0000   -0.0000    0.0000   -0.0000   -0.0000
       22 FE2    4px        0.0000    0.0000    0.0000    0.0011   -0.0000   -0.0007   -0.0001    0.0000   -0.0001   -0.0001
       23 FE2    5px        0.0000    0.0000    0.0000    0.0004   -0.0000   -0.0003   -0.0000    0.0000   -0.0000   -0.0000
       24 FE2    2py        0.0000   -0.0000   -0.0000    0.0000    0.0000   -0.0000    0.0000    0.0000    0.0000   -0.0000
       25 FE2    3py       -0.0000    0.0000    0.0000   -0.0000   -0.0000    0.0000   -0.0000   -0.0000   -0.0000    0.0000
       26 FE2    4py       -0.0000    0.0011    0.0000   -0.0000   -0.0000    0.0001   -0.0007   -0.0000   -0.0002    0.0000
       27 FE2    5py       -0.0000    0.0004    0.0000   -0.0000   -0.0000    0.0000   -0.0003   -0.0000   -0.0001    0.0000
       28 FE2    2pz        0.0000   -0.0000   -0.0000   -0.0000   -0.0000   -0.0000   -0.0000   -0.0000   -0.0000    0.0000
       29 FE2    3pz       -0.0000    0.0000    0.0000    0.0000    0.0000    0.0000    0.0000    0.0000   -0.0000   -0.0000
       30 FE2    4pz       -0.0000    0.0000    0.0000    0.0000    0.0009    0.0000    0.0000    0.0000   -0.0000   -0.0000
       31 FE2    5pz       -0.0000    0.0000    0.0000    0.0000    0.0003    0.0000    0.0000    0.0000   -0.0000   -0.0000
       32 FE2    3d2-       0.0851   -0.0006    0.1066   -0.0000   -0.0000    0.0002    0.0001    0.0000    0.0000   -0.0000
       33 FE2    4d2-       0.6182   -0.0044    0.7741   -0.0003   -0.0000    0.0016    0.0007    0.0004    0.0002   -0.0000
       34 FE2    3d1-      -0.0002    0.0007    0.0001   -0.0005   -0.0000   -0.0172    0.1353    0.0015   -0.0000    0.0001
       35 FE2    4d1-      -0.0012    0.0047    0.0004   -0.0033   -0.0000   -0.1252    0.9826    0.0108   -0.0001    0.0005
       36 FE2    3d0        0.0000   -0.0000   -0.0000   -0.0003   -0.1364   -0.0000   -0.0000   -0.0000    0.0000    0.0000
       37 FE2    4d0        0.0000   -0.0002   -0.0001   -0.0019   -0.9906   -0.0001   -0.0000   -0.0001    0.0000    0.0000
       38 FE2    3d1+      -0.0002   -0.0002   -0.0002   -0.0003   -0.0000    0.1353    0.0172    0.0005   -0.0001    0.0000
       39 FE2    4d1+      -0.0013   -0.0011   -0.0011   -0.0019   -0.0001    0.9827    0.1252    0.0033   -0.0004    0.0002
       40 FE2    3d2+      -0.1066   -0.0010    0.0851    0.0000   -0.0000   -0.0000   -0.0002   -0.0001    0.0002    0.0000
       41 FE2    4d2+      -0.7741   -0.0071    0.6182    0.0002   -0.0001   -0.0001   -0.0011   -0.0005    0.0012    0.0002
       42 FE2    4f3-       0.0007    0.0005   -0.0000   -0.0018   -0.0001    0.0001   -0.0005    0.0111    0.0000    0.1053
       43 FE2    4f2-      -0.0002    0.0003    0.0002   -0.0007    0.0000   -0.0001   -0.0000   -0.0005   -0.0000    0.0000
       44 FE2    4f1-       0.0001   -0.0001   -0.0001    0.0003   -0.0000    0.0000    0.0000    0.0002   -0.0000    0.0000
       45 FE2    4f0        0.0000    0.0000   -0.0000    0.0000    0.0139    0.0000    0.0000    0.0007   -0.0000    0.0000
       46 FE2    4f1+       0.0002   -0.0003   -0.0002    0.0006   -0.0000    0.0001    0.0000    0.0004   -0.0000   -0.0000
       47 FE2    4f2+       0.0007   -0.0010   -0.0008    0.0025   -0.0000    0.0003    0.0001    0.0017   -0.0000    0.0000
       48 FE2    4f3+       0.0005   -0.0015   -0.0001   -0.0087    0.0002    0.0020    0.0114   -0.9941   -0.0000    0.0024
 
          Orbital           41        42        43        44        45        46    
          Energy            1.9723    2.9026    3.1045    3.1045    3.1045    3.1045
          Occ. No.          0.0000    0.0000    0.0000    0.0000    0.0000    0.0000
 
        1 O1     1s        -0.0000   -0.0000   -0.0000    0.0000    0.0000    0.0000
        2 O1     2s         0.0000   -0.0000   -0.0000    0.0000    0.0000    0.0000
        3 O1     3s        -0.0000    0.0000    0.0000   -0.0000   -0.0000   -0.0000
        4 O1     2px        0.0005   -0.0007   -0.0001    0.0001   -0.0000   -0.0000
        5 O1     3px        0.0042    0.0007   -0.0018    0.0018   -0.0007   -0.0002
        6 O1     2py       -0.0001    0.0002    0.0000   -0.0000    0.0000    0.0000
        7 O1     3py       -0.0011   -0.0002    0.0008   -0.0008    0.0003    0.0001
        8 O1     2pz       -0.0000    0.0000    0.0000   -0.0000   -0.0000   -0.0000
        9 O1     3pz       -0.0000    0.0000    0.0000   -0.0000   -0.0000   -0.0000
       10 O1     3d2-      -0.3185    0.2124   -0.0000    0.0000   -0.0000   -0.0000
       11 O1     3d1-      -0.0400    0.0834   -0.0000    0.0000   -0.0000   -0.0000
       12 O1     3d0        0.0000   -0.0000   -0.0000    0.0000    0.0000    0.0000
       13 O1     3d1+       0.1586   -0.3308    0.0000   -0.0000    0.0000    0.0000
       14 O1     3d2+       0.9337    0.1324    0.0000   -0.0000    0.0000    0.0000
       15 FE2    1s        -0.0000    0.0000    0.0000   -0.0000   -0.0000   -0.0000
       16 FE2    2s        -0.0000    0.0000    0.0000   -0.0000   -0.0000   -0.0000
       17 FE2    3s        -0.0000    0.0000    0.0000   -0.0000   -0.0000   -0.0000
       18 FE2    4s        -0.0000    0.0000    0.0000   -0.0000   -0.0000   -0.0000
       19 FE2    5s         0.0000    0.0000   -0.0000    0.0000    0.0000    0.0000
       20 FE2    2px       -0.0000   -0.0000    0.0000   -0.0000    0.0000   -0.0000
       21 FE2    3px       -0.0000    0.0000   -0.0000    0.0000    0.0000   -0.0000
       22 FE2    4px       -0.0000    0.0001   -0.0000    0.0000   -0.0000    0.0000
       23 FE2    5px       -0.0000    0.0000   -0.0000    0.0000   -0.0000    0.0000
       24 FE2    2py        0.0000    0.0000   -0.0000    0.0000    0.0000    0.0000
       25 FE2    3py        0.0000   -0.0000    0.0000   -0.0000    0.0000    0.0000
       26 FE2    4py        0.0000   -0.0000    0.0000   -0.0000   -0.0000   -0.0000
       27 FE2    5py        0.0000   -0.0000    0.0000   -0.0000   -0.0000   -0.0000
       28 FE2    2pz       -0.0000    0.0000    0.0000   -0.0000   -0.0000   -0.0000
       29 FE2    3pz        0.0000   -0.0000   -0.0000    0.0000    0.0000    0.0000
       30 FE2    4pz        0.0000   -0.0000   -0.0000    0.0000    0.0000    0.0000
       31 FE2    5pz        0.0000   -0.0000   -0.0000    0.0000    0.0000    0.0000
       32 FE2    3d2-      -0.0000   -0.0000    0.0000   -0.0000    0.0000    0.0000
       33 FE2    4d2-      -0.0002   -0.0001    0.0001   -0.0001    0.0000    0.0000
       34 FE2    3d1-      -0.0001   -0.0001   -0.0000    0.0000   -0.0000   -0.0000
       35 FE2    4d1-      -0.0004   -0.0005   -0.0001    0.0001   -0.0000   -0.0000
       36 FE2    3d0       -0.0000    0.0000    0.0000   -0.0000   -0.0000   -0.0000
       37 FE2    4d0       -0.0000    0.0000    0.0000   -0.0000   -0.0000   -0.0000
       38 FE2    3d1+      -0.0001   -0.0001   -0.0000    0.0000   -0.0000   -0.0000
       39 FE2    4d1+      -0.0007   -0.0004   -0.0002    0.0002   -0.0001   -0.0000
       40 FE2    3d2+       0.0001    0.0000    0.0001   -0.0001    0.0000    0.0000
       41 FE2    4d2+       0.0004    0.0001    0.0007   -0.0007    0.0003    0.0001
       42 FE2    4f3-       0.0003    0.9045   -0.0001    0.0001   -0.0001   -0.0000
       43 FE2    4f2-      -0.0000   -0.0000    0.4853    0.8743    0.0000    0.0000
       44 FE2    4f1-      -0.0000    0.0000    0.0000   -0.0000    0.0759    0.9971
       45 FE2    4f0        0.0000    0.0000   -0.0000    0.0000    0.0000    0.0000
       46 FE2    4f1+       0.0000    0.0000   -0.0000    0.0000    0.9971   -0.0759
       47 FE2    4f2+       0.0000    0.0001    0.8743   -0.4853   -0.0000   -0.0000
       48 FE2    4f3+      -0.0083    0.0540    0.0013   -0.0013    0.0005    0.0002
--
 
 
++    Molecular properties:
      ---------------------
 
      Charge (e):
                      =    2.0000
      Dipole Moment (Debye):
      Origin of the operator (Ang)=    0.0000    0.0000    0.0000
                   X= -1.8108E-12               Y= -2.1337E-12               Z= -2.8836E+01           Total=  2.8836E+01
      Center of Charge (Ang)
                     X=   -0.00000000               Y=   -0.00000000               Z=   -3.00175377
      Quadrupole Moment (Debye*Ang):
      Origin of the operator (Ang)=    0.0000    0.0000   -1.3146
                  XX= -1.4216E+01              XY= -3.0802E-13              XZ= -2.9769E-10              YY= -1.4216E+01
                  YZ= -2.3596E-10              ZZ=  1.2602E+01
      In traceless form (Debye*Ang)
                  XX= -1.3409E+01              XY= -4.6203E-13              XZ= -4.4653E-10              YY= -1.3409E+01
                  YZ= -3.5394E-10              ZZ=  2.6818E+01
--
 
 
  Input file to MOLDEN was generated!
 
 ###############################################################################
 ###############################################################################
 ###                                                                         ###
 ###                                                                         ###
 ###    RunFile label nBas                                                   ###
 ###    was used       86 times                                              ###
 ###                                                                         ###
 ###                                                                         ###
 ###############################################################################
 ###############################################################################
--- Stop Module: scf at Sun Dec 22 22:17:10 2024 /rc=_RC_ALL_IS_WELL_ ---
*** files: 7.62.LprOrb 7.62.LoProp.molden 7.62.scf.molden 7.62.scf.h5 7.62.UhfOrb 7.62.UnaOrb xmldump
    saved to directory /home/grierjones/DDCASPT2/iron_oxo_DDCASPT2/cluster/7.62

>>> COPY /tmp/7.62/7.62.scf.h5 /home/grierjones/DDCASPT2/iron_oxo_DDCASPT2/cluster/7.62/

*** symbolic link created: INPORB -> 7.62.UnaOrb
--- Start Module: rasscf at Sun Dec 22 22:17:10 2024 ---
 
()()()()()()()()()()()()()()()()()()()()()()()()()()()()()()()()()()()()()()()()()()()()()()()()()()

                                              &RASSCF

                                   only a single process is used
                       available to each process: 2.0 GB of memory, 1 thread?
()()()()()()()()()()()()()()()()()()()()()()()()()()()()()()()()()()()()()()()()()()()()()()()()()()
 
 ###############################################################################
 ###############################################################################
 ###                                                                         ###
 ###                                                                         ###
 ###    LUMORB input error.                                                  ###
 ###                                                                         ###
 ###                                                                         ###
 ###############################################################################
 ###############################################################################
  Keyword LUMORB used with file name StartOrbFile=
 /home/grierjones/DDCASPT2/iron_oxo_DDCASPT2/cluster/7.60/7.60.RasOrb           
                                                  
  but that file cannot be used. Perhaps it does
  not exist?
 
 *************** WARNING ****************
 ###############################################################################
 ###############################################################################
 ###                                                                         ###
 ###                                                                         ###
 ###    Too many macro-iterations.                                           ###
 ###                                                                         ###
 ###                                                                         ###
 ###############################################################################
 ###############################################################################
 Too many macro-iterations requested.
 Reset to maximum, new MAXIT=     200
 ****************************************
 
 *************** WARNING ****************
 ###############################################################################
 ###############################################################################
 ###                                                                         ###
 ###                                                                         ###
 ###    Too many SX-iterations.                                              ###
 ###                                                                         ###
 ###                                                                         ###
 ###############################################################################
 ###############################################################################
 Too many SX-iterations requested.
 Reset to maximum, new ITMAX=     100
 ****************************************
 
      Header of the ONEINT file:
      --------------------------
      
      Integrals generated by seward 4.2.0  , Sun Dec 22 22:17:09 2024
 
 
      OrdInt status: non-squared
 
 
      Cartesian coordinates in Angstrom:
      -----------------------------------------------------
      No.  Label        X            Y            Z        
      -----------------------------------------------------
       1   O1         0.00000000   0.00000000   4.60822000
       2   FE2        0.00000000   0.00000000  -3.00822000
      -----------------------------------------------------
      Nuclear repulsion energy =   14.45148387
 
++    Wave function specifications:
      -----------------------------
 
      Number of closed shell electrons          22
      Number of electrons in active shells      10
      Max number of holes in RAS1 space          0
      Max nr of electrons in RAS3 space          0
      Number of inactive orbitals               11
      Number of active orbitals                 14
      Number of secondary orbitals              23
      Spin quantum number                      2.0
      State symmetry                             1
--
 
++    Orbital specifications:
      -----------------------
 
      Symmetry species                           1
                                                 a
      Frozen orbitals                            0
      Inactive orbitals                         11
      Active orbitals                           14
      RAS1 orbitals                              0
      RAS2 orbitals                             14
      RAS3 orbitals                              0
      Secondary orbitals                        23
      Deleted orbitals                           0
      Number of basis functions                 48
--
 
++    CI expansion specifications:
      ----------------------------
 
      Number of CSFs                        975975
      Number of determinants               1249248
      Number of root(s) required                 1
      Root chosen for geometry opt.              1
      CI root used                               1
         
      highest root included in the CI            1
      max. size of the explicit Hamiltonian    200
--
 
++    Optimization specifications:
      ----------------------------
 
      RASSCF algorithm: Conventional
      Maximum number of macro iterations       200
      Maximum number of SX iterations          100
      Threshold for RASSCF energy            0.100E-07
      Threshold for max MO rotation          0.100E+00
      Threshold for max BLB element          0.100E-03
      Level shift parameter                  0.500E+00
      Make Quasi-Newton update
--
 
 ###############################################################################
 ###############################################################################
 ###                                                                         ###
 ###                                                                         ###
 ###    Location: rdVec_                                                     ###
 ###    File: /home/grierjones/DDCASPT2/iron_oxo_DDCASPT2/cluster/7.60/7.60.RasOrb\n\n\n
 ###    ile: /home/grierjones/DDCASPT2/iron_oxo_DDCASPT2/cluster/7.60/7.60.RasOrb\n\n\n
 ###    le: /home/grierjones/DDCASPT2/iron_oxo_DDCASPT2/cluster/7.60/7.60.RasOrb\n\n\n
 ###    e: /home/grierjones/DDCASPT2/iron_oxo_DDCASPT2/cluster/7.60/7.60.RasOrb\n\n\n
 ###    : /home/grierjones/DDCASPT2/iron_oxo_DDCASPT2/cluster/7.60/7.60.RasOrb\n\n\n
 ###     /home/grierjones/DDCASPT2/iron_oxo_DDCASPT2/cluster/7.60/7.60.RasOrb\n\n\n
 ###    /home/grierjones/DDCASPT2/iron_oxo_DDCASPT2/cluster/7.60/7.60.RasOrb\n\n\n
 ###    home/grierjones/DDCASPT2/iron_oxo_DDCASPT2/cluster/7.60/7.60.RasOrb\n\n\n
 ###    ome/grierjones/DDCASPT2/iron_oxo_DDCASPT2/cluster/7.60/7.60.RasOrb\n\n\n
 ###    me/grierjones/DDCASPT2/iron_oxo_DDCASPT2/cluster/7.60/7.60.RasOrb\n\n\n
 ###    e/grierjones/DDCASPT2/iron_oxo_DDCASPT2/cluster/7.60/7.60.RasOrb\n\n\n
 ###    /grierjones/DDCASPT2/iron_oxo_DDCASPT2/cluster/7.60/7.60.RasOrb\n\n\n
 ###    grierjones/DDCASPT2/iron_oxo_DDCASPT2/cluster/7.60/7.60.RasOrb\n\n\n
 ###    rierjones/DDCASPT2/iron_oxo_DDCASPT2/cluster/7.60/7.60.RasOrb\n\n\n  ###
 ###    ierjones/DDCASPT2/iron_oxo_DDCASPT2/cluster/7.60/7.60.RasOrb\n\n\n   ###
 ###    erjones/DDCASPT2/iron_oxo_DDCASPT2/cluster/7.60/7.60.RasOrb          ###
 ###                                                                         ###
 ###                                                                         ###
 ###    Error during reading INPORB                                          ###
 ###     not defined yet                                                     ###
 ###                                                                         ###
 ###                                                                         ###
 ###############################################################################
 ###############################################################################
[ process      0]: xquit (rc =    128): _INTERNAL_ERROR_
abort: 
--- Stop Module: rasscf at Sun Dec 22 22:17:11 2024 /rc=_RC_FLOATING_EXCEPTION_ ---
*** files: xmldump
    saved to directory /home/grierjones/DDCASPT2/iron_oxo_DDCASPT2/cluster/7.62

.########################.
.# Non-zero return code #.
.########################.

    Timing: Wall=1.61 User=1.35 System=0.25
************************************
*** WorkDir at /tmp/7.62 cleaned ***
************************************
