************************************************************************************
*** WorkDir at /lustre/isaac/scratch/gjones39/condo_cluster/1.48/2739834 cleaned ***
************************************************************************************
   This run of MOLCAS is using the pymolcas driver

                             OPE
                             OPE          NMOL  CASOP  ENMOLC A   SO
                 OPE        NMOLC        AS  OP EN  MO LC     AS  OP
                OPENM       OL CA        SO  PE NM  OL CA     SOP EN
                OP EN      MO   LC       AS  OP ENMOL  CASO   PENMOL
                OP  EN     MO   LC       AS  OP EN     MO     LC ASO
               OP   E  NMOL  C  AS       OP  EN MO     LC     AS  OP
               OP  E   NMO   LC AS        OPEN  MO     LCASOP EN   M
               O  PEN   MO  LCA  SO
            OPE   NMO   L   CAS    OP
        OPENMOL  CASOP     ENMOL   CASOPE
     OPENMOLCA   SOPENMOLCASOPEN   MOLCASOPE
    OPENMOLCAS   OP           EN   MOL    CAS
    OPENMOLCAS       OP  ENM        O     LCA
    OPENMOLCAS    OPEN  MOLCASO     P  E  NMO
    OPENMOLCAS     OP               E  N  MOL
    OPENMOLCA   SO           PENM   O  L  CAS    OPEN    MO    LCAS
    OPENMOLCA   SOP           ENM   O  L  CAS   OP  EN  MOLC  AS   O
    OPENMOLCA   SOPE           NM      O  LCA   S      OP  EN MO
    OPENMOLC                AS         O  PEN   M      OL  CA  SOPE
    OPENMO        LCASOPE  NMOL        C  ASO   P      ENMOLC     AS
    OPE     NMO      LCA  SO     P     E   NM   OL  CA SO  PE N   MO
          OPENMOLCA            SOPE   NMO        LCAS  O    P  ENMO
     OPENMOLCASOPENMOLCASOPENMOLCASOPENMOLCA
        OPENMOLCASOPENMOLCASOPENMOLCASOPE
            OPENMOLCASOPENMOLCASOPENM
               OPENMOLCASOPENMOLCA        version: 9d324f811-dirty
                   OPENMOLCASO
                       OPE                tag:

 OpenMolcas is free software; you can redistribute it and/or modify it
 under the terms of the GNU Lesser General Public License version 2.1.
 OpenMolcas is distributed in the hope that it will be useful, but it
 is provided "as is" and without any express or implied warranties.
 For more details see the full text of the license in the file
 LICENSE or in <http://www.gnu.org/licenses/>.

                 Copyright (C) The OpenMolcas Authors
           For the author list and the recommended citation,
                   consult the file CONTRIBUTORS.md

           *************************************************
           * pymolcas version py2.05                       *
           *   build e4ca6ec286f2c75fb321fe84d41c6781      *
           *   (after the EMIL interpreter by V. Veryazov) *
           *************************************************

configuration info
------------------
C Compiler ID: GNU
C flags: -std=gnu99
Fortran Compiler ID: GNU
Fortran flags: -cpp -fno-aggressive-loop-optimizations -fdefault-integer-8
Definitions: _MOLCAS_;_I8_;_LINUX_
Parallel: OFF (GA=OFF)


   --------------------------------------------------------------------------------
  |
  |              Project: 1.48
  |       Submitted from: /lustre/isaac/scratch/gjones39/condo_cluster/1.48
  |         Scratch area: /lustre/isaac/scratch/gjones39/condo_cluster/1.48/2739834
  |      Save outputs to: /lustre/isaac/scratch/gjones39/condo_cluster/1.48
  |               Molcas: /lustre/isaac/proj/UTK0022/GMJ/Test/build
  |
  | Scratch area is empty
  |
  |       MOLCAS_DRIVER = /nfs/home/gjones39/bin/pymolcas
  | MOLCAS_KEEP_WORKDIR = NO
  |  MOLCAS_NEW_WORKDIR = YES
  |       MOLCAS_NPROCS = 1
  |       MOLCAS_SOURCE = /lustre/isaac/proj/UTK0022/GMJ/Test
  |    MOLCAS_STRUCTURE = 0
  |
   --------------------------------------------------------------------------------

++ ---------   Input file   ---------

&GATEWAY
coord=1.48.xyz
Basis = ANO-RCC-VDZP
Group = nosymm
Expert
End of Input

&SEWARD
End of Input

&SCF
UHF
charge
2
spin
5

>>> COPY $WorkDir/1.48.scf.h5 $CurrDir/

&RASSCF
Title= RASSCF
FileOrb
/lustre/isaac/scratch/gjones39/condo_cluster/1.46/1.46.RasOrb
NACTEL
10 0 0
RAS2
14
Symmetry
1
Spin
5
charge
2
orblisting
all
ITERation
300 200

>>> COPY $WorkDir/1.48.rasscf.h5 $CurrDir/

>>> COPY $WorkDir/GMJ_Fock_MO.csv $CurrDir/1.48.GMJ_Fock_MO.csv

>>> COPY $WorkDir/GMJ_PT2_Fock_MO.csv $CurrDir/1.48.GMJ_PT2_Fock_MO.csv

&MOTRA
Frozen=0
LUMORB

>>> COPY $WorkDir/GMJ_one_int_indx.csv $CurrDir/1.48.GMJ_one_int_indx.csv

>>> COPY $WorkDir/GMJ_one_int.csv $CurrDir/1.48.GMJ_one_int.csv

>>> COPY $WorkDir/GMJ_two_int_indx.csv $CurrDir/1.48.GMJ_two_int_indx.csv

>>> COPY $WorkDir/GMJ_two_int.csv $CurrDir/1.48.GMJ_two_int.csv

&CASPT2
Frozen
0
MAXITER
50

>>> FOREACH i IN (B,E,F,G,H)

  >>> FOREACH j IN (P,M)

    >>> IF (-FILE GMJ_e2_${i}_${j}.csv)

      >>> COPY $WorkDir/GMJ_RHS_${i}_${j}.csv $CurrDir/GMJ_RHS_${i}_${j}.csv

      >>> COPY $WorkDir/GMJ_IVECW_${i}_${j}.csv $CurrDir/GMJ_IVECW_${i}_${j}.csv

      >>> COPY $WorkDir/GMJ_IVECX_${i}_${j}.csv $CurrDir/GMJ_IVECX_${i}_${j}.csv

      >>> COPY $WorkDir/GMJ_IVECC2_${i}_${j}.csv $CurrDir/GMJ_IVECC2_${i}_${j}.csv

      >>> COPY $WorkDir/GMJ_e2_${i}_${j}.csv $CurrDir/GMJ_e2_${i}_${j}.csv

    >>> END IF

  >>> END FOREACH

>>> END FOREACH

>>> FOREACH i IN (A,C,D)

  >>> IF (-FILE GMJ_e2_$i.csv)

    >>> COPY $WorkDir/GMJ_RHS_$i.csv $CurrDir/GMJ_RHS_$i.csv

    >>> COPY $WorkDir/GMJ_IVECW_$i.csv $CurrDir/GMJ_IVECW_$i.csv

    >>> COPY $WorkDir/GMJ_IVECX_$i.csv $CurrDir/GMJ_IVECX_$i.csv

    >>> COPY $WorkDir/GMJ_IVECC2_$i.csv $CurrDir/GMJ_IVECC2_$i.csv

    >>> COPY $WorkDir/GMJ_e2_$i.csv $CurrDir/GMJ_e2_$i.csv

  >>> END IF

>>> END FOREACH

-- ----------------------------------

--- Start Module: gateway at Tue Dec  3 15:26:28 2024 ---

()()()()()()()()()()()()()()()()()()()()()()()()()()()()()()()()()()()()()()()()()()()()()()()()()()

                                              &GATEWAY

                                   only a single process is used
                       available to each process: 16 GB of memory, 1 thread?
()()()()()()()()()()()()()()()()()()()()()()()()()()()()()()()()()()()()()()()()()()()()()()()()()()

 ###############################################################################
 ###############################################################################
 ###                                                                         ###
 ###                                                                         ###
 ###                                                                         ###
 ###    WARNING: EXPERT option is ON!                                        ###
 ###                                                                         ###
 ###                                                                         ###
 ###############################################################################
 ###############################################################################

++    Symmetry information:
      ---------------------

                    Character Table for C1 

                             E  
                    a        1  x, y, xy, Rz, z, xz, Ry, yz, Rx, I
--


++    Basis set information:
      ----------------------


      Basis set label: O.ANO-RCC...3S2P1D.

      Electronic valence basis set:
      ------------------
      Associated Effective Charge   8.000000 au
      Associated Actual Charge      8.000000 au
      Nuclear Model: Point charge

      Shell  nPrim  nBasis  Cartesian Spherical Contaminant
         s      14       3        X                  
         p       9       2        X                  
         d       4       1                 X         


      Basis set label: FE.ANO-RCC...5S4P2D1F.

      Electronic valence basis set:
      ------------------
      Associated Effective Charge  26.000000 au
      Associated Actual Charge     26.000000 au
      Nuclear Model: Point charge

      Shell  nPrim  nBasis  Cartesian Spherical Contaminant
         s      21       5        X                  
         p      15       4        X                  
         d      10       2                 X         
         f       6       1                 X         
--


++    Molecular structure info:
      -------------------------

                    ************************************************ 
                    **** Cartesian Coordinates / Bohr, Angstrom **** 
                    ************************************************ 

     Center  Label                x              y              z                     x              y              z
        1      O1               0.000000       0.000000       2.914751              0.000000       0.000000       1.542420
        2      FE2              0.000000       0.000000       0.108810              0.000000       0.000000       0.057580
--


            Nuclear Potential Energy             74.12843122 au

 ###############################################################################
 ###############################################################################
 ###                                                                         ###
 ###                                                                         ###
 ###    There were warnings during the execution                             ###
 ###    Please, check the output with care!                                  ###
 ###                                                                         ###
 ###                                                                         ###
 ###############################################################################
 ###############################################################################
--- Stop Module: gateway at Tue Dec  3 15:26:30 2024 /rc=_RC_ALL_IS_WELL_ ---
*** files: xmldump
    saved to directory /lustre/isaac/scratch/gjones39/condo_cluster/1.48
--- Module gateway spent 1 second ---

--- Start Module: seward at Tue Dec  3 15:26:30 2024 ---

()()()()()()()()()()()()()()()()()()()()()()()()()()()()()()()()()()()()()()()()()()()()()()()()()()

                                              &SEWARD

                                   only a single process is used
                       available to each process: 16 GB of memory, 1 thread?
()()()()()()()()()()()()()()()()()()()()()()()()()()()()()()()()()()()()()()()()()()()()()()()()()()

 ###############################################################################
 ###############################################################################
 ###                                                                         ###
 ###                                                                         ###
 ###                                                                         ###
 ###    WARNING: EXPERT option is ON!                                        ###
 ###                                                                         ###
 ###                                                                         ###
 ###############################################################################
 ###############################################################################
               SEWARD will generate:
                  Multipole Moment integrals up to order  2
                  Kinetic Energy integrals
                  Nuclear Attraction integrals (point charge)
                  One-Electron Hamiltonian integrals
                  Velocity integrals
                  Relativistic Douglas-Kroll-Hess integrals:
                    - Parametrization         : EXP
                    - DKH order of Hamiltonian: 2
                    - DKH order of Properties : 0
                         - multipole moment operators
                         - electric potential operators
                         - contact operators
                  Atomic mean-field integrals
                  Two-Electron Repulsion integrals

                   Integrals are discarded if absolute value <: 0.10E-13
                   Integral cutoff threshold is set to       <: 0.10E-15

            Nuclear Potential Energy             74.12843122 au


      Basis set specifications :
      Symmetry species         a  
      Basis functions           48


  Input file to MOLDEN was generated!

 ###############################################################################
 ###############################################################################
 ###                                                                         ###
 ###                                                                         ###
 ###    There were warnings during the execution                             ###
 ###    Please, check the output with care!                                  ###
 ###                                                                         ###
 ###                                                                         ###
 ###############################################################################
 ###############################################################################
Note: The following floating-point exceptions are signalling: IEEE_INVALID_FLAG IEEE_DIVIDE_BY_ZERO IEEE_UNDERFLOW_FLAG IEEE_DENORMAL
--- Stop Module: seward at Tue Dec  3 15:26:34 2024 /rc=_RC_ALL_IS_WELL_ ---
*** files: 1.48.GssOrb 1.48.guessorb.h5 1.48.guessorb.molden xmldump
    saved to directory /lustre/isaac/scratch/gjones39/condo_cluster/1.48
--- Module seward spent 4 seconds ---

*** symbolic link created: INPORB -> 1.48.GssOrb
--- Start Module: scf at Tue Dec  3 15:26:34 2024 ---

()()()()()()()()()()()()()()()()()()()()()()()()()()()()()()()()()()()()()()()()()()()()()()()()()()

                                                &SCF

                                   only a single process is used
                       available to each process: 16 GB of memory, 1 thread?
()()()()()()()()()()()()()()()()()()()()()()()()()()()()()()()()()()()()()()()()()()()()()()()()()()

 *** Possible bug in opening file
 *** isFreeUnit resets the unit number
++    Input section:
      --------------

      Header of the integral files:
      
       Integrals generated by seward 4.2.0  , Tue Dec  3 15:26:30 2024


      Cartesian coordinates in Angstrom:
      -----------------------------------------------------
      No.  Label        X            Y            Z        
      -----------------------------------------------------
       1   O1         0.00000000   0.00000000   1.54242000
       2   FE2        0.00000000   0.00000000   0.05758000
      -----------------------------------------------------
      Nuclear repulsion energy =   74.12843122
--

++    Orbital specifications:
      -----------------------

      Symmetry species               1
                                     a
      Frozen orbitals                0
      Start temperature = 0.500
      End temperature   = 0.010
      Temperature Factor= 0.460
      Deleted orbitals               0
      Total number of orbitals      48
      Number of basis functions     48
--

      Molecular charge                           2.000

++    Optimization specifications:
      ----------------------------

      SCF Algorithm: Conventional USCF
      D(i)-D(i-1) density differences are used
      Number of density matrices in core                5
      Maximum number of NDDO SCF iterations           400
      Maximum number of HF SCF iterations             400
      Threshold for SCF energy change            0.10E-08
      Threshold for density matrix               0.10E-03
      Threshold for Fock matrix                  0.15E-03
      Threshold for linear dependence            0.10E-08
      Threshold at which DIIS is turned on       0.15E+00
      Threshold at which QNR/C2DIIS is turned on 0.75E-01
      Threshold for Norm(delta) (QNR/C2DIIS)     0.20E-04
      DIIS extrapolation of the SCF procedure
      All orbitals punched on: UHFORB
--

      Input vectors read from INPORB
      Orbital file label: *Guess orbitals


++ Convergence information
                               UHF SCF        iterations: Energy and convergence statistics

Iter     Tot. SCF        One-elec.       Two-elec.     Energy      Max Dij or  Max Fij      DNorm      TNorm      AccCon     Time
         Energy          Energy          Energy        Change      Delta Norm                                                in Sec.

 The total and one-electron energies are shifted by a value of      1000. a.u.

   1  -342.690230712  -973.400910549   556.582248612   0.00E+00    0.19E+00*   0.85E+00*    0.78E+01   0.19E+03   None         0.
   2  -343.443625533  -973.125604967   555.553548210  -0.75E+00*   0.34E+00*   0.29E+00*    0.16E+01   0.19E+03   EDIIS        0.
   3  -342.430763709 -1009.636107981   593.076913048   0.10E+01*   0.11E+00*   0.25E+00*    0.21E+01   0.20E+03   EDIIS        0.
   4  -344.548812608  -971.622305360   552.945061527  -0.21E+01*   0.50E+00*   0.31E+00*    0.19E+01   0.19E+03   EDIIS        0.
   5  -344.637663634  -996.388397334   577.622302476  -0.89E-01*   0.21E+00*   0.18E+00*    0.17E+01   0.20E+03   EDIIS        0.
   6  -345.130526013  -978.308673529   559.049716292  -0.49E+00*   0.29E+00*   0.21E+00*    0.98E+00   0.19E+03   EDIIS        0.
   7  -345.090729894  -989.753876742   570.534715623   0.40E-01*   0.13E+00*   0.69E-01*    0.86E+00   0.20E+03   EDIIS        0.
   8  -345.205106155  -983.363929812   564.030392432  -0.11E+00*   0.11E+00*   0.40E-01*    0.28E+00   0.19E+03   EDIIS        0.
   9  -345.219498990  -982.623757084   563.275826870  -0.14E-01*   0.11E+00*   0.48E-01*    0.27E+00   0.19E+03   EDIIS        0.
  10  -345.229271254  -983.630226661   564.272524182  -0.98E-02*   0.82E-01*   0.24E-01*    0.25E+00   0.19E+03   EDIIS        0.

       Fermi aufbau procedure completed!
      nOcc(alpha)=   18
      nOcc(beta) =   14

  11  -345.234914531  -982.213645299   562.850299543  -0.56E-02*   0.73E-01*   0.35E-01*    0.20E+00   0.19E+03   EDIIS        0.
  12  -345.237657872  -983.750427325   564.384338229  -0.27E-02*   0.88E-01*   0.27E-01*    0.19E+00   0.19E+03   EDIIS        0.
  13  -345.238917821  -981.829149478   562.461800432  -0.13E-02*   0.37E-01*   0.16E-01*    0.18E+00   0.19E+03   EDIIS        0.
  14  -345.241600374  -983.155625713   563.785594115  -0.27E-02*   0.47E-01*   0.14E-01*    0.10E+00   0.19E+03   EDIIS        0.
  15  -345.242212892  -982.278857047   562.908212930  -0.61E-03*   0.19E-01*   0.55E-02*    0.88E-01   0.19E+03   c2DIIS       0.
  16  -345.242884445  -982.674079831   563.302764161  -0.67E-03*   0.30E-01*   0.53E-02*    0.49E-01   0.19E+03   QNRc2DIIS    0.
  17  -345.243214077  -982.645318129   563.273672827  -0.33E-03*   0.12E+00*   0.38E-02*    0.37E-01   0.19E+03   QNRc2DIIS    0.
  18  -345.243755012  -982.407277417   563.035091181  -0.54E-03*   0.10E-01*   0.24E-02*    0.14E+00   0.19E+03   QNRc2DIIS    0.
  19  -345.243780139  -982.511042784   563.138831420  -0.25E-04*   0.14E-01*   0.17E-02*    0.15E-01   0.19E+03   QNRc2DIIS    0.
  20  -345.243799728  -982.455995389   563.083764437  -0.20E-04*   0.59E-02*   0.66E-03*    0.21E-01   0.19E+03   QNRc2DIIS    0.
  21  -345.243802356  -982.448315345   563.076081765  -0.26E-05*   0.14E-02*   0.17E-03*    0.77E-02   0.19E+03   QNRc2DIIS    0.
  22  -345.243802609  -982.448849506   563.076615672  -0.25E-06*   0.18E-03*   0.33E-04     0.18E-02   0.19E+03   QNRc2DIIS    0.
  23  -345.243802615  -982.448410100   563.076176260  -0.61E-08*   0.48E-04*   0.89E-05     0.25E-03   0.19E+03   QNRc2DIIS    0.
  24  -345.243802616  -982.448733886   563.076500046  -0.51E-09    0.15E-04    0.31E-05     0.73E-04   0.19E+03   QNRc2DIIS    0.

       Convergence after 24 Macro Iterations
--

 *****************************************************************************************************************************
 *                                                                                                                           *
 *                                             SCF/KS-DFT Program, Final results                                             *
 *                                                                                                                           *
 *                                                                                                                           *
 *                                                                                                                           *
 *                                                       Final Results                                                       *
 *                                                                                                                           *
 *****************************************************************************************************************************

::    Total SCF energy                              -1345.2438026159
      One-electron energy                           -1982.4487338861
      Two-electron energy                             563.0765000458
      Nuclear repulsion energy                         74.1284312245
      Kinetic energy (interpolated)                  1400.5732847329
      Virial theorem                                    0.9604951182
      Total spin, S(S+1)                                6.7895063179
      Total spin, S                                     2.1532067989
      Max non-diagonal density matrix element           0.0000056923
      Max non-diagonal Fock matrix element              0.0000013062


      All orbitals with orbital energies smaller than  E(LUMO)+0.5 are printed

++    Molecular orbitals:
      -------------------

      Title: UHF orbitals (alpha)

      Molecular orbitals for symmetry species 1: a  

          Orbital            1         2         3         4         5         6         7         8         9        10    
          Energy         -264.4612  -33.3153  -28.3867  -28.3867  -28.3783  -21.1961   -5.2659   -3.8201   -3.8201   -3.8133
          Occ. No.          1.0000    1.0000    1.0000    1.0000    1.0000    1.0000    1.0000    1.0000    1.0000    1.0000

        1 O1     1s        -0.0000    0.0000   -0.0000    0.0000    0.0002    0.9999   -0.0009   -0.0000    0.0000   -0.0039
        2 O1     2s         0.0000   -0.0001   -0.0000   -0.0000    0.0010   -0.0004    0.0065    0.0000   -0.0000    0.0256
        3 O1     3s         0.0000   -0.0001   -0.0000   -0.0000    0.0006   -0.0012   -0.0006    0.0000    0.0000   -0.0045
        4 O1     2px        0.0000   -0.0000   -0.0000   -0.0000    0.0000   -0.0000   -0.0000    0.0004    0.0051    0.0000
        5 O1     3px       -0.0000    0.0000   -0.0000   -0.0001   -0.0000    0.0000   -0.0000    0.0001    0.0020    0.0000
        6 O1     2py        0.0000   -0.0000   -0.0000    0.0000    0.0000    0.0000    0.0000    0.0051   -0.0004    0.0000
        7 O1     3py        0.0000   -0.0000   -0.0001    0.0000    0.0000    0.0000    0.0000    0.0020   -0.0001   -0.0000
        8 O1     2pz       -0.0000    0.0001    0.0000   -0.0000   -0.0007   -0.0000   -0.0038   -0.0000    0.0000   -0.0138
        9 O1     3pz       -0.0000    0.0001   -0.0000    0.0000   -0.0005    0.0006    0.0016    0.0000   -0.0000    0.0084
       10 O1     3d2-       0.0000    0.0000   -0.0000   -0.0000    0.0000   -0.0000    0.0000    0.0000    0.0000    0.0000
       11 O1     3d1-      -0.0000    0.0000   -0.0001    0.0000    0.0000   -0.0000   -0.0000   -0.0010    0.0001   -0.0000
       12 O1     3d0        0.0000   -0.0002   -0.0000   -0.0000    0.0002   -0.0011    0.0002   -0.0000   -0.0000    0.0024
       13 O1     3d1+       0.0000   -0.0000   -0.0000   -0.0001   -0.0000   -0.0000    0.0000   -0.0001   -0.0010   -0.0000
       14 O1     3d2+      -0.0000   -0.0000   -0.0000   -0.0000    0.0000    0.0000   -0.0000   -0.0000   -0.0000    0.0000
       15 FE2    1s         1.0000   -0.0000    0.0000   -0.0000   -0.0000    0.0000   -0.0000   -0.0000    0.0000   -0.0000
       16 FE2    2s         0.0000    1.0000    0.0000   -0.0000   -0.0006    0.0001   -0.0034   -0.0000    0.0000   -0.0002
       17 FE2    3s        -0.0000    0.0034   -0.0000   -0.0000   -0.0003    0.0005    0.9992    0.0000    0.0000   -0.0109
       18 FE2    4s        -0.0000   -0.0002   -0.0000    0.0000   -0.0010    0.0005   -0.0039   -0.0000   -0.0000   -0.0013
       19 FE2    5s         0.0000    0.0003    0.0000   -0.0000    0.0005   -0.0003    0.0042    0.0000   -0.0000    0.0011
       20 FE2    2px        0.0000    0.0000    0.1189    0.9929    0.0000   -0.0000    0.0000   -0.0002   -0.0032   -0.0000
       21 FE2    3px        0.0000   -0.0000    0.0004    0.0032    0.0000   -0.0000    0.0000    0.0719    0.9966    0.0000
       22 FE2    4px        0.0000    0.0000   -0.0001   -0.0004   -0.0000   -0.0000    0.0000   -0.0013   -0.0176   -0.0000
       23 FE2    5px        0.0000    0.0000    0.0002    0.0013    0.0000   -0.0000   -0.0000    0.0008    0.0113    0.0000
       24 FE2    2py       -0.0000   -0.0000    0.9929   -0.1189   -0.0000   -0.0000    0.0000   -0.0032    0.0002    0.0000
       25 FE2    3py        0.0000    0.0000    0.0032   -0.0004   -0.0000   -0.0000   -0.0000    0.9966   -0.0719   -0.0000
       26 FE2    4py       -0.0000    0.0000   -0.0004    0.0001   -0.0000   -0.0000   -0.0000   -0.0176    0.0013    0.0000
       27 FE2    5py       -0.0000    0.0000    0.0013   -0.0002   -0.0000    0.0000    0.0000    0.0113   -0.0008    0.0000
       28 FE2    2pz       -0.0000    0.0005    0.0000   -0.0000    1.0000    0.0000   -0.0003   -0.0000    0.0000   -0.0033
       29 FE2    3pz       -0.0000    0.0002    0.0000   -0.0000    0.0028    0.0003    0.0079    0.0000   -0.0000    0.9951
       30 FE2    4pz       -0.0000   -0.0000    0.0000    0.0000   -0.0012    0.0002   -0.0027   -0.0000    0.0000   -0.0170
       31 FE2    5pz        0.0000    0.0000    0.0000   -0.0000    0.0015   -0.0002    0.0020    0.0000   -0.0000    0.0106
       32 FE2    3d2-       0.0000    0.0000   -0.0000   -0.0000    0.0000    0.0000    0.0000    0.0000   -0.0000   -0.0000
       33 FE2    4d2-       0.0000   -0.0000   -0.0000    0.0000    0.0000    0.0000   -0.0000    0.0000    0.0000    0.0000
       34 FE2    3d1-      -0.0000   -0.0000    0.0000   -0.0000   -0.0000   -0.0000    0.0000    0.0016   -0.0001   -0.0000
       35 FE2    4d1-      -0.0000    0.0000   -0.0000    0.0000   -0.0000   -0.0000   -0.0000   -0.0046    0.0003   -0.0000
       36 FE2    3d0       -0.0000   -0.0001    0.0000    0.0000   -0.0002    0.0002   -0.0020    0.0000   -0.0000    0.0054
       37 FE2    4d0        0.0000    0.0001    0.0000    0.0000   -0.0004    0.0000   -0.0001   -0.0000    0.0000   -0.0034
       38 FE2    3d1+       0.0000   -0.0000    0.0000    0.0000    0.0000    0.0000   -0.0000    0.0001    0.0016    0.0000
       39 FE2    4d1+       0.0000    0.0000   -0.0000   -0.0000   -0.0000   -0.0000    0.0000   -0.0003   -0.0046   -0.0000
       40 FE2    3d2+      -0.0000   -0.0000    0.0000    0.0000    0.0000   -0.0000   -0.0000    0.0000    0.0000    0.0000
       41 FE2    4d2+       0.0000    0.0000   -0.0000    0.0000   -0.0000   -0.0000    0.0000   -0.0000   -0.0000   -0.0000
       42 FE2    4f3-       0.0000   -0.0000   -0.0000    0.0000   -0.0000   -0.0000   -0.0000   -0.0000    0.0000    0.0000
       43 FE2    4f2-       0.0000   -0.0000   -0.0000   -0.0000    0.0000    0.0000    0.0000   -0.0000   -0.0000    0.0000
       44 FE2    4f1-       0.0000    0.0000   -0.0000    0.0000    0.0000   -0.0000   -0.0000   -0.0014    0.0001   -0.0000
       45 FE2    4f0        0.0000    0.0000   -0.0000    0.0000   -0.0002    0.0000    0.0007    0.0000   -0.0000   -0.0004
       46 FE2    4f1+      -0.0000   -0.0000   -0.0000   -0.0000    0.0000    0.0000    0.0000   -0.0001   -0.0014   -0.0000
       47 FE2    4f2+       0.0000    0.0000    0.0000   -0.0000   -0.0000   -0.0000    0.0000    0.0000   -0.0000   -0.0000
       48 FE2    4f3+       0.0000   -0.0000   -0.0000   -0.0000   -0.0000    0.0000    0.0000   -0.0000   -0.0000    0.0000

          Orbital           11        12        13        14        15        16        17        18        19        20    
          Energy           -1.8816   -1.5252   -1.5252   -1.5121   -1.5121   -1.4456   -1.1366   -1.1366   -0.5888   -0.4477
          Occ. No.          1.0000    1.0000    1.0000    1.0000    1.0000    1.0000    1.0000    1.0000    0.0000    0.0000

        1 O1     1s        -0.0099   -0.0000    0.0000   -0.0000    0.0000   -0.0242   -0.0000    0.0000    0.0234    0.0091
        2 O1     2s         0.8749   -0.0000    0.0000   -0.0000    0.0000   -0.4949   -0.0000    0.0000    0.2976    0.1274
        3 O1     3s        -0.0125   -0.0000    0.0000   -0.0000    0.0000   -0.0553   -0.0000   -0.0000    0.0497    0.0236
        4 O1     2px        0.0000    0.0135    0.1664    0.0000    0.0000    0.0000   -0.9614   -0.0609   -0.0000    0.0000
        5 O1     3px        0.0000   -0.0039   -0.0480   -0.0000   -0.0000   -0.0000    0.0279    0.0018   -0.0000    0.0000
        6 O1     2py        0.0000    0.1664   -0.0135   -0.0000    0.0000    0.0000    0.0609   -0.9614    0.0000    0.0000
        7 O1     3py       -0.0000   -0.0480    0.0039    0.0000   -0.0000    0.0000   -0.0018    0.0279    0.0000    0.0000
        8 O1     2pz       -0.1630   -0.0000    0.0000   -0.0000    0.0000   -0.0460   -0.0000    0.0000    0.3381    0.8485
        9 O1     3pz       -0.0083    0.0000   -0.0000    0.0000   -0.0000    0.0420    0.0000   -0.0000    0.0240    0.1816
       10 O1     3d2-      -0.0000    0.0000    0.0000    0.0002    0.0008    0.0000    0.0000    0.0000   -0.0000   -0.0000
       11 O1     3d1-      -0.0000   -0.0123    0.0010    0.0000   -0.0000    0.0000   -0.0023    0.0370   -0.0000   -0.0000
       12 O1     3d0       -0.0038    0.0000   -0.0000    0.0000   -0.0000    0.0251    0.0000   -0.0000   -0.0191   -0.0318
       13 O1     3d1+       0.0000   -0.0010   -0.0123   -0.0000   -0.0000   -0.0000    0.0370    0.0023    0.0000    0.0000
       14 O1     3d2+       0.0000   -0.0000   -0.0000    0.0008   -0.0002   -0.0000    0.0000   -0.0000    0.0000    0.0000
       15 FE2    1s        -0.0023   -0.0000   -0.0000    0.0000   -0.0000    0.0013    0.0000    0.0000    0.0011    0.0058
       16 FE2    2s        -0.0170    0.0000   -0.0000    0.0000   -0.0000    0.0095    0.0000    0.0000    0.0078    0.0414
       17 FE2    3s        -0.1046    0.0000   -0.0000    0.0000   -0.0000    0.0535    0.0000    0.0000    0.0312    0.1906
       18 FE2    4s         0.0090   -0.0000   -0.0000   -0.0000    0.0000    0.0054    0.0000   -0.0000   -0.8472    0.4489
       19 FE2    5s        -0.0086    0.0000   -0.0000    0.0000   -0.0000    0.0086   -0.0000    0.0000    0.2489    0.0025
       20 FE2    2px       -0.0000   -0.0000   -0.0003   -0.0000    0.0000   -0.0000    0.0025    0.0002    0.0000    0.0000
       21 FE2    3px        0.0000   -0.0007   -0.0092   -0.0000    0.0000    0.0000    0.0534    0.0034    0.0000   -0.0000
       22 FE2    4px       -0.0000    0.0008    0.0103    0.0000    0.0000    0.0000   -0.0638   -0.0040   -0.0000   -0.0000
       23 FE2    5px       -0.0000    0.0006    0.0075    0.0000    0.0000    0.0000    0.0178    0.0011   -0.0000   -0.0000
       24 FE2    2py       -0.0000   -0.0003    0.0000    0.0000    0.0000   -0.0000   -0.0002    0.0025   -0.0000   -0.0000
       25 FE2    3py       -0.0000   -0.0092    0.0007   -0.0000   -0.0000   -0.0000   -0.0034    0.0534   -0.0000   -0.0000
       26 FE2    4py        0.0000    0.0103   -0.0008   -0.0000    0.0000   -0.0000    0.0040   -0.0638    0.0000    0.0000
       27 FE2    5py        0.0000    0.0075   -0.0006   -0.0000    0.0000   -0.0000   -0.0011    0.0178   -0.0000    0.0000
       28 FE2    2pz       -0.0051   -0.0000   -0.0000    0.0000   -0.0000    0.0021    0.0000    0.0000    0.0016    0.0079
       29 FE2    3pz       -0.1368   -0.0000   -0.0000    0.0000   -0.0000    0.0444   -0.0000    0.0000    0.0215    0.1221
       30 FE2    4pz        0.0214   -0.0000   -0.0000   -0.0000    0.0000    0.0006    0.0000   -0.0000    0.1958   -0.4887
       31 FE2    5pz       -0.0083    0.0000   -0.0000    0.0000   -0.0000    0.0090    0.0000    0.0000    0.0110   -0.0106
       32 FE2    3d2-       0.0000   -0.0000   -0.0000    0.2332    0.9663    0.0000    0.0000    0.0000    0.0000    0.0000
       33 FE2    4d2-       0.0000    0.0000    0.0000   -0.0254   -0.1054   -0.0000   -0.0000   -0.0000   -0.0000   -0.0000
       34 FE2    3d1-      -0.0000    0.9580   -0.0777   -0.0000    0.0000   -0.0000   -0.0184    0.2905   -0.0000   -0.0000
       35 FE2    4d1-       0.0000   -0.0913    0.0074    0.0000   -0.0000    0.0000    0.0035   -0.0549    0.0000    0.0000
       36 FE2    3d0        0.3144    0.0000   -0.0000    0.0000   -0.0000    0.9346   -0.0000    0.0000    0.0292    0.1659
       37 FE2    4d0       -0.0248   -0.0000    0.0000   -0.0000    0.0000   -0.0849    0.0000   -0.0000    0.0129    0.0231
       38 FE2    3d1+       0.0000    0.0777    0.9580    0.0000    0.0000    0.0000    0.2905    0.0184    0.0000   -0.0000
       39 FE2    4d1+      -0.0000   -0.0074   -0.0913   -0.0000   -0.0000   -0.0000   -0.0549   -0.0035   -0.0000    0.0000
       40 FE2    3d2+       0.0000    0.0000   -0.0000    0.9663   -0.2332   -0.0000    0.0000   -0.0000   -0.0000   -0.0000
       41 FE2    4d2+      -0.0000   -0.0000    0.0000   -0.1054    0.0254    0.0000   -0.0000    0.0000    0.0000   -0.0000
       42 FE2    4f3-       0.0000    0.0000   -0.0000   -0.0000    0.0000   -0.0000    0.0000    0.0000   -0.0000    0.0000
       43 FE2    4f2-       0.0000    0.0000   -0.0000   -0.0003   -0.0012    0.0000   -0.0000    0.0000   -0.0000   -0.0000
       44 FE2    4f1-      -0.0000    0.0028   -0.0002   -0.0000    0.0000   -0.0000    0.0008   -0.0133    0.0000    0.0000
       45 FE2    4f0        0.0097    0.0000   -0.0000   -0.0000    0.0000    0.0010    0.0000   -0.0000   -0.0038   -0.0100
       46 FE2    4f1+       0.0000    0.0002    0.0028    0.0000    0.0000   -0.0000   -0.0133   -0.0008   -0.0000    0.0000
       47 FE2    4f2+       0.0000    0.0000    0.0000   -0.0012    0.0003    0.0000   -0.0000    0.0000    0.0000   -0.0000
       48 FE2    4f3+      -0.0000    0.0000    0.0000    0.0000    0.0000   -0.0000    0.0000    0.0000    0.0000   -0.0000

          Orbital           21        22        23        24    
          Energy           -0.3832   -0.3832   -0.2547   -0.1856
          Occ. No.          0.0000    0.0000    0.0000    0.0000

        1 O1     1s        -0.0000   -0.0000   -0.0856   -0.1140
        2 O1     2s        -0.0000   -0.0000   -0.6762   -0.8336
        3 O1     3s        -0.0000   -0.0000   -0.1895   -0.2850
        4 O1     2px       -0.2412    0.2500    0.0000   -0.0000
        5 O1     3px       -0.0755    0.0783    0.0000   -0.0000
        6 O1     2py       -0.2500   -0.2412    0.0000    0.0000
        7 O1     3py       -0.0783   -0.0755    0.0000    0.0000
        8 O1     2pz       -0.0000   -0.0000    0.1657    0.7044
        9 O1     3pz       -0.0000   -0.0000    0.0646    0.4221
       10 O1     3d2-       0.0000   -0.0000    0.0000    0.0000
       11 O1     3d1-       0.0016    0.0015    0.0000   -0.0000
       12 O1     3d0        0.0000    0.0000   -0.0062   -0.0285
       13 O1     3d1+       0.0015   -0.0016   -0.0000    0.0000
       14 O1     3d2+      -0.0000   -0.0000   -0.0000   -0.0000
       15 FE2    1s        -0.0000   -0.0000    0.0039    0.0112
       16 FE2    2s        -0.0000   -0.0000    0.0279    0.0807
       17 FE2    3s        -0.0000   -0.0000    0.1415    0.3771
       18 FE2    4s        -0.0000   -0.0000    0.7354    0.6740
       19 FE2    5s        -0.0000   -0.0000    0.4947   -1.0238
       20 FE2    2px        0.0014   -0.0014   -0.0000    0.0000
       21 FE2    3px        0.0312   -0.0323   -0.0000    0.0000
       22 FE2    4px        0.7604   -0.7881   -0.0000    0.0000
       23 FE2    5px        0.0511   -0.0529   -0.0000    0.0000
       24 FE2    2py        0.0014    0.0014   -0.0000   -0.0000
       25 FE2    3py        0.0323    0.0312   -0.0000   -0.0000
       26 FE2    4py        0.7881    0.7604   -0.0000   -0.0000
       27 FE2    5py        0.0529    0.0511   -0.0000   -0.0000
       28 FE2    2pz       -0.0000   -0.0000    0.0068    0.0155
       29 FE2    3pz       -0.0000   -0.0000    0.1294    0.2531
       30 FE2    4pz        0.0000    0.0000    0.9163    0.8378
       31 FE2    5pz        0.0000    0.0000    0.0855    0.0964
       32 FE2    3d2-       0.0000   -0.0000   -0.0000    0.0000
       33 FE2    4d2-      -0.0000    0.0000    0.0000    0.0000
       34 FE2    3d1-       0.0495    0.0478   -0.0000   -0.0000
       35 FE2    4d1-      -0.0347   -0.0335    0.0000    0.0000
       36 FE2    3d0       -0.0000   -0.0000    0.1406    0.2239
       37 FE2    4d0       -0.0000   -0.0000   -0.0780   -0.0216
       38 FE2    3d1+       0.0478   -0.0495   -0.0000   -0.0000
       39 FE2    4d1+      -0.0335    0.0347    0.0000   -0.0000
       40 FE2    3d2+      -0.0000   -0.0000   -0.0000   -0.0000
       41 FE2    4d2+       0.0000    0.0000   -0.0000   -0.0000
       42 FE2    4f3-      -0.0000   -0.0000    0.0000   -0.0000
       43 FE2    4f2-      -0.0000    0.0000    0.0000    0.0000
       44 FE2    4f1-      -0.0035   -0.0034   -0.0000    0.0000
       45 FE2    4f0        0.0000    0.0000   -0.0066   -0.0058
       46 FE2    4f1+      -0.0034    0.0035    0.0000   -0.0000
       47 FE2    4f2+       0.0000    0.0000   -0.0000   -0.0000
       48 FE2    4f3+      -0.0000    0.0000   -0.0000   -0.0000
--


  Input file to MOLDEN was generated!


++    Static properties:
      ------------------


      LoProp Charges per center


                   O1       FE2   
      Nuclear      8.0000  26.0000
      Electronic  -8.2460 -23.7540

      Total       -0.2460   2.2460
--


      All orbitals with orbital energies smaller than  E(LUMO)+0.5 are printed

++    Molecular orbitals:
      -------------------

      Title: UHF orbitals (beta)

      Molecular orbitals for symmetry species 1: a  

          Orbital            1         2         3         4         5         6         7         8         9        10    
          Energy         -264.4587  -33.1648  -28.2362  -28.2321  -28.2321  -21.2026   -4.8647   -3.3659   -3.3207   -3.3207
          Occ. No.          1.0000    1.0000    1.0000    1.0000    1.0000    1.0000    1.0000    1.0000    1.0000    1.0000

        1 O1     1s        -0.0000   -0.0000   -0.0001   -0.0000    0.0000    1.0000   -0.0015   -0.0056    0.0000   -0.0000
        2 O1     2s         0.0000   -0.0000   -0.0006   -0.0000   -0.0000    0.0006    0.0093    0.0556    0.0000    0.0000
        3 O1     3s         0.0000    0.0000   -0.0004   -0.0000   -0.0000   -0.0008   -0.0006   -0.0040    0.0000   -0.0000
        4 O1     2px        0.0000   -0.0000    0.0000    0.0000    0.0001   -0.0000   -0.0000    0.0000    0.0120    0.0012
        5 O1     3px       -0.0000    0.0000   -0.0000    0.0000    0.0001    0.0000    0.0000    0.0000   -0.0010   -0.0001
        6 O1     2py        0.0000   -0.0000    0.0000    0.0001   -0.0000    0.0000    0.0000   -0.0000   -0.0012    0.0120
        7 O1     3py        0.0000   -0.0000    0.0000    0.0001   -0.0000   -0.0000    0.0000    0.0000    0.0001   -0.0010
        8 O1     2pz       -0.0000   -0.0000    0.0004    0.0000   -0.0000   -0.0005   -0.0098   -0.0458    0.0000   -0.0000
        9 O1     3pz       -0.0000   -0.0001    0.0005   -0.0000    0.0000   -0.0001    0.0009    0.0088   -0.0000    0.0000
       10 O1     3d2-       0.0000   -0.0000    0.0000   -0.0000   -0.0000    0.0000    0.0000    0.0000   -0.0000    0.0000
       11 O1     3d1-      -0.0000    0.0000    0.0000    0.0000   -0.0000    0.0000    0.0000    0.0000    0.0003   -0.0032
       12 O1     3d0        0.0000    0.0001   -0.0001   -0.0000   -0.0000    0.0009    0.0031    0.0112   -0.0000    0.0000
       13 O1     3d1+       0.0000   -0.0000   -0.0000    0.0000    0.0000   -0.0000    0.0000    0.0000   -0.0032   -0.0003
       14 O1     3d2+      -0.0000   -0.0000   -0.0000   -0.0000   -0.0000   -0.0000    0.0000   -0.0000   -0.0000    0.0000
       15 FE2    1s         1.0000    0.0000    0.0000    0.0000   -0.0000   -0.0000   -0.0001   -0.0003    0.0000   -0.0000
       16 FE2    2s        -0.0000    1.0000   -0.0004    0.0000   -0.0000   -0.0001    0.0004   -0.0018    0.0000   -0.0000
       17 FE2    3s        -0.0000   -0.0009    0.0000   -0.0000   -0.0000   -0.0003    0.9972   -0.0096   -0.0000    0.0000
       18 FE2    4s        -0.0000    0.0002    0.0007    0.0000    0.0000   -0.0001    0.0000    0.0014   -0.0000   -0.0000
       19 FE2    5s         0.0000   -0.0002   -0.0004    0.0000   -0.0000    0.0001    0.0010   -0.0000    0.0000    0.0000
       20 FE2    2px        0.0000    0.0000   -0.0000    0.0866    0.9962   -0.0000    0.0000   -0.0000    0.0028    0.0003
       21 FE2    3px        0.0000   -0.0000    0.0000   -0.0002   -0.0028   -0.0000    0.0000   -0.0000    0.9940    0.0994
       22 FE2    4px        0.0000    0.0000   -0.0000    0.0000    0.0003   -0.0000    0.0000   -0.0000   -0.0063   -0.0006
       23 FE2    5px        0.0000    0.0000    0.0000   -0.0001   -0.0010   -0.0000   -0.0000   -0.0000   -0.0001   -0.0000
       24 FE2    2py       -0.0000   -0.0000    0.0000    0.9962   -0.0866    0.0000    0.0000   -0.0000   -0.0003    0.0028
       25 FE2    3py        0.0000   -0.0000   -0.0000   -0.0028    0.0002    0.0000   -0.0000   -0.0000   -0.0994    0.9940
       26 FE2    4py       -0.0000    0.0000   -0.0000    0.0003   -0.0000    0.0000   -0.0000    0.0000    0.0006   -0.0063
       27 FE2    5py       -0.0000    0.0000   -0.0000   -0.0010    0.0001    0.0000    0.0000    0.0000    0.0000   -0.0001
       28 FE2    2pz        0.0000    0.0005    1.0000   -0.0000    0.0000   -0.0001    0.0002    0.0019   -0.0000    0.0000
       29 FE2    3pz        0.0000   -0.0002   -0.0024    0.0000   -0.0000   -0.0002   -0.0058    0.9834   -0.0000    0.0000
       30 FE2    4pz       -0.0000    0.0001    0.0009    0.0000    0.0000   -0.0000    0.0002   -0.0013   -0.0000    0.0000
       31 FE2    5pz        0.0000   -0.0000   -0.0012   -0.0000   -0.0000    0.0002    0.0005   -0.0030    0.0000   -0.0000
       32 FE2    3d2-       0.0000   -0.0000    0.0000   -0.0000   -0.0000   -0.0000    0.0000    0.0000   -0.0000   -0.0000
       33 FE2    4d2-       0.0000    0.0000    0.0000   -0.0000    0.0000   -0.0000    0.0000   -0.0000    0.0000    0.0000
       34 FE2    3d1-      -0.0000   -0.0000   -0.0000    0.0000   -0.0000    0.0000   -0.0000   -0.0000    0.0007   -0.0067
       35 FE2    4d1-      -0.0000    0.0000    0.0000   -0.0001    0.0000    0.0000    0.0000    0.0000   -0.0001    0.0015
       36 FE2    3d0       -0.0000    0.0001    0.0002    0.0000    0.0000   -0.0000   -0.0003   -0.0037   -0.0000   -0.0000
       37 FE2    4d0       -0.0000    0.0000    0.0001    0.0000   -0.0000   -0.0000    0.0021    0.0045   -0.0000    0.0000
       38 FE2    3d1+       0.0000    0.0000   -0.0000    0.0000    0.0000   -0.0000    0.0000    0.0000   -0.0067   -0.0007
       39 FE2    4d1+       0.0000   -0.0000    0.0000   -0.0000   -0.0001   -0.0000   -0.0000    0.0000    0.0015    0.0001
       40 FE2    3d2+      -0.0000    0.0000   -0.0000    0.0000    0.0000    0.0000    0.0000   -0.0000    0.0000    0.0000
       41 FE2    4d2+      -0.0000    0.0000    0.0000   -0.0000    0.0000    0.0000    0.0000    0.0000   -0.0000   -0.0000
       42 FE2    4f3-       0.0000   -0.0000   -0.0000   -0.0000    0.0000   -0.0000   -0.0000    0.0000    0.0000   -0.0000
       43 FE2    4f2-       0.0000    0.0000   -0.0000   -0.0000   -0.0000   -0.0000    0.0000   -0.0000   -0.0000   -0.0000
       44 FE2    4f1-       0.0000   -0.0000    0.0000    0.0001   -0.0000    0.0000   -0.0000   -0.0000   -0.0002    0.0022
       45 FE2    4f0        0.0000   -0.0000   -0.0000    0.0000    0.0000   -0.0000    0.0007    0.0005   -0.0000    0.0000
       46 FE2    4f1+      -0.0000   -0.0000   -0.0000    0.0000    0.0001    0.0000    0.0000    0.0000    0.0022    0.0002
       47 FE2    4f2+       0.0000   -0.0000    0.0000    0.0000   -0.0000    0.0000   -0.0000    0.0000   -0.0000    0.0000
       48 FE2    4f3+       0.0000   -0.0000   -0.0000   -0.0000   -0.0000    0.0000    0.0000   -0.0000   -0.0000   -0.0000

          Orbital           11        12        13        14        15        16        17        18        19        20    
          Energy           -1.8912   -1.2752   -1.1062   -1.1062   -0.5503   -0.5067   -0.5067   -0.4913   -0.4913   -0.4539
          Occ. No.          1.0000    1.0000    1.0000    1.0000    0.0000    0.0000    0.0000    0.0000    0.0000    0.0000

        1 O1     1s         0.0069   -0.0193   -0.0000    0.0000    0.0113   -0.0000   -0.0000   -0.0000    0.0000   -0.0007
        2 O1     2s        -0.9461   -0.2901   -0.0000    0.0000    0.1283   -0.0000    0.0000   -0.0000    0.0000   -0.0547
        3 O1     3s         0.0046   -0.0202   -0.0000    0.0000    0.0188   -0.0000   -0.0000    0.0000    0.0000   -0.0034
        4 O1     2px       -0.0000    0.0000    0.0595    0.7598    0.0000   -0.5249   -0.0387   -0.0000   -0.0000    0.0000
        5 O1     3px       -0.0000   -0.0000   -0.0027   -0.0340   -0.0000   -0.0903   -0.0067   -0.0000   -0.0000    0.0000
        6 O1     2py       -0.0000   -0.0000    0.7598   -0.0595   -0.0000    0.0387   -0.5249    0.0000   -0.0000    0.0000
        7 O1     3py        0.0000    0.0000   -0.0340    0.0027   -0.0000    0.0067   -0.0903    0.0000   -0.0000   -0.0000
        8 O1     2pz        0.1348   -0.8925   -0.0000    0.0000    0.0288   -0.0000    0.0000    0.0000   -0.0000    0.3381
        9 O1     3pz        0.0297    0.0662    0.0000   -0.0000    0.0032    0.0000    0.0000    0.0000   -0.0000    0.0720
       10 O1     3d2-      -0.0000    0.0000    0.0000    0.0000    0.0000   -0.0000   -0.0000    0.0120    0.0015   -0.0000
       11 O1     3d1-      -0.0000   -0.0000   -0.0449    0.0035    0.0000    0.0007   -0.0097    0.0000   -0.0000    0.0000
       12 O1     3d0       -0.0490    0.0266    0.0000    0.0000    0.0164    0.0000    0.0000   -0.0000   -0.0000    0.0165
       13 O1     3d1+       0.0000   -0.0000   -0.0035   -0.0449    0.0000   -0.0097   -0.0007   -0.0000   -0.0000   -0.0000
       14 O1     3d2+       0.0000    0.0000   -0.0000   -0.0000    0.0000   -0.0000    0.0000    0.0015   -0.0120   -0.0000
       15 FE2    1s         0.0029   -0.0030   -0.0000   -0.0000   -0.0003    0.0000    0.0000    0.0000   -0.0000    0.0024
       16 FE2    2s         0.0216   -0.0223   -0.0000   -0.0000   -0.0018    0.0000    0.0000    0.0000   -0.0000    0.0171
       17 FE2    3s         0.1322   -0.1178   -0.0000   -0.0000   -0.0109    0.0000    0.0000    0.0000   -0.0000    0.0835
       18 FE2    4s        -0.0031    0.0682    0.0000   -0.0000   -0.8875   -0.0000    0.0000   -0.0000   -0.0000    0.3295
       19 FE2    5s         0.0062   -0.0273   -0.0000    0.0000    0.1873    0.0000   -0.0000    0.0000    0.0000   -0.0291
       20 FE2    2px        0.0000   -0.0000   -0.0002   -0.0024   -0.0000    0.0021    0.0002    0.0000    0.0000    0.0000
       21 FE2    3px       -0.0000    0.0000   -0.0040   -0.0512   -0.0000    0.0452    0.0033    0.0000    0.0000   -0.0000
       22 FE2    4px        0.0000    0.0000    0.0069    0.0875   -0.0000   -0.2505   -0.0185   -0.0000   -0.0000    0.0000
       23 FE2    5px        0.0000   -0.0000   -0.0010   -0.0133   -0.0000   -0.0149   -0.0011   -0.0000   -0.0000    0.0000
       24 FE2    2py       -0.0000    0.0000   -0.0024    0.0002    0.0000   -0.0002    0.0021    0.0000    0.0000    0.0000
       25 FE2    3py       -0.0000    0.0000   -0.0512    0.0040    0.0000   -0.0033    0.0452   -0.0000    0.0000    0.0000
       26 FE2    4py       -0.0000   -0.0000    0.0875   -0.0069    0.0000    0.0185   -0.2505    0.0000   -0.0000    0.0000
       27 FE2    5py       -0.0000    0.0000   -0.0133    0.0010    0.0000    0.0011   -0.0149    0.0000   -0.0000    0.0000
       28 FE2    2pz        0.0070   -0.0067   -0.0000   -0.0000   -0.0007    0.0000    0.0000   -0.0000   -0.0000    0.0038
       29 FE2    3pz        0.1918   -0.1349   -0.0000   -0.0000   -0.0084    0.0000    0.0000    0.0000   -0.0000    0.0695
       30 FE2    4pz       -0.0250    0.0556    0.0000   -0.0000    0.1286    0.0000   -0.0000    0.0000    0.0000   -0.6269
       31 FE2    5pz        0.0083   -0.0119   -0.0000   -0.0000    0.0053    0.0000   -0.0000    0.0000    0.0000   -0.0471
       32 FE2    3d2-      -0.0000    0.0000    0.0000   -0.0000   -0.0000   -0.0000   -0.0000    0.9748    0.1248    0.0000
       33 FE2    4d2-      -0.0000    0.0000    0.0000   -0.0000   -0.0000   -0.0000   -0.0000    0.1760    0.0225    0.0000
       34 FE2    3d1-      -0.0000   -0.0000    0.4603   -0.0360    0.0000   -0.0635    0.8612   -0.0000    0.0000   -0.0000
       35 FE2    4d1-       0.0000   -0.0000    0.0713   -0.0056    0.0000   -0.0087    0.1183   -0.0000    0.0000   -0.0000
       36 FE2    3d0       -0.1353    0.3030    0.0000   -0.0000    0.4262    0.0000    0.0000    0.0000   -0.0000    0.6737
       37 FE2    4d0       -0.0105    0.0299    0.0000   -0.0000    0.0671    0.0000   -0.0000   -0.0000   -0.0000    0.1177
       38 FE2    3d1+      -0.0000    0.0000    0.0360    0.4603   -0.0000    0.8612    0.0635    0.0000    0.0000   -0.0000
       39 FE2    4d1+       0.0000    0.0000    0.0056    0.0713   -0.0000    0.1183    0.0087    0.0000    0.0000   -0.0000
       40 FE2    3d2+      -0.0000    0.0000    0.0000   -0.0000    0.0000   -0.0000    0.0000    0.1248   -0.9748   -0.0000
       41 FE2    4d2+       0.0000    0.0000    0.0000    0.0000    0.0000   -0.0000    0.0000    0.0225   -0.1760   -0.0000
       42 FE2    4f3-      -0.0000   -0.0000    0.0000   -0.0000    0.0000    0.0000   -0.0000   -0.0000    0.0000    0.0000
       43 FE2    4f2-      -0.0000    0.0000   -0.0000   -0.0000    0.0000   -0.0000    0.0000   -0.0011   -0.0001    0.0000
       44 FE2    4f1-       0.0000   -0.0000    0.0180   -0.0014   -0.0000    0.0006   -0.0083    0.0000   -0.0000   -0.0000
       45 FE2    4f0       -0.0102    0.0149    0.0000   -0.0000    0.0013    0.0000   -0.0000   -0.0000    0.0000   -0.0052
       46 FE2    4f1+      -0.0000    0.0000    0.0014    0.0180    0.0000   -0.0083   -0.0006   -0.0000   -0.0000    0.0000
       47 FE2    4f2+      -0.0000    0.0000    0.0000   -0.0000   -0.0000    0.0000    0.0000   -0.0001    0.0011   -0.0000
       48 FE2    4f3+       0.0000   -0.0000    0.0000    0.0000    0.0000   -0.0000   -0.0000    0.0000    0.0000   -0.0000

          Orbital           21        22        23        24    
          Energy           -0.3382   -0.3382   -0.2299   -0.1429
          Occ. No.          0.0000    0.0000    0.0000    0.0000

        1 O1     1s         0.0000   -0.0000   -0.0540   -0.1658
        2 O1     2s         0.0000   -0.0000   -0.4297   -1.2461
        3 O1     3s         0.0000   -0.0000   -0.1086   -0.3995
        4 O1     2px       -0.0766   -0.5471    0.0000    0.0000
        5 O1     3px       -0.0232   -0.1658    0.0000    0.0000
        6 O1     2py       -0.5471    0.0766    0.0000   -0.0000
        7 O1     3py       -0.1658    0.0232    0.0000   -0.0000
        8 O1     2pz        0.0000    0.0000    0.0205    0.7060
        9 O1     3pz        0.0000    0.0000    0.0077    0.5035
       10 O1     3d2-      -0.0000   -0.0000    0.0000    0.0000
       11 O1     3d1-      -0.0050    0.0007   -0.0000   -0.0000
       12 O1     3d0        0.0000    0.0000   -0.0025   -0.0314
       13 O1     3d1+      -0.0007   -0.0050    0.0000    0.0000
       14 O1     3d2+       0.0000   -0.0000    0.0000    0.0000
       15 FE2    1s         0.0000    0.0000    0.0016    0.0135
       16 FE2    2s         0.0000    0.0000    0.0119    0.0970
       17 FE2    3s         0.0000    0.0000    0.0633    0.4564
       18 FE2    4s         0.0000    0.0000    0.4998    1.0083
       19 FE2    5s         0.0000    0.0000    0.8037   -0.8335
       20 FE2    2px        0.0003    0.0023   -0.0000   -0.0000
       21 FE2    3px        0.0079    0.0564   -0.0000   -0.0000
       22 FE2    4px        0.1503    1.0729   -0.0000   -0.0000
       23 FE2    5px        0.0136    0.0968   -0.0000   -0.0000
       24 FE2    2py        0.0023   -0.0003   -0.0000   -0.0000
       25 FE2    3py        0.0564   -0.0079   -0.0000    0.0000
       26 FE2    4py        1.0729   -0.1503   -0.0000    0.0000
       27 FE2    5py        0.0968   -0.0136   -0.0000    0.0000
       28 FE2    2pz        0.0000    0.0000    0.0031    0.0191
       29 FE2    3pz        0.0000    0.0000    0.0660    0.3188
       30 FE2    4pz       -0.0000    0.0000    0.5501    1.1143
       31 FE2    5pz        0.0000    0.0000    0.0530    0.1159
       32 FE2    3d2-       0.0000    0.0000    0.0000    0.0000
       33 FE2    4d2-      -0.0000    0.0000    0.0000    0.0000
       34 FE2    3d1-       0.3107   -0.0435   -0.0000   -0.0000
       35 FE2    4d1-       0.0107   -0.0015   -0.0000   -0.0000
       36 FE2    3d0       -0.0000    0.0000    0.2370    0.5646
       37 FE2    4d0       -0.0000    0.0000    0.0138    0.1092
       38 FE2    3d1+       0.0435    0.3107   -0.0000   -0.0000
       39 FE2    4d1+       0.0015    0.0107   -0.0000    0.0000
       40 FE2    3d2+      -0.0000    0.0000   -0.0000   -0.0000
       41 FE2    4d2+      -0.0000    0.0000   -0.0000   -0.0000
       42 FE2    4f3-      -0.0000    0.0000    0.0000   -0.0000
       43 FE2    4f2-      -0.0000   -0.0000    0.0000    0.0000
       44 FE2    4f1-      -0.0061    0.0009   -0.0000   -0.0000
       45 FE2    4f0        0.0000    0.0000   -0.0043   -0.0070
       46 FE2    4f1+      -0.0009   -0.0061    0.0000    0.0000
       47 FE2    4f2+       0.0000   -0.0000    0.0000    0.0000
       48 FE2    4f3+      -0.0000   -0.0000   -0.0000   -0.0000
--


++    Molecular charges:
      ------------------

      Mulliken charges per centre and basis function type
      ---------------------------------------------------

                            O1                      FE2   
                     alpha        beta       alpha        beta
      1s           0.9999      1.0000      1.0000      1.0000
      2s           0.9728      0.9722      1.0000      1.0000
      2px          0.9659      0.6742      1.0000      1.0000
      2pz          0.0378      0.8374      1.0000      1.0000
      2py          0.9659      0.6742      1.0000      1.0000
      3s           0.0028     -0.0000      0.9996      0.9994
      3px         -0.0012     -0.0029      0.9989      0.9992
      3pz          0.0033      0.0067      0.9971      0.9967
      3py         -0.0012     -0.0029      0.9989      0.9992
      4s           0.0000      0.0000      0.0020      0.0057
      3d2+         0.0001      0.0000      0.9882      0.0000
      3d1+         0.0023      0.0072      0.9852      0.2711
      3d0          0.0039      0.0031      0.9526      0.1540
      3d1-         0.0023      0.0072      0.9852      0.2711
      3d2-         0.0001      0.0000      0.9882      0.0000
      4px          0.0000      0.0000      0.0215      0.0256
      4pz          0.0000      0.0000      0.0097      0.0106
      4py          0.0000      0.0000      0.0215      0.0256
      5s           0.0000      0.0000      0.0017      0.0060
      4d2+         0.0000      0.0000      0.0117      0.0000
      4d1+         0.0000      0.0000      0.0251      0.0231
      4d0          0.0000      0.0000      0.0150      0.0021
      4d1-         0.0000      0.0000      0.0251      0.0231
      4d2-         0.0000      0.0000      0.0117      0.0000
      5px          0.0000      0.0000      0.0002      0.0001
      5pz          0.0000      0.0000      0.0005      0.0037
      5py          0.0000      0.0000      0.0002      0.0001
      4f3+         0.0000      0.0000      0.0000      0.0000
      4f2+         0.0000      0.0000      0.0000      0.0000
      4f1+         0.0000      0.0000      0.0021      0.0024
      4f0          0.0000      0.0000      0.0013      0.0023
      4f1-         0.0000      0.0000      0.0021      0.0024
      4f2-         0.0000      0.0000      0.0000      0.0000
      4f3-         0.0000      0.0000      0.0000      0.0000
      Total        3.9546      4.1765     14.0454      9.8235
      Total              8.1311                 23.8689

      Charge           -0.1311                  2.1311

      Total electronic charge=   32.000000

      Total            charge=    2.000000
--


  Input file to MOLDEN was generated!


++    Static properties:
      ------------------


      LoProp Charges per center


                   O1       FE2   
      Nuclear      8.0000  26.0000
      Electronic  -8.2460 -23.7540

      Total       -0.2460   2.2460
--


++    Natural Bond Order analysis
      ---------------------------
      Based on LoProp computed density
      -------------------------------------------------------------------------------------
      Atom A       Atom B       Bond Order
        O1           FE2            2.897
      -------------------------------------------------------------------------------------
      NBO located     19.998 core electrons.
      NBO located      1.936 lone pair electrons.
      NBO located      5.794 electrons involved in    1 bonds.
      NBO located      1.000 non-bonded electrons on atom FE2       
      NBO located      1.000 non-bonded electrons on atom FE2       
      The remaining    2.271 electrons are to be considered as diffuse
--


++    Molecular orbitals:
      -------------------

      Title: Natural orbitals

      Molecular orbitals for symmetry species 1: a  

          Orbital            1         2         3         4         5         6         7         8         9        10    
          Energy         -264.4600  -32.5693  -22.0226  -27.7273  -27.7259  -26.8329   -5.8719   -4.1433   -4.1447   -4.0180
          Occ. No.          2.0000    2.0000    2.0000    2.0000    2.0000    2.0000    2.0000    1.9999    1.9999    1.9999

        1 O1     1s        -0.0000   -0.0739    0.9363   -0.0000    0.0000    0.3423   -0.0098    0.0000   -0.0000   -0.0137
        2 O1     2s         0.0000    0.0029   -0.0220    0.0000   -0.0000   -0.0211   -0.0340    0.0000   -0.0000   -0.1256
        3 O1     3s         0.0000    0.0000   -0.0007    0.0000   -0.0000   -0.0008   -0.0001    0.0000   -0.0000   -0.0022
        4 O1     2px        0.0000    0.0000   -0.0000    0.0003    0.0026    0.0000    0.0000   -0.0032   -0.0348    0.0000
        5 O1     3px       -0.0000   -0.0000    0.0000   -0.0000   -0.0003   -0.0000   -0.0000    0.0003    0.0031   -0.0000
        6 O1     2py        0.0000    0.0000    0.0000    0.0026   -0.0003   -0.0000    0.0000   -0.0348    0.0032   -0.0000
        7 O1     3py        0.0000   -0.0000   -0.0000   -0.0003    0.0000    0.0000    0.0000    0.0031   -0.0003    0.0000
        8 O1     2pz       -0.0000   -0.0001    0.0036   -0.0000    0.0000    0.0024    0.0042   -0.0000    0.0000    0.0166
        9 O1     3pz       -0.0000   -0.0002    0.0004    0.0000   -0.0000    0.0018    0.0015   -0.0000    0.0000    0.0108
       10 O1     3d2-       0.0000   -0.0000    0.0000   -0.0000   -0.0000   -0.0000    0.0000    0.0000   -0.0000    0.0000
       11 O1     3d1-      -0.0000   -0.0000    0.0000    0.0001   -0.0000    0.0000    0.0000    0.0002   -0.0000    0.0000
       12 O1     3d0        0.0000   -0.0001   -0.0008    0.0000   -0.0000    0.0001    0.0002   -0.0000    0.0000    0.0014
       13 O1     3d1+       0.0000    0.0000   -0.0000    0.0000    0.0001    0.0000   -0.0000    0.0000    0.0002    0.0000
       14 O1     3d2+      -0.0000   -0.0000   -0.0000   -0.0000    0.0000    0.0000    0.0000    0.0000   -0.0000    0.0000
       15 FE2    1s         1.0000   -0.0000    0.0001   -0.0000    0.0000    0.0000    0.0000   -0.0000    0.0000    0.0004
       16 FE2    2s         0.0000    0.9863    0.0748   -0.0000    0.0000    0.0140    0.1470    0.0000    0.0000   -0.0012
       17 FE2    3s         0.0001   -0.1446   -0.0346    0.0000   -0.0000    0.0974    0.9869   -0.0000    0.0000    0.0464
       18 FE2    4s        -0.0000    0.0003    0.0002   -0.0000    0.0000   -0.0003   -0.0024    0.0000    0.0000   -0.0025
       19 FE2    5s         0.0000   -0.0004   -0.0000    0.0000   -0.0000    0.0006    0.0029   -0.0000    0.0000    0.0025
       20 FE2    2px       -0.0000    0.0000   -0.0000    0.1175    0.9812    0.0000   -0.0000    0.0142    0.1527   -0.0000
       21 FE2    3px        0.0000   -0.0000    0.0000   -0.0182   -0.1523   -0.0000   -0.0000    0.0919    0.9838   -0.0000
       22 FE2    4px        0.0000    0.0000   -0.0000    0.0003    0.0021    0.0000    0.0000   -0.0015   -0.0158    0.0000
       23 FE2    5px        0.0000   -0.0000    0.0000   -0.0001   -0.0008   -0.0000   -0.0000    0.0006    0.0060   -0.0000
       24 FE2    2py        0.0000   -0.0000    0.0000    0.9812   -0.1175   -0.0000   -0.0000    0.1526   -0.0143    0.0000
       25 FE2    3py       -0.0000    0.0000   -0.0000   -0.1521    0.0182    0.0000   -0.0000    0.9839   -0.0919    0.0000
       26 FE2    4py       -0.0000   -0.0000    0.0000    0.0021   -0.0003   -0.0000    0.0000   -0.0158    0.0015   -0.0000
       27 FE2    5py       -0.0000    0.0000   -0.0000   -0.0008    0.0001    0.0000   -0.0000    0.0060   -0.0006    0.0000
       28 FE2    2pz       -0.0001   -0.0262    0.3392   -0.0000    0.0000   -0.9251    0.0936   -0.0000    0.0000    0.1406
       29 FE2    3pz       -0.0000    0.0118   -0.0368    0.0000   -0.0000    0.1323   -0.0440   -0.0000    0.0000    0.9948
       30 FE2    4pz       -0.0000    0.0002    0.0000   -0.0000    0.0000   -0.0020   -0.0019    0.0000   -0.0000   -0.0145
       31 FE2    5pz        0.0000   -0.0002    0.0000    0.0000   -0.0000    0.0008    0.0014   -0.0000    0.0000    0.0056
       32 FE2    3d2-       0.0000   -0.0000   -0.0000    0.0000    0.0000   -0.0000   -0.0000   -0.0000   -0.0000    0.0000
       33 FE2    4d2-       0.0000   -0.0000   -0.0000   -0.0000   -0.0000   -0.0000    0.0000    0.0000    0.0000   -0.0000
       34 FE2    3d1-       0.0000    0.0000    0.0000    0.0038   -0.0005   -0.0000   -0.0000   -0.0360    0.0034   -0.0000
       35 FE2    4d1-      -0.0000    0.0000    0.0000    0.0003   -0.0000   -0.0000   -0.0000   -0.0024    0.0002   -0.0000
       36 FE2    3d0       -0.0000    0.0008   -0.0021    0.0000    0.0000   -0.0066   -0.0091    0.0000   -0.0000   -0.0449
       37 FE2    4d0       -0.0000   -0.0001   -0.0001    0.0000   -0.0000    0.0003    0.0009   -0.0000    0.0000    0.0008
       38 FE2    3d1+       0.0000    0.0000   -0.0000    0.0005    0.0038    0.0000    0.0000   -0.0034   -0.0360    0.0000
       39 FE2    4d1+       0.0000    0.0000   -0.0000    0.0000    0.0003    0.0000    0.0000   -0.0002   -0.0024    0.0000
       40 FE2    3d2+      -0.0000   -0.0000   -0.0000   -0.0000    0.0000   -0.0000    0.0000    0.0000    0.0000   -0.0000
       41 FE2    4d2+       0.0000   -0.0000   -0.0000    0.0000    0.0000    0.0000    0.0000   -0.0000   -0.0000    0.0000
       42 FE2    4f3-       0.0000    0.0000   -0.0000    0.0000   -0.0000    0.0000   -0.0000   -0.0000    0.0000    0.0000
       43 FE2    4f2-       0.0000   -0.0000    0.0000   -0.0000    0.0000   -0.0000    0.0000   -0.0000   -0.0000   -0.0000
       44 FE2    4f1-       0.0000    0.0000    0.0000    0.0000   -0.0000   -0.0000   -0.0000   -0.0004    0.0000   -0.0000
       45 FE2    4f0        0.0000   -0.0001   -0.0003    0.0000   -0.0000   -0.0002    0.0002    0.0000   -0.0000   -0.0021
       46 FE2    4f1+      -0.0000    0.0000   -0.0000    0.0000    0.0000    0.0000    0.0000   -0.0000   -0.0004    0.0000
       47 FE2    4f2+       0.0000    0.0000   -0.0000   -0.0000    0.0000    0.0000   -0.0000    0.0000   -0.0000    0.0000
       48 FE2    4f3+       0.0000   -0.0000   -0.0000    0.0000    0.0000    0.0000    0.0000   -0.0000   -0.0000   -0.0000

          Orbital           11        12        13        14        15        16        17        18        19        20    
          Energy           -1.9604   -1.2173   -1.2173   -1.1206   -0.8957   -0.8957   -0.9627   -0.9627   -0.6476    0.3811
          Occ. No.          1.9983    1.9943    1.9943    1.4866    1.0000    1.0000    1.0000    1.0000    0.5134    0.0057

        1 O1     1s         0.0211   -0.0000    0.0000   -0.0263   -0.0000   -0.0000    0.0000   -0.0000    0.0062    0.0000
        2 O1     2s         0.9360   -0.0000    0.0000   -0.3726   -0.0000   -0.0000    0.0000   -0.0000    0.0227    0.0000
        3 O1     3s        -0.0044   -0.0000    0.0000   -0.0446   -0.0000   -0.0000    0.0000   -0.0000    0.0362    0.0000
        4 O1     2px       -0.0000    0.0639    0.7860    0.0000   -0.0440   -0.5390   -0.0001    0.0000    0.0000   -0.4928
        5 O1     3px        0.0000   -0.0035   -0.0436   -0.0000   -0.0013   -0.0157   -0.0000    0.0000   -0.0000    0.1778
        6 O1     2py        0.0000    0.7860   -0.0639   -0.0000   -0.5390    0.0440   -0.0000    0.0000   -0.0000    0.0204
        7 O1     3py       -0.0000   -0.0436    0.0035    0.0000   -0.0157    0.0013   -0.0000    0.0000    0.0000   -0.0074
        8 O1     2pz       -0.1538   -0.0000    0.0000   -0.5596    0.0000   -0.0000    0.0000   -0.0000   -0.8054   -0.0000
        9 O1     3pz       -0.0201    0.0000   -0.0000    0.0623    0.0000    0.0000   -0.0000   -0.0000    0.0268   -0.0000
       10 O1     3d2-       0.0000    0.0000    0.0000    0.0000    0.0000   -0.0000    0.0002    0.0008   -0.0000    0.0000
       11 O1     3d1-      -0.0000   -0.0402    0.0033    0.0000    0.0165   -0.0013    0.0000   -0.0000    0.0000    0.0037
       12 O1     3d0        0.0215    0.0000   -0.0000    0.0290   -0.0000    0.0000   -0.0000    0.0000    0.0016    0.0000
       13 O1     3d1+       0.0000   -0.0033   -0.0402   -0.0000    0.0013    0.0165    0.0000   -0.0000   -0.0000   -0.0904
       14 O1     3d2+      -0.0000   -0.0000   -0.0000    0.0000   -0.0000   -0.0000    0.0008   -0.0002    0.0000   -0.0000
       15 FE2    1s        -0.0027   -0.0000   -0.0000   -0.0012    0.0000    0.0000   -0.0000   -0.0000   -0.0038   -0.0000
       16 FE2    2s        -0.0163   -0.0000   -0.0000   -0.0088    0.0000   -0.0000   -0.0000   -0.0000   -0.0275   -0.0000
       17 FE2    3s        -0.0709   -0.0000   -0.0000   -0.0407    0.0000   -0.0000   -0.0000   -0.0000   -0.1423   -0.0000
       18 FE2    4s         0.0059    0.0000   -0.0000    0.0435   -0.0000    0.0000   -0.0000    0.0000    0.0606   -0.0000
       19 FE2    5s        -0.0080   -0.0000    0.0000   -0.0117    0.0000   -0.0000    0.0000   -0.0000   -0.0337    0.0000
       20 FE2    2px        0.0000    0.0001    0.0014   -0.0000    0.0001    0.0018    0.0000   -0.0000   -0.0000   -0.0002
       21 FE2    3px        0.0000    0.0010    0.0118    0.0000    0.0036    0.0441    0.0000   -0.0000    0.0000    0.0067
       22 FE2    4px       -0.0000    0.0057    0.0698    0.0000   -0.0030   -0.0366   -0.0000    0.0000    0.0000    0.3250
       23 FE2    5px       -0.0000   -0.0008   -0.0102   -0.0000    0.0015    0.0178    0.0000   -0.0000   -0.0000   -0.0580
       24 FE2    2py       -0.0000    0.0014   -0.0001    0.0000    0.0018   -0.0001    0.0000   -0.0000    0.0000    0.0000
       25 FE2    3py       -0.0000    0.0118   -0.0010    0.0000    0.0441   -0.0036    0.0000   -0.0000    0.0000   -0.0003
       26 FE2    4py        0.0000    0.0698   -0.0057   -0.0000   -0.0366    0.0030   -0.0000    0.0000   -0.0000   -0.0135
       27 FE2    5py       -0.0000   -0.0102    0.0008    0.0000    0.0178   -0.0015    0.0000   -0.0000    0.0000    0.0024
       28 FE2    2pz        0.0036   -0.0000   -0.0000   -0.0024    0.0000   -0.0000    0.0000   -0.0000   -0.0074   -0.0000
       29 FE2    3pz        0.0180   -0.0000   -0.0000   -0.0268    0.0000   -0.0000    0.0000   -0.0000   -0.1404   -0.0000
       30 FE2    4pz        0.0213    0.0000   -0.0000    0.0341   -0.0000    0.0000   -0.0000    0.0000    0.0504    0.0000
       31 FE2    5pz       -0.0083   -0.0000   -0.0000   -0.0023    0.0000    0.0000    0.0000   -0.0000   -0.0193    0.0000
       32 FE2    3d2-       0.0000    0.0000   -0.0000    0.0000    0.0000   -0.0000    0.2332    0.9663   -0.0000   -0.0000
       33 FE2    4d2-       0.0000    0.0000   -0.0000    0.0000   -0.0000    0.0000   -0.0254   -0.1054    0.0000   -0.0000
       34 FE2    3d1-       0.0000    0.4534   -0.0369   -0.0000    0.8950   -0.0730    0.0000   -0.0000    0.0000   -0.0049
       35 FE2    4d1-       0.0000    0.0241   -0.0020    0.0000   -0.1040    0.0085   -0.0000    0.0000   -0.0000   -0.0368
       36 FE2    3d0        0.1376    0.0000   -0.0000    0.7387    0.0000   -0.0000   -0.0000   -0.0000   -0.6672   -0.0000
       37 FE2    4d0        0.0011    0.0000   -0.0000   -0.0338   -0.0000    0.0000    0.0000    0.0000    0.1162   -0.0000
       38 FE2    3d1+      -0.0000    0.0369    0.4534    0.0000    0.0730    0.8950    0.0001   -0.0000   -0.0000    0.1181
       39 FE2    4d1+      -0.0000    0.0020    0.0241    0.0000   -0.0085   -0.1040   -0.0000    0.0000    0.0000    0.8888
       40 FE2    3d2+       0.0000    0.0000   -0.0000    0.0000   -0.0000   -0.0001    0.9663   -0.2332   -0.0000   -0.0000
       41 FE2    4d2+      -0.0000    0.0000    0.0000   -0.0000    0.0000    0.0000   -0.1054    0.0254    0.0000   -0.0000
       42 FE2    4f3-       0.0000    0.0000   -0.0000   -0.0000    0.0000   -0.0000   -0.0000    0.0000    0.0000   -0.0000
       43 FE2    4f2-       0.0000   -0.0000   -0.0000    0.0000   -0.0000    0.0000   -0.0003   -0.0012   -0.0000   -0.0000
       44 FE2    4f1-       0.0000    0.0148   -0.0012   -0.0000   -0.0071    0.0006   -0.0000    0.0000   -0.0000   -0.0026
       45 FE2    4f0        0.0098    0.0000   -0.0000    0.0101   -0.0000    0.0000   -0.0000    0.0000    0.0118   -0.0000
       46 FE2    4f1+       0.0000    0.0012    0.0148    0.0000   -0.0006   -0.0071   -0.0000    0.0000    0.0000    0.0626
       47 FE2    4f2+       0.0000    0.0000   -0.0000    0.0000    0.0000    0.0000   -0.0012    0.0003    0.0000   -0.0000
       48 FE2    4f3+      -0.0000   -0.0000    0.0000   -0.0000    0.0000    0.0000    0.0000    0.0000    0.0000    0.0000

          Orbital           21        22        23        24        25        26        27        28        29        30    
          Energy            0.3811    1.7105    1.1585    1.0436    1.0436   -0.1161    1.4724    1.3077    1.3077    0.7094
          Occ. No.          0.0057    0.0017    0.0001    0.0001    0.0001    0.0000    0.0000    0.0000    0.0000    0.0000

        1 O1     1s        -0.0000   -0.0317   -0.0618   -0.0000   -0.0000    0.0930   -0.1101    0.0000   -0.0000    0.1780
        2 O1     2s         0.0000   -0.1452   -0.4947   -0.0000   -0.0000    0.7122   -0.8771    0.0000   -0.0000    1.0574
        3 O1     3s        -0.0000   -0.0467    0.0066    0.0000   -0.0000   -0.0075   -1.1461    0.0000   -0.0000    0.2744
        4 O1     2px       -0.0204    0.0000    0.0000    0.0391   -0.1984   -0.0000    0.0000   -0.2471   -0.3592    0.0000
        5 O1     3px        0.0074   -0.0000    0.0000    0.0548   -0.2780   -0.0000    0.0000   -0.4926   -0.7161   -0.0000
        6 O1     2py       -0.4928   -0.0000   -0.0000    0.1984    0.0391    0.0000   -0.0000   -0.3592    0.2471   -0.0000
        7 O1     3py        0.1778    0.0000   -0.0000    0.2780    0.0548   -0.0000   -0.0000   -0.7161    0.4926    0.0000
        8 O1     2pz       -0.0000   -0.0400    0.4078    0.0000    0.0000   -0.4829    0.8001   -0.0000    0.0000   -0.3188
        9 O1     3pz        0.0000   -0.2084    0.1584    0.0000    0.0000    0.0433    0.8078   -0.0000    0.0000    0.0133
       10 O1     3d2-       0.0000    0.0000   -0.0000    0.0000   -0.0000    0.0000    0.0000   -0.0000   -0.0000    0.0000
       11 O1     3d1-      -0.0904    0.0000   -0.0000    0.0701    0.0138    0.0000   -0.0000   -0.2847    0.1959    0.0000
       12 O1     3d0       -0.0000    1.0003   -0.2243   -0.0000   -0.0000    0.0819   -0.4357    0.0000   -0.0000    0.3284
       13 O1     3d1+      -0.0037   -0.0000    0.0000    0.0138   -0.0701    0.0000    0.0000   -0.1959   -0.2847   -0.0000
       14 O1     3d2+      -0.0000   -0.0000    0.0000   -0.0000   -0.0000   -0.0000   -0.0000    0.0000    0.0000   -0.0000
       15 FE2    1s         0.0000   -0.0080    0.0058    0.0000    0.0000   -0.0035    0.0235   -0.0000    0.0000   -0.0069
       16 FE2    2s         0.0000   -0.0568    0.0420    0.0000    0.0000   -0.0262    0.1680   -0.0000    0.0000   -0.0502
       17 FE2    3s         0.0000   -0.2350    0.2005    0.0000    0.0000   -0.1497    0.7394   -0.0000    0.0000   -0.2529
       18 FE2    4s        -0.0000   -0.0532    0.0713   -0.0000    0.0000   -0.8856    1.2611   -0.0000    0.0000   -0.3297
       19 FE2    5s         0.0000    0.0521   -0.0290    0.0000   -0.0000    0.7650   -0.5590    0.0000   -0.0000    0.2449
       20 FE2    2px       -0.0000   -0.0000   -0.0000   -0.0004    0.0019    0.0000   -0.0000    0.0024    0.0035    0.0000
       21 FE2    3px        0.0003   -0.0000   -0.0000   -0.0078    0.0397    0.0000   -0.0000    0.0415    0.0604   -0.0000
       22 FE2    4px        0.0135    0.0000   -0.0000   -0.1125    0.5714    0.0000   -0.0000    0.4431    0.6441   -0.0000
       23 FE2    5px       -0.0024   -0.0000    0.0000    0.1500   -0.7615   -0.0000   -0.0000    0.3656    0.5314   -0.0000
       24 FE2    2py       -0.0002    0.0000    0.0000   -0.0019   -0.0004    0.0000    0.0000    0.0035   -0.0024    0.0000
       25 FE2    3py        0.0067    0.0000    0.0000   -0.0397   -0.0078    0.0000    0.0000    0.0604   -0.0415    0.0000
       26 FE2    4py        0.3250    0.0000    0.0000   -0.5714   -0.1125    0.0000    0.0000    0.6441   -0.4431    0.0000
       27 FE2    5py       -0.0580   -0.0000   -0.0000    0.7615    0.1500   -0.0000    0.0000    0.5314   -0.3656    0.0000
       28 FE2    2pz        0.0000   -0.0149    0.0102    0.0000    0.0000   -0.0085    0.0321   -0.0000    0.0000   -0.0147
       29 FE2    3pz        0.0000   -0.1652    0.1677    0.0000    0.0000   -0.1694    0.4286   -0.0000    0.0000   -0.2449
       30 FE2    4pz       -0.0000    0.1234    0.7820    0.0000    0.0000   -0.3453    0.1791   -0.0000    0.0000   -0.6261
       31 FE2    5pz       -0.0000   -0.0174   -0.8497   -0.0000   -0.0000    0.1989   -0.8374    0.0000   -0.0000   -0.0136
       32 FE2    3d2-      -0.0000   -0.0000   -0.0000   -0.0000    0.0000   -0.0000   -0.0000   -0.0000    0.0000   -0.0000
       33 FE2    4d2-       0.0000   -0.0000   -0.0000   -0.0000    0.0000   -0.0000    0.0000   -0.0000    0.0000   -0.0000
       34 FE2    3d1-       0.1181    0.0000   -0.0000   -0.0299   -0.0059    0.0000    0.0000    0.0646   -0.0445    0.0000
       35 FE2    4d1-       0.8888    0.0000   -0.0000    0.0918    0.0181   -0.0000    0.0000    0.2094   -0.1440    0.0000
       36 FE2    3d0        0.0000   -0.0604    0.1540    0.0000    0.0000   -0.2455    0.2018   -0.0000    0.0000   -0.3662
       37 FE2    4d0        0.0000    0.3635    0.0229   -0.0000    0.0000   -0.1522    0.2869   -0.0000    0.0000   -1.2347
       38 FE2    3d1+       0.0049   -0.0000   -0.0000   -0.0059    0.0299    0.0000   -0.0000    0.0445    0.0646   -0.0000
       39 FE2    4d1+       0.0368   -0.0000    0.0000    0.0181   -0.0918   -0.0000   -0.0000    0.1440    0.2094    0.0000
       40 FE2    3d2+       0.0000    0.0000   -0.0000    0.0000    0.0000    0.0000    0.0000   -0.0000   -0.0000    0.0000
       41 FE2    4d2+       0.0000    0.0000    0.0000   -0.0000   -0.0000    0.0000   -0.0000   -0.0000   -0.0000    0.0000
       42 FE2    4f3-       0.0000   -0.0000   -0.0000   -0.0000   -0.0000    0.0000    0.0000    0.0000   -0.0000   -0.0000
       43 FE2    4f2-       0.0000   -0.0000   -0.0000    0.0000   -0.0000   -0.0000    0.0000   -0.0000   -0.0000   -0.0000
       44 FE2    4f1-       0.0626    0.0000    0.0000   -0.2075   -0.0409    0.0000    0.0000    0.3383   -0.2327    0.0000
       45 FE2    4f0        0.0000    0.0194   -0.0144   -0.0000   -0.0000    0.0542    0.1959   -0.0000    0.0000   -0.1120
       46 FE2    4f1+       0.0026   -0.0000   -0.0000   -0.0409    0.2075    0.0000   -0.0000    0.2327    0.3383   -0.0000
       47 FE2    4f2+       0.0000    0.0000    0.0000   -0.0000   -0.0000    0.0000   -0.0000    0.0000    0.0000   -0.0000
       48 FE2    4f3+       0.0000   -0.0000   -0.0000   -0.0000    0.0000    0.0000    0.0000   -0.0000   -0.0000   -0.0000

          Orbital           31        32        33        34        35        36        37        38        39        40    
          Energy            0.5687    0.1943    1.1697    0.1909    0.6516    2.2521    0.5510    1.4540    1.6817    0.3473
          Occ. No.          0.0000    0.0000    0.0000    0.0000    0.0000    0.0000    0.0000    0.0000    0.0000    0.0000

        1 O1     1s         0.1090    0.0000    0.1778    0.0000    0.0956    0.2579   -0.0000    0.0000    0.0000   -0.0000
        2 O1     2s         0.8659    0.0000    1.3608    0.0001    0.5921    1.8088   -0.0000    0.0000    0.0000   -0.0000
        3 O1     3s         0.6763    0.0000    1.5400    0.0001    0.6600    1.1714   -0.0000    0.0000    0.0000   -0.0000
        4 O1     2px        0.0000   -0.0083   -0.0000   -0.0074    0.0000    0.0000    0.1660   -0.3514   -0.0311    0.0106
        5 O1     3px       -0.0000    0.2154   -0.0000    0.2263    0.0000    0.0000    0.4493   -0.9681   -0.0866    0.0009
        6 O1     2py        0.0000   -0.0090   -0.0000    0.0082   -0.0000    0.0000   -0.0057    0.0311   -0.3836    0.0215
        7 O1     3py        0.0000    0.2217   -0.0000   -0.2157    0.0000    0.0000   -0.0168    0.0847   -1.0601    0.0727
        8 O1     2pz       -0.2320   -0.0000   -0.6133   -0.0000    0.0854   -0.7601    0.0000   -0.0000   -0.0000    0.0000
        9 O1     3pz       -0.3406   -0.0000   -0.6747   -0.0000    1.1105   -0.6120    0.0000    0.0000   -0.0000    0.0000
       10 O1     3d2-       0.0000   -0.0000   -0.0000    0.0000    0.0000    0.0000    0.0770    0.0325   -0.0148    0.0186
       11 O1     3d1-      -0.0000    0.1476    0.0000   -0.1422    0.0000   -0.0000    0.0031   -0.0219    0.2607   -0.0037
       12 O1     3d0       -0.0219    0.0000    0.0907    0.0000    0.0519    0.1459   -0.0000    0.0000    0.0000   -0.0000
       13 O1     3d1+      -0.0000    0.1422   -0.0000    0.1464   -0.0000    0.0000   -0.1206    0.2412    0.0206   -0.0304
       14 O1     3d2+       0.0000    0.0000    0.0000   -0.0000   -0.0000   -0.0000    0.0102   -0.0013    0.0152    0.0837
       15 FE2    1s        -0.0102   -0.0000   -0.0224   -0.0000    0.0069   -0.0213    0.0000   -0.0000   -0.0000    0.0000
       16 FE2    2s        -0.0731   -0.0000   -0.1599   -0.0000    0.0475   -0.1528    0.0000   -0.0000   -0.0000    0.0000
       17 FE2    3s        -0.3328   -0.0000   -0.7182   -0.0000    0.1556   -0.7057    0.0000   -0.0000   -0.0000    0.0000
[...]
      Number of basis functions:    48
      Frozen orbitals:               0
      Deleted orbitals:              0
      Number of orbitals used:      48

       SYMMETRY  BASIS FUNCTIONS       ORBITALS      INTEGRALS   CPU(SEC)  I/O(SEC)

        1 1 1 1   48  48  48  48    48  48  48  48      692076       0.00      0.00

       TOTAL CPU TIME(SEC)    0.36TOTAL I/O TIME(SEC)    0.41

--- Stop Module: motra at Tue Dec  3 15:34:03 2024 /rc=_RC_ALL_IS_WELL_ ---

>>> COPY /lustre/isaac/scratch/gjones39/condo_cluster/1.48/2739834/GMJ_one_int_indx.csv /lustre/isaac/scratch/gjones39/condo_cluster/1.48/1.48.GMJ_one_int_indx.csv

>>> COPY /lustre/isaac/scratch/gjones39/condo_cluster/1.48/2739834/GMJ_one_int.csv /lustre/isaac/scratch/gjones39/condo_cluster/1.48/1.48.GMJ_one_int.csv

>>> COPY /lustre/isaac/scratch/gjones39/condo_cluster/1.48/2739834/GMJ_two_int_indx.csv /lustre/isaac/scratch/gjones39/condo_cluster/1.48/1.48.GMJ_two_int_indx.csv

>>> COPY /lustre/isaac/scratch/gjones39/condo_cluster/1.48/2739834/GMJ_two_int.csv /lustre/isaac/scratch/gjones39/condo_cluster/1.48/1.48.GMJ_two_int.csv

*** symbolic link created: INPORB -> 1.48.RasOrb
--- Start Module: caspt2 at Tue Dec  3 15:34:04 2024 ---

()()()()()()()()()()()()()()()()()()()()()()()()()()()()()()()()()()()()()()()()()()()()()()()()()()

                                              &CASPT2

                                   only a single process is used
                       available to each process: 16 GB of memory, 1 thread?
()()()()()()()()()()()()()()()()()()()()()()()()()()()()()()()()()()()()()()()()()()()()()()()()()()

 Cholesky algorithm in CASPT2 =    1

 ###############################################################################
 ###############################################################################
 ###                                                                         ###
 ###                                                                         ###
 ###    User changed nr of frozen orbitals.                                  ###
 ###                                                                         ###
 ###                                                                         ###
 ###############################################################################
 ###############################################################################

++    Wave function specifications:
      -----------------------------

      Number of closed shell electrons          22
      Number of electrons in active shells      10
      Max number of holes in RAS1 space          0
      Max number of electrons in RAS3 space      0
      Number of inactive orbitals               11
      Number of active orbitals                 14
      Number of secondary orbitals              23
      Spin quantum number                      2.0
      State symmetry                             1
      Number of CSFs                        975975
      Number of root(s) available                1
      Root passed to geometry opt.               1
      A file JOBMIX will be created.
      This is a CASSCF or RASSCF reference function
--

++    Orbital specifications:
      -----------------------

      Symmetry species                           1
                                                 a
      Frozen orbitals                            0
      Inactive orbitals                         11
      Active orbitals                           14
      Secondary orbitals                        23
      Deleted orbitals                           0
      Number of basis functions                 48
--

      Type of Fock operator: STANDARD
      Type of 0-order Hamiltonian: STANDARD WITH DEFAULT IPEA
        "IP-EA" denominator shift =      0.25
      The input orbitals and the CI vector will be transformed.

--------------------------------------------------------------------------------
 Estimated memory requirements:
  POLY3 :                312573350
  RHS:                     4146972
  SIGMA :                   646704
  PRPCTL:                        0
 Available workspace:   1798620647

++ CASPT2 computation for group   1

********************************************************************************
 Multi-State initialization phase begins for group   1
--------------------------------------------------------------------------------
********************************************************************************
 Compute H0 matrices for state    1
--------------------------------------------------------------------------------
--------------------------------------------------------------------------------
 H0 matrices have been computed.

********************************************************************************
  CASPT2 EQUATION SOLUTION
--------------------------------------------------------------------------------

  Total nr of CASPT2 parameters:
   Before reduction:      408969
   After  reduction:      408240

 The contributions to the second order correlation energy in atomic units.
-----------------------------------------------------------------------------------------------------------------------------
  IT.      VJTU        VJTI        ATVX        AIVX        VJAI        BVAT        BJAT        BJAI        TOTAL       RNORM  
-----------------------------------------------------------------------------------------------------------------------------
   1    -0.009408   -0.031855   -0.023874   -0.181815   -0.021248   -0.081438   -0.022009   -0.042768   -0.414416    0.008961
   2    -0.009479   -0.031918   -0.024128   -0.182351   -0.021255   -0.081583   -0.022003   -0.042787   -0.415503    0.001430
   3    -0.009485   -0.031924   -0.024139   -0.182394   -0.021260   -0.081587   -0.022009   -0.042791   -0.415590    0.000247
   4    -0.009484   -0.031923   -0.024138   -0.182380   -0.021259   -0.081583   -0.022009   -0.042790   -0.415565    0.000039
   5    -0.009484   -0.031922   -0.024137   -0.182379   -0.021259   -0.081582   -0.022009   -0.042790   -0.415563    0.000007
   6    -0.009484   -0.031922   -0.024137   -0.182379   -0.021259   -0.081583   -0.022009   -0.042790   -0.415563    0.000001
-------------------------------------------------------------------------------------------------------------------

  FINAL CASPT2 RESULT:

  Correlation energy /Case, /Symm, and sums:
 VJTU     -0.00948400 -0.00948400
 VJTIP    -0.01314584 -0.01314584
 VJTIM    -0.01877657 -0.01877657
 ATVX     -0.02413740 -0.02413740
 AIVX     -0.18237915 -0.18237915
 VJAIP    -0.01498667 -0.01498667
 VJAIM    -0.00627218 -0.00627218
 BVATP    -0.03006431 -0.03006431
 BVATM    -0.05151829 -0.05151829
 BJATP    -0.01202026 -0.01202026
 BJATM    -0.00998831 -0.00998831
 BJAIP    -0.02883036 -0.02883036
 BJAIM    -0.01395995 -0.01395995
 Summed:  -0.41556331 -0.41556331

      Reference energy:       -1345.4359941529
      E2 (Non-variational):      -0.4155633107
      E2 (Variational):          -0.4155632902
      Total energy:           -1345.8515574431
      Residual norm:              0.0000002406
      Reference weight:           0.93658

      Contributions to the CASPT2 correlation energy
      Active & Virtual Only:         -0.1057200038
      One Inactive Excited:          -0.2138717314
      Two Inactive Excited:          -0.0959715755


++ Denominators, etc.
----------------------------------------------------------------------------------------------------
 Report on small energy denominators, large coefficients, and large energy contributions.
CASE  SYMM ACTIVE-MIX  NON-ACTIVE INDICES          DENOMINATOR     RHS VALUE       COEFFICIENT     CONTRIBUTION
VJTIM    1  Mu1.0006  In1.010 In1.009               5.45167338      0.14799067     -0.02713998     -0.00401646
ATVX     1  Mu1.0001  Se1.026                       0.17560755      0.00000000     -0.00000000     -0.00000000
ATVX     1  Mu1.0002  Se1.026                       0.17560755     -0.00000000      0.00000000     -0.00000000
ATVX     1  Mu1.0003  Se1.026                       0.19007473      0.00000000     -0.00000000     -0.00000000
ATVX     1  Mu1.0004  Se1.026                       0.19013587      0.00000000     -0.00000000     -0.00000000
--

   (Skipping property calculation,
    use PROP keyword to activate)
--

  Total CASPT2 energies:
::    CASPT2 Root  1     Total energy:  -1345.85155744

  A NEW JOBIPH FILE NAMED 'JOBMIX' IS PREPARED.
********************************************************************************
--- Stop Module: caspt2 at Tue Dec  3 16:07:29 2024 /rc=_RC_ALL_IS_WELL_ ---
*** files: xmldump
    saved to directory /lustre/isaac/scratch/gjones39/condo_cluster/1.48
--- Module caspt2 spent 33 minutes 25 seconds ---

>>> EXPORT i = B

>>> EXPORT j = P

>>> IF (-FILE GMJ_e2_${i}_${j}.csv)

>>> COPY /lustre/isaac/scratch/gjones39/condo_cluster/1.48/2739834/GMJ_RHS_B_P.csv /lustre/isaac/scratch/gjones39/condo_cluster/1.48/GMJ_RHS_B_P.csv

>>> COPY /lustre/isaac/scratch/gjones39/condo_cluster/1.48/2739834/GMJ_IVECW_B_P.csv /lustre/isaac/scratch/gjones39/condo_cluster/1.48/GMJ_IVECW_B_P.csv

>>> COPY /lustre/isaac/scratch/gjones39/condo_cluster/1.48/2739834/GMJ_IVECX_B_P.csv /lustre/isaac/scratch/gjones39/condo_cluster/1.48/GMJ_IVECX_B_P.csv

>>> COPY /lustre/isaac/scratch/gjones39/condo_cluster/1.48/2739834/GMJ_IVECC2_B_P.csv /lustre/isaac/scratch/gjones39/condo_cluster/1.48/GMJ_IVECC2_B_P.csv

>>> COPY /lustre/isaac/scratch/gjones39/condo_cluster/1.48/2739834/GMJ_e2_B_P.csv /lustre/isaac/scratch/gjones39/condo_cluster/1.48/GMJ_e2_B_P.csv

>>> END FOREACH

>>> EXPORT j = M

>>> IF (-FILE GMJ_e2_${i}_${j}.csv)

>>> COPY /lustre/isaac/scratch/gjones39/condo_cluster/1.48/2739834/GMJ_RHS_B_M.csv /lustre/isaac/scratch/gjones39/condo_cluster/1.48/GMJ_RHS_B_M.csv

>>> COPY /lustre/isaac/scratch/gjones39/condo_cluster/1.48/2739834/GMJ_IVECW_B_M.csv /lustre/isaac/scratch/gjones39/condo_cluster/1.48/GMJ_IVECW_B_M.csv

>>> COPY /lustre/isaac/scratch/gjones39/condo_cluster/1.48/2739834/GMJ_IVECX_B_M.csv /lustre/isaac/scratch/gjones39/condo_cluster/1.48/GMJ_IVECX_B_M.csv

>>> COPY /lustre/isaac/scratch/gjones39/condo_cluster/1.48/2739834/GMJ_IVECC2_B_M.csv /lustre/isaac/scratch/gjones39/condo_cluster/1.48/GMJ_IVECC2_B_M.csv

>>> COPY /lustre/isaac/scratch/gjones39/condo_cluster/1.48/2739834/GMJ_e2_B_M.csv /lustre/isaac/scratch/gjones39/condo_cluster/1.48/GMJ_e2_B_M.csv

>>> END FOREACH

>>> END FOREACH

>>> EXPORT i = E

>>> EXPORT j = P

>>> IF (-FILE GMJ_e2_${i}_${j}.csv)

>>> COPY /lustre/isaac/scratch/gjones39/condo_cluster/1.48/2739834/GMJ_RHS_E_P.csv /lustre/isaac/scratch/gjones39/condo_cluster/1.48/GMJ_RHS_E_P.csv

>>> COPY /lustre/isaac/scratch/gjones39/condo_cluster/1.48/2739834/GMJ_IVECW_E_P.csv /lustre/isaac/scratch/gjones39/condo_cluster/1.48/GMJ_IVECW_E_P.csv

>>> COPY /lustre/isaac/scratch/gjones39/condo_cluster/1.48/2739834/GMJ_IVECX_E_P.csv /lustre/isaac/scratch/gjones39/condo_cluster/1.48/GMJ_IVECX_E_P.csv

>>> COPY /lustre/isaac/scratch/gjones39/condo_cluster/1.48/2739834/GMJ_IVECC2_E_P.csv /lustre/isaac/scratch/gjones39/condo_cluster/1.48/GMJ_IVECC2_E_P.csv

>>> COPY /lustre/isaac/scratch/gjones39/condo_cluster/1.48/2739834/GMJ_e2_E_P.csv /lustre/isaac/scratch/gjones39/condo_cluster/1.48/GMJ_e2_E_P.csv

>>> END FOREACH

>>> EXPORT j = M

>>> IF (-FILE GMJ_e2_${i}_${j}.csv)

>>> COPY /lustre/isaac/scratch/gjones39/condo_cluster/1.48/2739834/GMJ_RHS_E_M.csv /lustre/isaac/scratch/gjones39/condo_cluster/1.48/GMJ_RHS_E_M.csv

>>> COPY /lustre/isaac/scratch/gjones39/condo_cluster/1.48/2739834/GMJ_IVECW_E_M.csv /lustre/isaac/scratch/gjones39/condo_cluster/1.48/GMJ_IVECW_E_M.csv

>>> COPY /lustre/isaac/scratch/gjones39/condo_cluster/1.48/2739834/GMJ_IVECX_E_M.csv /lustre/isaac/scratch/gjones39/condo_cluster/1.48/GMJ_IVECX_E_M.csv

>>> COPY /lustre/isaac/scratch/gjones39/condo_cluster/1.48/2739834/GMJ_IVECC2_E_M.csv /lustre/isaac/scratch/gjones39/condo_cluster/1.48/GMJ_IVECC2_E_M.csv

>>> COPY /lustre/isaac/scratch/gjones39/condo_cluster/1.48/2739834/GMJ_e2_E_M.csv /lustre/isaac/scratch/gjones39/condo_cluster/1.48/GMJ_e2_E_M.csv

>>> END FOREACH

>>> END FOREACH

>>> EXPORT i = F

>>> EXPORT j = P

>>> IF (-FILE GMJ_e2_${i}_${j}.csv)

>>> COPY /lustre/isaac/scratch/gjones39/condo_cluster/1.48/2739834/GMJ_RHS_F_P.csv /lustre/isaac/scratch/gjones39/condo_cluster/1.48/GMJ_RHS_F_P.csv

>>> COPY /lustre/isaac/scratch/gjones39/condo_cluster/1.48/2739834/GMJ_IVECW_F_P.csv /lustre/isaac/scratch/gjones39/condo_cluster/1.48/GMJ_IVECW_F_P.csv

>>> COPY /lustre/isaac/scratch/gjones39/condo_cluster/1.48/2739834/GMJ_IVECX_F_P.csv /lustre/isaac/scratch/gjones39/condo_cluster/1.48/GMJ_IVECX_F_P.csv

>>> COPY /lustre/isaac/scratch/gjones39/condo_cluster/1.48/2739834/GMJ_IVECC2_F_P.csv /lustre/isaac/scratch/gjones39/condo_cluster/1.48/GMJ_IVECC2_F_P.csv

>>> COPY /lustre/isaac/scratch/gjones39/condo_cluster/1.48/2739834/GMJ_e2_F_P.csv /lustre/isaac/scratch/gjones39/condo_cluster/1.48/GMJ_e2_F_P.csv

>>> END FOREACH

>>> EXPORT j = M

>>> IF (-FILE GMJ_e2_${i}_${j}.csv)

>>> COPY /lustre/isaac/scratch/gjones39/condo_cluster/1.48/2739834/GMJ_RHS_F_M.csv /lustre/isaac/scratch/gjones39/condo_cluster/1.48/GMJ_RHS_F_M.csv

>>> COPY /lustre/isaac/scratch/gjones39/condo_cluster/1.48/2739834/GMJ_IVECW_F_M.csv /lustre/isaac/scratch/gjones39/condo_cluster/1.48/GMJ_IVECW_F_M.csv

>>> COPY /lustre/isaac/scratch/gjones39/condo_cluster/1.48/2739834/GMJ_IVECX_F_M.csv /lustre/isaac/scratch/gjones39/condo_cluster/1.48/GMJ_IVECX_F_M.csv

>>> COPY /lustre/isaac/scratch/gjones39/condo_cluster/1.48/2739834/GMJ_IVECC2_F_M.csv /lustre/isaac/scratch/gjones39/condo_cluster/1.48/GMJ_IVECC2_F_M.csv

>>> COPY /lustre/isaac/scratch/gjones39/condo_cluster/1.48/2739834/GMJ_e2_F_M.csv /lustre/isaac/scratch/gjones39/condo_cluster/1.48/GMJ_e2_F_M.csv

>>> END FOREACH

>>> END FOREACH

>>> EXPORT i = G

>>> EXPORT j = P

>>> IF (-FILE GMJ_e2_${i}_${j}.csv)

>>> COPY /lustre/isaac/scratch/gjones39/condo_cluster/1.48/2739834/GMJ_RHS_G_P.csv /lustre/isaac/scratch/gjones39/condo_cluster/1.48/GMJ_RHS_G_P.csv

>>> COPY /lustre/isaac/scratch/gjones39/condo_cluster/1.48/2739834/GMJ_IVECW_G_P.csv /lustre/isaac/scratch/gjones39/condo_cluster/1.48/GMJ_IVECW_G_P.csv

>>> COPY /lustre/isaac/scratch/gjones39/condo_cluster/1.48/2739834/GMJ_IVECX_G_P.csv /lustre/isaac/scratch/gjones39/condo_cluster/1.48/GMJ_IVECX_G_P.csv

>>> COPY /lustre/isaac/scratch/gjones39/condo_cluster/1.48/2739834/GMJ_IVECC2_G_P.csv /lustre/isaac/scratch/gjones39/condo_cluster/1.48/GMJ_IVECC2_G_P.csv

>>> COPY /lustre/isaac/scratch/gjones39/condo_cluster/1.48/2739834/GMJ_e2_G_P.csv /lustre/isaac/scratch/gjones39/condo_cluster/1.48/GMJ_e2_G_P.csv

>>> END FOREACH

>>> EXPORT j = M

>>> IF (-FILE GMJ_e2_${i}_${j}.csv)

>>> COPY /lustre/isaac/scratch/gjones39/condo_cluster/1.48/2739834/GMJ_RHS_G_M.csv /lustre/isaac/scratch/gjones39/condo_cluster/1.48/GMJ_RHS_G_M.csv

>>> COPY /lustre/isaac/scratch/gjones39/condo_cluster/1.48/2739834/GMJ_IVECW_G_M.csv /lustre/isaac/scratch/gjones39/condo_cluster/1.48/GMJ_IVECW_G_M.csv

>>> COPY /lustre/isaac/scratch/gjones39/condo_cluster/1.48/2739834/GMJ_IVECX_G_M.csv /lustre/isaac/scratch/gjones39/condo_cluster/1.48/GMJ_IVECX_G_M.csv

>>> COPY /lustre/isaac/scratch/gjones39/condo_cluster/1.48/2739834/GMJ_IVECC2_G_M.csv /lustre/isaac/scratch/gjones39/condo_cluster/1.48/GMJ_IVECC2_G_M.csv

>>> COPY /lustre/isaac/scratch/gjones39/condo_cluster/1.48/2739834/GMJ_e2_G_M.csv /lustre/isaac/scratch/gjones39/condo_cluster/1.48/GMJ_e2_G_M.csv

>>> END FOREACH

>>> END FOREACH

>>> EXPORT i = H

>>> EXPORT j = P

>>> IF (-FILE GMJ_e2_${i}_${j}.csv)

>>> COPY /lustre/isaac/scratch/gjones39/condo_cluster/1.48/2739834/GMJ_RHS_H_P.csv /lustre/isaac/scratch/gjones39/condo_cluster/1.48/GMJ_RHS_H_P.csv

>>> COPY /lustre/isaac/scratch/gjones39/condo_cluster/1.48/2739834/GMJ_IVECW_H_P.csv /lustre/isaac/scratch/gjones39/condo_cluster/1.48/GMJ_IVECW_H_P.csv

>>> COPY /lustre/isaac/scratch/gjones39/condo_cluster/1.48/2739834/GMJ_IVECX_H_P.csv /lustre/isaac/scratch/gjones39/condo_cluster/1.48/GMJ_IVECX_H_P.csv

>>> COPY /lustre/isaac/scratch/gjones39/condo_cluster/1.48/2739834/GMJ_IVECC2_H_P.csv /lustre/isaac/scratch/gjones39/condo_cluster/1.48/GMJ_IVECC2_H_P.csv

>>> COPY /lustre/isaac/scratch/gjones39/condo_cluster/1.48/2739834/GMJ_e2_H_P.csv /lustre/isaac/scratch/gjones39/condo_cluster/1.48/GMJ_e2_H_P.csv

>>> END FOREACH

>>> EXPORT j = M

>>> IF (-FILE GMJ_e2_${i}_${j}.csv)

>>> COPY /lustre/isaac/scratch/gjones39/condo_cluster/1.48/2739834/GMJ_RHS_H_M.csv /lustre/isaac/scratch/gjones39/condo_cluster/1.48/GMJ_RHS_H_M.csv

>>> COPY /lustre/isaac/scratch/gjones39/condo_cluster/1.48/2739834/GMJ_IVECW_H_M.csv /lustre/isaac/scratch/gjones39/condo_cluster/1.48/GMJ_IVECW_H_M.csv

>>> COPY /lustre/isaac/scratch/gjones39/condo_cluster/1.48/2739834/GMJ_IVECX_H_M.csv /lustre/isaac/scratch/gjones39/condo_cluster/1.48/GMJ_IVECX_H_M.csv

>>> COPY /lustre/isaac/scratch/gjones39/condo_cluster/1.48/2739834/GMJ_IVECC2_H_M.csv /lustre/isaac/scratch/gjones39/condo_cluster/1.48/GMJ_IVECC2_H_M.csv

>>> COPY /lustre/isaac/scratch/gjones39/condo_cluster/1.48/2739834/GMJ_e2_H_M.csv /lustre/isaac/scratch/gjones39/condo_cluster/1.48/GMJ_e2_H_M.csv

>>> END FOREACH

>>> END FOREACH

>>> EXPORT i = A

>>> IF (-FILE GMJ_e2_$i.csv)

>>> COPY /lustre/isaac/scratch/gjones39/condo_cluster/1.48/2739834/GMJ_RHS_A.csv /lustre/isaac/scratch/gjones39/condo_cluster/1.48/GMJ_RHS_A.csv

>>> COPY /lustre/isaac/scratch/gjones39/condo_cluster/1.48/2739834/GMJ_IVECW_A.csv /lustre/isaac/scratch/gjones39/condo_cluster/1.48/GMJ_IVECW_A.csv

>>> COPY /lustre/isaac/scratch/gjones39/condo_cluster/1.48/2739834/GMJ_IVECX_A.csv /lustre/isaac/scratch/gjones39/condo_cluster/1.48/GMJ_IVECX_A.csv

>>> COPY /lustre/isaac/scratch/gjones39/condo_cluster/1.48/2739834/GMJ_IVECC2_A.csv /lustre/isaac/scratch/gjones39/condo_cluster/1.48/GMJ_IVECC2_A.csv

>>> COPY /lustre/isaac/scratch/gjones39/condo_cluster/1.48/2739834/GMJ_e2_A.csv /lustre/isaac/scratch/gjones39/condo_cluster/1.48/GMJ_e2_A.csv

>>> END FOREACH

>>> EXPORT i = C

>>> IF (-FILE GMJ_e2_$i.csv)

>>> COPY /lustre/isaac/scratch/gjones39/condo_cluster/1.48/2739834/GMJ_RHS_C.csv /lustre/isaac/scratch/gjones39/condo_cluster/1.48/GMJ_RHS_C.csv

>>> COPY /lustre/isaac/scratch/gjones39/condo_cluster/1.48/2739834/GMJ_IVECW_C.csv /lustre/isaac/scratch/gjones39/condo_cluster/1.48/GMJ_IVECW_C.csv

>>> COPY /lustre/isaac/scratch/gjones39/condo_cluster/1.48/2739834/GMJ_IVECX_C.csv /lustre/isaac/scratch/gjones39/condo_cluster/1.48/GMJ_IVECX_C.csv

>>> COPY /lustre/isaac/scratch/gjones39/condo_cluster/1.48/2739834/GMJ_IVECC2_C.csv /lustre/isaac/scratch/gjones39/condo_cluster/1.48/GMJ_IVECC2_C.csv

>>> COPY /lustre/isaac/scratch/gjones39/condo_cluster/1.48/2739834/GMJ_e2_C.csv /lustre/isaac/scratch/gjones39/condo_cluster/1.48/GMJ_e2_C.csv

>>> END FOREACH

>>> EXPORT i = D

>>> IF (-FILE GMJ_e2_$i.csv)

>>> COPY /lustre/isaac/scratch/gjones39/condo_cluster/1.48/2739834/GMJ_RHS_D.csv /lustre/isaac/scratch/gjones39/condo_cluster/1.48/GMJ_RHS_D.csv

>>> COPY /lustre/isaac/scratch/gjones39/condo_cluster/1.48/2739834/GMJ_IVECW_D.csv /lustre/isaac/scratch/gjones39/condo_cluster/1.48/GMJ_IVECW_D.csv

>>> COPY /lustre/isaac/scratch/gjones39/condo_cluster/1.48/2739834/GMJ_IVECX_D.csv /lustre/isaac/scratch/gjones39/condo_cluster/1.48/GMJ_IVECX_D.csv

>>> COPY /lustre/isaac/scratch/gjones39/condo_cluster/1.48/2739834/GMJ_IVECC2_D.csv /lustre/isaac/scratch/gjones39/condo_cluster/1.48/GMJ_IVECC2_D.csv

>>> COPY /lustre/isaac/scratch/gjones39/condo_cluster/1.48/2739834/GMJ_e2_D.csv /lustre/isaac/scratch/gjones39/condo_cluster/1.48/GMJ_e2_D.csv

>>> END FOREACH

    Timing: Wall=2460.97 User=2440.43 System=8.14
************************************************************************************
*** WorkDir at /lustre/isaac/scratch/gjones39/condo_cluster/1.48/2739834 cleaned ***
************************************************************************************
