[Molden Format]
[N_Atoms]
                     2
[Atoms] (AU)
C1          1      6           0.00000000      0.00000000      0.00000000
N2          2      7           0.00000000      0.00000000      3.59047964
[Charge] (Mulliken)
 -5.308899945529610E-002
  5.308899945525880E-002
[GTO] (AU)
   1
   s  14
  5.055750100E+04  1.128874000E-04
  7.524785600E+03  5.295373000E-04
  1.694327600E+03  2.450038300E-03
  4.728227900E+02  1.005398470E-02
  1.517107500E+02  3.545398060E-02
  5.391874600E+01  1.044071086E-01
  2.065931100E+01  2.412894918E-01
  8.383976000E+00  3.834225483E-01
  3.577015000E+00  3.078514393E-01
  1.547118000E+00  6.872442990E-02
  6.130130000E-01  2.224445000E-04
  2.460680000E-01  1.976748900E-03
  9.908700000E-02  2.057859400E-03
  3.468000000E-02  4.182020000E-04
   s  14
  5.055750100E+04 -2.507420000E-05
  7.524785600E+03 -1.175945000E-04
  1.694327600E+03 -5.456275000E-04
  4.728227900E+02 -2.245077100E-03
  1.517107500E+02 -8.043471800E-03
  5.391874600E+01 -2.442588710E-02
  2.065931100E+01 -6.136791180E-02
  8.383976000E+00 -1.177767835E-01
  3.577015000E+00 -1.550487783E-01
  1.547118000E+00 -1.933316860E-02
  6.130130000E-01  3.996930678E-01
  2.460680000E-01  5.589420949E-01
  9.908700000E-02  1.711195023E-01
  3.468000000E-02  7.456244600E-03
   p   9
  8.333315500E+01  1.344656000E-03
  1.955761100E+01  1.023555500E-02
  6.080365000E+00  4.520067100E-02
  2.179317000E+00  1.410756198E-01
  8.651500000E-01  3.047388085E-01
  3.619440000E-01  3.995281011E-01
  1.547400000E-01  2.719163432E-01
  6.542900000E-02  5.857669330E-02
  2.290000000E-02 -1.263813000E-04
 
   2
   s  14
  7.476171500E+04  1.182599996E-04
  1.112365400E+04  5.172899983E-04
  2.512685700E+03  2.266659992E-03
  7.037772900E+02  9.145289970E-03
  2.254787900E+02  3.239342989E-02
  7.961581000E+01  9.770792967E-02
  3.023728300E+01  2.317036792E-01
  1.226362200E+01  3.768898887E-01
  5.265086000E+00  3.177420689E-01
  2.333471000E+00  8.211308973E-02
  9.018560000E-01  3.312089989E-03
  3.583360000E-01  3.720819988E-03
  1.410930000E-01  3.165419989E-03
  4.938300000E-02  4.595799985E-04
   s  14
  7.476171500E+04 -2.707000010E-05
  1.112365400E+04 -1.183700004E-04
  2.512685700E+03 -5.203800020E-04
  7.037772900E+02 -2.102930008E-03
  2.254787900E+02 -7.568200028E-03
  7.961581000E+01 -2.346767009E-02
  3.023728300E+01 -6.042901023E-02
  1.226362200E+01 -1.170549104E-01
  5.265086000E+00 -1.555321506E-01
  2.333471000E+00 -2.468935009E-02
  9.018560000E-01  3.625054514E-01
  3.583360000E-01  5.550845021E-01
  1.410930000E-01  2.148376908E-01
  4.938300000E-02  8.983850034E-03
   p   9
  1.266665700E+02  1.233630000E-03
  2.983738900E+01  9.493409996E-03
  9.394038000E+00  4.293961998E-02
  3.405104000E+00  1.362925399E-01
  1.350000000E+00  2.921362499E-01
  5.576960000E-01  3.887887598E-01
  2.324490000E-01  2.946801399E-01
  9.426400000E-02  8.012875997E-02
  3.299200000E-02  5.405199998E-04
 
[MO]
Sym=     1a  
Ene=   -15.6810
Spin= Alpha
Occup=    1.00000
   1        -0.00011721
   2        -0.00105480
   3         0.00000000
   4        -0.00000000
   5        -0.00089884
   6         1.00003331
   7        -0.00219828
   8         0.00000000
   9        -0.00000000
  10        -0.00058981
Sym=     1a  
Ene=   -15.5920
Spin= Beta
Occup=    1.00000
   1        -0.00005254
   2        -0.00032444
   3         0.00000000
   4        -0.00000000
   5        -0.00017718
   6         0.99996863
   7        -0.00886334
   8        -0.00000000
   9        -0.00000000
  10        -0.00030922
Sym=     2a  
Ene=   -11.2010
Spin= Alpha
Occup=    1.00000
   1         0.99999361
   2        -0.00447589
   3         0.00000000
   4        -0.00000000
   5         0.00050150
   6        -0.00007213
   7        -0.00034884
   8         0.00000000
   9        -0.00000000
  10         0.00001722
Sym=     2a  
Ene=   -11.2470
Spin= Beta
Occup=    1.00000
   1         1.00002842
   2         0.00036827
   3         0.00000000
   4         0.00000000
   5         0.00133044
   6        -0.00014416
   7        -0.00108620
   8        -0.00000000
   9        -0.00000000
  10         0.00079088
Sym=     3a  
Ene=    -1.1866
Spin= Alpha
Occup=    1.00000
   1        -0.00971599
   2         0.04754938
   3         0.00000000
   4        -0.00000000
   5         0.02800698
   6         0.00130045
   7         0.98266573
   8         0.00000000
   9        -0.00000000
  10        -0.02802787
Sym=     3a  
Ene=    -0.8822
Spin= Beta
Occup=    1.00000
   1        -0.00741687
   2         0.65998552
   3        -0.00000000
   4        -0.00000000
   5         0.12462691
   6        -0.00496499
   7         0.59221823
   8        -0.00000000
   9        -0.00000000
  10        -0.06745392
Sym=     4a  
Ene=    -0.6659
Spin= Alpha
Occup=    1.00000
   1         0.01286516
   2        -0.51000206
   3         0.00000000
   4        -0.00000000
   5        -0.02609936
   6         0.00699190
   7         0.15425415
   8         0.00000000
   9         0.00000000
  10         0.75319851
Sym=     4a  
Ene=    -0.6812
Spin= Beta
Occup=    1.00000
   1        -0.00703850
   2        -0.74521845
   3         0.00000000
   4         0.00000000
   5        -0.00823616
   6         0.01552022
   7         0.79963700
   8        -0.00000000
   9        -0.00000000
  10         0.03358678
Sym=     5a  
Ene=    -0.5973
Spin= Alpha
Occup=    1.00000
   1        -0.00000000
   2         0.00000000
   3         0.03480639
   4        -0.00294183
   5        -0.00000000
   6        -0.00000000
   7        -0.00000000
   8         0.99204912
   9        -0.08384768
  10        -0.00000000
Sym=     5a  
Ene=    -0.3987
Spin= Beta
Occup=    1.00000
   1        -0.00000000
   2         0.00000000
   3        -0.52900425
   4         0.82821311
   5        -0.00000000
   6         0.00000000
   7         0.00000000
   8        -0.05737707
   9         0.08982997
  10         0.00000000
Sym=     6a  
Ene=    -0.5973
Spin= Alpha
Occup=    1.00000
   1        -0.00000000
   2         0.00000000
   3         0.00294183
   4         0.03480639
   5        -0.00000000
   6        -0.00000000
   7         0.00000000
   8         0.08384768
   9         0.99204912
  10        -0.00000000
Sym=     6a  
Ene=    -0.3987
Spin= Beta
Occup=    1.00000
   1         0.00000000
   2         0.00000000
   3        -0.82821311
   4        -0.52900425
   5        -0.00000000
   6         0.00000000
   7         0.00000000
   8        -0.08982997
   9        -0.05737707
  10         0.00000000
Sym=     7a  
Ene=    -0.4822
Spin= Alpha
Occup=    1.00000
   1        -0.01753588
   2        -0.84570486
   3        -0.00000000
   4        -0.00000000
   5         0.29763605
   6         0.00217694
   7         0.07844882
   8         0.00000000
   9         0.00000000
  10        -0.58113666
Sym=     7a  
Ene=     0.0625
Spin= Beta
Occup=    0.00000
   1         0.01129186
   2         0.22271132
   3         0.00000000
   4         0.00000000
   5        -0.71027076
   6         0.01711236
   7         0.22964631
   8         0.00000000
   9         0.00000000
  10         0.57258683
Sym=     8a  
Ene=     0.2421
Spin= Alpha
Occup=    0.00000
   1         0.00000000
   2        -0.00000000
   3         0.53955589
   4        -0.84835415
   5         0.00000000
   6        -0.00000000
   7        -0.00000000
   8        -0.07749764
   9         0.12185104
  10         0.00000000
Sym=     8a  
Ene=     0.2034
Spin= Beta
Occup=    0.00000
   1         0.00000000
   2        -0.00000000
   3        -0.06719615
   4        -0.20432249
   5        -0.00000000
   6         0.00000000
   7         0.00000000
   8         0.31251865
   9         0.95027154
  10        -0.00000000
Sym=     9a  
Ene=     0.2421
Spin= Alpha
Occup=    0.00000
   1         0.00000000
   2         0.00000000
   3        -0.84835415
   4        -0.53955589
   5         0.00000000
   6        -0.00000000
   7        -0.00000000
   8         0.12185104
   9         0.07749764
  10         0.00000000
Sym=     9a  
Ene=     0.2034
Spin= Beta
Occup=    0.00000
   1         0.00000000
   2         0.00000000
   3         0.20432249
   4        -0.06719615
   5         0.00000000
   6        -0.00000000
   7        -0.00000000
   8        -0.95027154
   9         0.31251865
  10         0.00000000
Sym=    10a  
Ene=     0.2752
Spin= Alpha
Occup=    0.00000
   1         0.01470901
   2         0.34339790
   3         0.00000000
   4         0.00000000
   5         1.02573493
   6        -0.03086453
   7        -0.34289562
   8        -0.00000000
   9        -0.00000000
  10         0.46736375
Sym=    10a  
Ene=     0.3742
Spin= Beta
Occup=    0.00000
   1         0.02195688
   2         0.23450164
   3        -0.00000000
   4        -0.00000000
   5         0.78873312
   6        -0.02406071
   7        -0.26496024
   8         0.00000000
   9         0.00000000
  10         0.88921769
