[Molden Format]
[N_Atoms]
                     2
[Atoms] (AU)
C1          1      6           0.00000000      0.00000000      0.00000000
N2          2      7           0.00000000      0.00000000      3.59047964
[Charge] (Mulliken)
  0.185530818306581     
 -0.185530818306607     
[GTO] (AU)
   1
   s  14
  5.055750100E+04  1.128874000E-04
  7.524785600E+03  5.295373000E-04
  1.694327600E+03  2.450038300E-03
  4.728227900E+02  1.005398470E-02
  1.517107500E+02  3.545398060E-02
  5.391874600E+01  1.044071086E-01
  2.065931100E+01  2.412894918E-01
  8.383976000E+00  3.834225483E-01
  3.577015000E+00  3.078514393E-01
  1.547118000E+00  6.872442990E-02
  6.130130000E-01  2.224445000E-04
  2.460680000E-01  1.976748900E-03
  9.908700000E-02  2.057859400E-03
  3.468000000E-02  4.182020000E-04
   s  14
  5.055750100E+04 -2.507420000E-05
  7.524785600E+03 -1.175945000E-04
  1.694327600E+03 -5.456275000E-04
  4.728227900E+02 -2.245077100E-03
  1.517107500E+02 -8.043471800E-03
  5.391874600E+01 -2.442588710E-02
  2.065931100E+01 -6.136791180E-02
  8.383976000E+00 -1.177767835E-01
  3.577015000E+00 -1.550487783E-01
  1.547118000E+00 -1.933316860E-02
  6.130130000E-01  3.996930678E-01
  2.460680000E-01  5.589420949E-01
  9.908700000E-02  1.711195023E-01
  3.468000000E-02  7.456244600E-03
   p   9
  8.333315500E+01  1.344656000E-03
  1.955761100E+01  1.023555500E-02
  6.080365000E+00  4.520067100E-02
  2.179317000E+00  1.410756198E-01
  8.651500000E-01  3.047388085E-01
  3.619440000E-01  3.995281011E-01
  1.547400000E-01  2.719163432E-01
  6.542900000E-02  5.857669330E-02
  2.290000000E-02 -1.263813000E-04
 
   2
   s  14
  7.476171500E+04  1.182599996E-04
  1.112365400E+04  5.172899983E-04
  2.512685700E+03  2.266659992E-03
  7.037772900E+02  9.145289970E-03
  2.254787900E+02  3.239342989E-02
  7.961581000E+01  9.770792967E-02
  3.023728300E+01  2.317036792E-01
  1.226362200E+01  3.768898887E-01
  5.265086000E+00  3.177420689E-01
  2.333471000E+00  8.211308973E-02
  9.018560000E-01  3.312089989E-03
  3.583360000E-01  3.720819988E-03
  1.410930000E-01  3.165419989E-03
  4.938300000E-02  4.595799985E-04
   s  14
  7.476171500E+04 -2.707000010E-05
  1.112365400E+04 -1.183700004E-04
  2.512685700E+03 -5.203800020E-04
  7.037772900E+02 -2.102930008E-03
  2.254787900E+02 -7.568200028E-03
  7.961581000E+01 -2.346767009E-02
  3.023728300E+01 -6.042901023E-02
  1.226362200E+01 -1.170549104E-01
  5.265086000E+00 -1.555321506E-01
  2.333471000E+00 -2.468935009E-02
  9.018560000E-01  3.625054514E-01
  3.583360000E-01  5.550845021E-01
  1.410930000E-01  2.148376908E-01
  4.938300000E-02  8.983850034E-03
   p   9
  1.266665700E+02  1.233630000E-03
  2.983738900E+01  9.493409996E-03
  9.394038000E+00  4.293961998E-02
  3.405104000E+00  1.362925399E-01
  1.350000000E+00  2.921362499E-01
  5.576960000E-01  3.887887598E-01
  2.324490000E-01  2.946801399E-01
  9.426400000E-02  8.012875997E-02
  3.299200000E-02  5.405199998E-04
 
[MO]
Sym=     1a  
Ene=   -15.4860
Spin= Alpha
Occup=    1.00000
   1        -0.00052063
   2        -0.00133105
   3        -0.00003504
   4        -0.00008244
   5         0.00500706
   6         0.99984863
   7        -0.00557562
   8        -0.00007427
   9        -0.00017527
  10        -0.00389327
Sym=     1a  
Ene=   -15.4860
Spin= Beta
Occup=    1.00000
   1        -0.00052063
   2        -0.00133105
   3        -0.00003504
   4        -0.00008244
   5         0.00500706
   6         0.99984863
   7        -0.00557562
   8        -0.00007427
   9        -0.00017527
  10        -0.00389327
Sym=     2a  
Ene=   -11.3820
Spin= Alpha
Occup=    1.00000
   1         0.99974210
   2        -0.00395439
   3        -0.00007917
   4        -0.00018630
   5         0.01369681
   6        -0.00016426
   7        -0.00111224
   8        -0.00016763
   9        -0.00039573
  10        -0.00603093
Sym=     2a  
Ene=   -11.3820
Spin= Beta
Occup=    1.00000
   1         0.99974210
   2        -0.00395439
   3        -0.00007917
   4        -0.00018630
   5         0.01369681
   6        -0.00016426
   7        -0.00111224
   8        -0.00016763
   9        -0.00039573
  10        -0.00603093
Sym=     3a  
Ene=    -0.8997
Spin= Alpha
Occup=    1.00000
   1        -0.00583613
   2         0.45126213
   3         0.00131737
   4         0.00310157
   5        -0.10149801
   6         0.00214760
   7         0.83912847
   8         0.00293073
   9         0.00691381
  10         0.04875972
Sym=     3a  
Ene=    -0.8997
Spin= Beta
Occup=    1.00000
   1        -0.00583613
   2         0.45126213
   3         0.00131737
   4         0.00310157
   5        -0.10149801
   6         0.00214760
   7         0.83912847
   8         0.00293073
   9         0.00691381
  10         0.04875972
Sym=     4a  
Ene=    -0.7131
Spin= Alpha
Occup=    1.00000
   1        -0.00456778
   2        -0.86874350
   3         0.00042598
   4         0.00100303
   5         0.00813763
   6         0.01289401
   7         0.57329078
   8         0.00088505
   9         0.00208557
  10         0.15802448
Sym=     4a  
Ene=    -0.7131
Spin= Beta
Occup=    1.00000
   1        -0.00456778
   2        -0.86874350
   3         0.00042598
   4         0.00100303
   5         0.00813763
   6         0.01289401
   7         0.57329078
   8         0.00088505
   9         0.00208557
  10         0.15802448
Sym=     5a  
Ene=    -0.3434
Spin= Alpha
Occup=    1.00000
   1        -0.00027969
   2        -0.00462345
   3         0.13757250
   4         0.32469388
   5         0.02760362
   6        -0.00071029
   7        -0.01001614
   8         0.35012508
   9         0.82635128
  10        -0.01513925
Sym=     5a  
Ene=    -0.3434
Spin= Beta
Occup=    1.00000
   1        -0.00027969
   2        -0.00462345
   3         0.13757250
   4         0.32469388
   5         0.02760362
   6        -0.00071029
   7        -0.01001614
   8         0.35012508
   9         0.82635128
  10        -0.01513925
Sym=     6a  
Ene=    -0.4315
Spin= Alpha
Occup=    1.00000
   1         0.02463785
   2         0.07962138
   3         0.00523455
   4         0.01231825
   5        -0.84133243
   6         0.02757251
   7         0.05090185
   8         0.01110608
   9         0.02620536
  10         0.40246128
Sym=     6a  
Ene=    -0.4315
Spin= Beta
Occup=    1.00000
   1         0.02463785
   2         0.07962138
   3         0.00523455
   4         0.01231825
   5        -0.84133243
   6         0.02757251
   7         0.05090185
   8         0.01110608
   9         0.02620536
  10         0.40246128
Sym=     7a  
Ene=     0.0000
Spin= Alpha
Occup=    1.00000
   1         0.00000025
   2         0.00000194
   3        -0.13701829
   4         0.05805463
   5        -0.00000208
   6         0.00000005
   7         0.00000142
   8        -0.89568372
   9         0.37950143
  10         0.00000780
Sym=     7a  
Ene=     0.0000
Spin= Beta
Occup=    0.00000
   1         0.00000025
   2         0.00000194
   3        -0.13701829
   4         0.05805463
   5        -0.00000208
   6         0.00000005
   7         0.00000142
   8        -0.89568372
   9         0.37950143
  10         0.00000780
Sym=     8a  
Ene=     0.0578
Spin= Alpha
Occup=    0.00000
   1         0.00001984
   2         0.00023401
   3        -0.36752806
   4        -0.86742389
   5        -0.00157605
   6         0.00004038
   7         0.00046737
   8         0.17695118
   9         0.41763257
  10         0.00100663
Sym=     8a  
Ene=     0.0578
Spin= Beta
Occup=    0.00000
   1         0.00001984
   2         0.00023401
   3        -0.36752806
   4        -0.86742389
   5        -0.00157605
   6         0.00004038
   7         0.00046737
   8         0.17695118
   9         0.41763257
  10         0.00100663
Sym=     9a  
Ene=     0.0803
Spin= Alpha
Occup=    0.00000
   1         0.00000021
   2         0.00000336
   3        -0.91609989
   4         0.38815217
   5        -0.00000837
   6         0.00000019
   7         0.00000203
   8         0.23614391
   9        -0.10005426
  10         0.00001011
Sym=     9a  
Ene=     0.0803
Spin= Beta
Occup=    0.00000
   1         0.00000021
   2         0.00000336
   3        -0.91609989
   4         0.38815217
   5        -0.00000837
   6         0.00000019
   7         0.00000203
   8         0.23614391
   9        -0.10005426
  10         0.00001011
Sym=    10a  
Ene=     0.2684
Spin= Alpha
Occup=    0.00000
   1        -0.02498902
   2        -0.36165153
   3        -0.00023188
   4        -0.00053335
   5        -0.65038492
   6         0.02110986
   7         0.27863971
   8        -0.00038611
   9        -0.00090155
  10        -0.96676602
Sym=    10a  
Ene=     0.2684
Spin= Beta
Occup=    0.00000
   1        -0.02498902
   2        -0.36165153
   3        -0.00023188
   4        -0.00053335
   5        -0.65038492
   6         0.02110986
   7         0.27863971
   8        -0.00038611
   9        -0.00090155
  10        -0.96676602
