   This run of MOLCAS is using the pymolcas driver

                             OPE
                             OPE          NMOL  CASOP  ENMOLC A   SO
                 OPE        NMOLC        AS  OP EN  MO LC     AS  OP
                OPENM       OL CA        SO  PE NM  OL CA     SOP EN
                OP EN      MO   LC       AS  OP ENMOL  CASO   PENMOL
                OP  EN     MO   LC       AS  OP EN     MO     LC ASO
               OP   E  NMOL  C  AS       OP  EN MO     LC     AS  OP
               OP  E   NMO   LC AS        OPEN  MO     LCASOP EN   M
               O  PEN   MO  LCA  SO
            OPE   NMO   L   CAS    OP
        OPENMOL  CASOP     ENMOL   CASOPE
     OPENMOLCA   SOPENMOLCASOPEN   MOLCASOPE
    OPENMOLCAS   OP           EN   MOL    CAS
    OPENMOLCAS       OP  ENM        O     LCA
    OPENMOLCAS    OPEN  MOLCASO     P  E  NMO
    OPENMOLCAS     OP               E  N  MOL
    OPENMOLCA   SO           PENM   O  L  CAS    OPEN    MO    LCAS
    OPENMOLCA   SOP           ENM   O  L  CAS   OP  EN  MOLC  AS   O
    OPENMOLCA   SOPE           NM      O  LCA   S      OP  EN MO
    OPENMOLC                AS         O  PEN   M      OL  CA  SOPE
    OPENMO        LCASOPE  NMOL        C  ASO   P      ENMOLC     AS
    OPE     NMO      LCA  SO     P     E   NM   OL  CA SO  PE N   MO
          OPENMOLCA            SOPE   NMO        LCAS  O    P  ENMO
     OPENMOLCASOPENMOLCASOPENMOLCASOPENMOLCA
        OPENMOLCASOPENMOLCASOPENMOLCASOPE
            OPENMOLCASOPENMOLCASOPENM
               OPENMOLCASOPENMOLCA        version: 1d1d16313-dirty
                   OPENMOLCASO
                       OPE                tag:

 OpenMolcas is free software; you can redistribute it and/or modify it
 under the terms of the GNU Lesser General Public License version 2.1.
 OpenMolcas is distributed in the hope that it will be useful, but it
 is provided "as is" and without any express or implied warranties.
 For more details see the full text of the license in the file
 LICENSE or in <http://www.gnu.org/licenses/>.

                 Copyright (C) The OpenMolcas Authors
           For the author list and the recommended citation,
                   consult the file CONTRIBUTORS.md

           *************************************************
           * pymolcas version py2.28                       *
           *   build c4a6d18ded8cb6cad61d2372a9abd97c      *
           *   (after the EMIL interpreter by V. Veryazov) *
           *************************************************

configuration info
------------------
C Compiler ID: IntelLLVM
C flags: -std=gnu99
Fortran Compiler ID: IntelLLVM
Fortran flags: -standard-semantics -fltconsistency -fpp -i8 -heap-arrays
Definitions: _MOLCAS_;_I8_;_LINUX_
Parallel: OFF (GA=OFF)


   --------------------------------------------------------------------------------
  |
  |              Project: ozone_162.25
  |       Submitted from: /home/grierjones/DDCASPT2/ozone/ANO-RCC-VDZP/ozone_162.25
  |         Scratch area: /tmp/ozone_162.25
  |      Save outputs to: /home/grierjones/DDCASPT2/ozone/ANO-RCC-VDZP/ozone_162.25
  |               Molcas: /home/grierjones/Test/build
  |
  | Scratch area is empty
  |
  |       MOLCAS_DRIVER = /usr/local/pymolcas
  | MOLCAS_KEEP_WORKDIR = NO
  |  MOLCAS_NEW_WORKDIR = YES
  |       MOLCAS_NPROCS = 1
  |        MOLCAS_PRINT = NORMAL
  |       MOLCAS_SOURCE = /home/grierjones/Test
  |    MOLCAS_STRUCTURE = 0
  |
   --------------------------------------------------------------------------------

++ ---------   Input file   ---------

&GATEWAY
coord=ozone_162.25.xyz
Basis = ANO-RCC-VDZP
Group = nosymm
Expert
End of Input

&SEWARD
End of Input

&SCF

>>> COPY $WorkDir/ozone_162.25.scf.h5 $CurrDir/

&RASSCF
Title= RASSCF
FileOrb
/home/grierjones/DDCASPT2/ozone/ANO-RCC-VDZP/ozone_162.00/ozone_162.00.RasOrb
NACTEL
4 0 0
Inactive
10
RAS2
3
Symmetry
1
Spin
1
orblisting
all
ITERation
300 200

>>> COPY $WorkDir/ozone_162.25.rasscf.h5 $CurrDir/

>>> COPY $WorkDir/GMJ_Fock_MO.csv $CurrDir/ozone_162.25.GMJ_Fock_MO.csv

>>> COPY $WorkDir/GMJ_PT2_Fock_MO.csv $CurrDir/ozone_162.25.GMJ_PT2_Fock_MO.csv

&MOTRA
Frozen=0
LUMORB

>>> COPY $WorkDir/GMJ_one_int_indx.csv $CurrDir/ozone_162.25.GMJ_one_int_indx.csv

>>> COPY $WorkDir/GMJ_one_int.csv $CurrDir/ozone_162.25.GMJ_one_int.csv

>>> COPY $WorkDir/GMJ_two_int_indx.csv $CurrDir/ozone_162.25.GMJ_two_int_indx.csv

>>> COPY $WorkDir/GMJ_two_int.csv $CurrDir/ozone_162.25.GMJ_two_int.csv

&CASPT2
Frozen
0
MAXITER
50

>>> FOREACH i IN (B,E,F,G,H)

  >>> FOREACH j IN (P,M)

    >>> IF (-FILE GMJ_e2_${i}_${j}.csv)

      >>> COPY $WorkDir/GMJ_RHS_${i}_${j}.csv $CurrDir/GMJ_RHS_${i}_${j}.csv

      >>> COPY $WorkDir/GMJ_IVECW_${i}_${j}.csv $CurrDir/GMJ_IVECW_${i}_${j}.csv

      >>> COPY $WorkDir/GMJ_IVECX_${i}_${j}.csv $CurrDir/GMJ_IVECX_${i}_${j}.csv

      >>> COPY $WorkDir/GMJ_IVECC2_${i}_${j}.csv $CurrDir/GMJ_IVECC2_${i}_${j}.csv

      >>> COPY $WorkDir/GMJ_e2_${i}_${j}.csv $CurrDir/GMJ_e2_${i}_${j}.csv

    >>> END IF

  >>> END FOREACH

>>> END FOREACH

>>> FOREACH i IN (A,C,D)

  >>> IF (-FILE GMJ_e2_$i.csv)

    >>> COPY $WorkDir/GMJ_RHS_$i.csv $CurrDir/GMJ_RHS_$i.csv

    >>> COPY $WorkDir/GMJ_IVECW_$i.csv $CurrDir/GMJ_IVECW_$i.csv

    >>> COPY $WorkDir/GMJ_IVECX_$i.csv $CurrDir/GMJ_IVECX_$i.csv

    >>> COPY $WorkDir/GMJ_IVECC2_$i.csv $CurrDir/GMJ_IVECC2_$i.csv

    >>> COPY $WorkDir/GMJ_e2_$i.csv $CurrDir/GMJ_e2_$i.csv

  >>> END IF

>>> END FOREACH

-- ----------------------------------

--- Start Module: gateway at Fri Jan 24 17:41:05 2025 ---
 
()()()()()()()()()()()()()()()()()()()()()()()()()()()()()()()()()()()()()()()()()()()()()()()()()()

                                              &GATEWAY

                                   only a single process is used
                       available to each process: 2.0 GB of memory, 1 thread?
()()()()()()()()()()()()()()()()()()()()()()()()()()()()()()()()()()()()()()()()()()()()()()()()()()
 
 ###############################################################################
 ###############################################################################
 ###                                                                         ###
 ###                                                                         ###
 ###                                                                         ###
 ###    WARNING: EXPERT option is ON!                                        ###
 ###                                                                         ###
 ###                                                                         ###
 ###############################################################################
 ###############################################################################
 
++    Symmetry information:
      ---------------------
 
                    Character Table for C1 
 
                             E  
                    a        1  x, y, xy, Rz, z, xz, Ry, yz, Rx, I
--
 
 
++    Basis set information:
      ----------------------
 
 
      Basis set label: O.ANO-RCC...3S2P1D.
 
      Electronic valence basis set:
      ------------------
      Associated Effective Charge   8.000000 au
      Associated Actual Charge      8.000000 au
      Nuclear Model: Point charge
 
      Shell  nPrim  nBasis  Cartesian Spherical Contaminant
         s      14       3        X                  
         p       9       2        X                  
         d       4       1                 X         
--
 
 
++    Molecular structure info:
      -------------------------
 
                    ************************************************ 
                    **** Cartesian Coordinates / Bohr, Angstrom **** 
                    ************************************************ 
 
     Center  Label                x              y              z                     x              y              z
        1      O1               0.372595       2.386155       0.000000              0.197169       1.262699       0.000000
        2      O2               0.000000       0.000000       0.000000              0.000000       0.000000       0.000000
        3      O3               0.372595      -2.386155       0.000000              0.197169      -1.262699       0.000000
 
                    *************************************** 
                    *    InterNuclear Distances / Bohr    * 
                    *************************************** 
 
               1 O1            2 O2            3 O3    
    1 O1       0.000000
    2 O2       2.415070        0.000000
    3 O3       4.772311        2.415070        0.000000
 
                    ******************************************* 
                    *    InterNuclear Distances / Angstrom    * 
                    ******************************************* 
 
               1 O1            2 O2            3 O3    
    1 O1       0.000000
    2 O2       1.278000        0.000000
    3 O3       2.525398        1.278000        0.000000
 
                    ************************************** 
                    *    Valence Bond Angles / Degree    * 
                    ************************************** 
                          Atom centers                 Phi
                      1 O1       2 O2       3 O3       162.25
--
 
 
            Nuclear Potential Energy             66.41122291 au
 
 ###############################################################################
 ###############################################################################
 ###                                                                         ###
 ###                                                                         ###
 ###    There were warnings during the execution                             ###
 ###    Please, check the output with care!                                  ###
 ###                                                                         ###
 ###                                                                         ###
 ###############################################################################
 ###############################################################################
--- Stop Module: gateway at Fri Jan 24 17:41:05 2025 /rc=_RC_ALL_IS_WELL_ ---
*** files: xmldump
    saved to directory /home/grierjones/DDCASPT2/ozone/ANO-RCC-VDZP/ozone_162.25

--- Start Module: seward at Fri Jan 24 17:41:05 2025 ---
 
()()()()()()()()()()()()()()()()()()()()()()()()()()()()()()()()()()()()()()()()()()()()()()()()()()

                                              &SEWARD

                                   only a single process is used
                       available to each process: 2.0 GB of memory, 1 thread?
()()()()()()()()()()()()()()()()()()()()()()()()()()()()()()()()()()()()()()()()()()()()()()()()()()
 
 ###############################################################################
 ###############################################################################
 ###                                                                         ###
 ###                                                                         ###
 ###                                                                         ###
 ###    WARNING: EXPERT option is ON!                                        ###
 ###                                                                         ###
 ###                                                                         ###
 ###############################################################################
 ###############################################################################
               SEWARD will generate:
                  Multipole Moment integrals up to order  2
                  Kinetic Energy integrals
                  Nuclear Attraction integrals (point charge)
                  One-Electron Hamiltonian integrals
                  Velocity integrals
                  Relativistic Douglas-Kroll-Hess integrals:
                    - Parametrization         : EXP
                    - DKH order of Hamiltonian: 2
                    - DKH order of Properties : 0
                         - multipole moment operators
                         - electric potential operators
                         - contact operators
                  Atomic mean-field integrals
                  Two-Electron Repulsion integrals
 
                   Integrals are discarded if absolute value <: 0.10E-13
                   Integral cutoff threshold is set to       <: 0.10E-15
 
            Nuclear Potential Energy             66.41122291 au
 
 
      Basis set specifications :
      Symmetry species         a  
      Basis functions           42
 
 
  Input file to MOLDEN was generated!
 
 ###############################################################################
 ###############################################################################
 ###                                                                         ###
 ###                                                                         ###
 ###    There were warnings during the execution                             ###
 ###    Please, check the output with care!                                  ###
 ###                                                                         ###
 ###                                                                         ###
 ###############################################################################
 ###############################################################################
forrtl: warning (525): IEEE_DIVIDE_BY_ZERO is signaling
forrtl: warning (526): IEEE_INVALID is signaling
forrtl: warning (528): IEEE_UNDERFLOW is signaling
--- Stop Module: seward at Fri Jan 24 17:41:06 2025 /rc=_RC_ALL_IS_WELL_ ---
*** files: ozone_162.25.GssOrb ozone_162.25.guessorb.h5 ozone_162.25.guessorb.molden xmldump
    saved to directory /home/grierjones/DDCASPT2/ozone/ANO-RCC-VDZP/ozone_162.25
--- Module seward spent 1 second ---

*** symbolic link created: INPORB -> ozone_162.25.GssOrb
--- Start Module: scf at Fri Jan 24 17:41:06 2025 ---
 
()()()()()()()()()()()()()()()()()()()()()()()()()()()()()()()()()()()()()()()()()()()()()()()()()()

                                                &SCF

                                   only a single process is used
                       available to each process: 2.0 GB of memory, 1 thread?
()()()()()()()()()()()()()()()()()()()()()()()()()()()()()()()()()()()()()()()()()()()()()()()()()()
 
++    Input section:
      --------------
 
      Header of the integral files:
      
       Integrals generated by seward 4.2.0  , Fri Jan 24 17:41:05 2025
 
 
      Cartesian coordinates in Angstrom:
      -----------------------------------------------------
      No.  Label        X            Y            Z        
      -----------------------------------------------------
       1   O1         0.19716900   1.26269900   0.00000000
       2   O2         0.00000000   0.00000000   0.00000000
       3   O3         0.19716900  -1.26269900   0.00000000
      -----------------------------------------------------
      Nuclear repulsion energy =   66.41122291
--
 
++    Orbital specifications:
      -----------------------
 
      Symmetry species               1
                                     a
      Frozen orbitals                0
      Occupied orbitals             12
      Secondary orbitals            30
      Deleted orbitals               0
      Total number of orbitals      42
      Number of basis functions     42
--
 
      Molecular charge                           0.000
 
++    Optimization specifications:
      ----------------------------
 
      SCF Algorithm: Conventional
      Minimized density differences are used
      Number of density matrices in core                5
      Maximum number of NDDO SCF iterations           400
      Maximum number of HF SCF iterations             400
      Threshold for SCF energy change            0.10E-08
      Threshold for density matrix               0.10E-03
      Threshold for Fock matrix                  0.15E-03
      Threshold for linear dependence            0.10E-08
      Threshold at which DIIS is turned on       0.15E+00
      Threshold at which QNR/C2DIIS is turned on 0.75E-01
      Threshold for Norm(delta) (QNR/C2DIIS)     0.20E-04
      DIIS extrapolation of the SCF procedure
      All orbitals punched on: SCFORB
--
 
      Input vectors read from INPORB
      Orbital file label: *Guess orbitals
 
 
++ Convergence information
                                   SCF        iterations: Energy and convergence statistics
 
Iter     Tot. SCF        One-elec.       Two-elec.     Energy      Max Dij or  Max Fij      DNorm      TNorm      AccCon     Time
         Energy          Energy          Energy        Change      Delta Norm                                                in Sec.
   1  -223.927428917  -436.705998076   146.367346245   0.00E+00    0.54E+00*   0.27E+00*    0.73E+01   0.75E+02   None         0.
   2  -224.143165216  -442.518301822   151.963913692  -0.22E+00*   0.30E+00*   0.17E+00*    0.21E+01   0.76E+02   EDIIS        0.
   3  -224.356955589  -439.989054126   149.220875623  -0.21E+00*   0.18E+00*   0.10E+00*    0.82E+00   0.76E+02   EDIIS        0.
   4  -224.376375961  -440.840368497   150.052769622  -0.19E-01*   0.58E-01*   0.48E-01*    0.20E+00   0.76E+02   EDIIS        0.
   5  -224.401841482  -440.403783916   149.590719520  -0.25E-01*   0.17E-01*   0.11E-01*    0.53E-01   0.76E+02   c2DIIS       0.
   6  -224.402978530  -440.472833112   149.658631667  -0.11E-02*   0.64E-02*   0.40E-02*    0.11E-01   0.76E+02   QNRc2DIIS    0.
   7  -224.403101428  -440.481897684   149.667573342  -0.12E-03*   0.15E-01*   0.31E-02*    0.30E-02   0.76E+02   QNRc2DIIS    0.
   8  -224.403193566  -440.472439070   149.658022589  -0.92E-04*   0.19E-02*   0.12E-02*    0.15E-02   0.76E+02   QNRc2DIIS    0.
   9  -224.403201796  -440.477249225   149.662824515  -0.82E-05*   0.18E-02*   0.34E-03*    0.17E-02   0.76E+02   QNRc2DIIS    0.
  10  -224.403204388  -440.476851284   149.662423983  -0.26E-05*   0.39E-03*   0.11E-03     0.10E-02   0.76E+02   QNRc2DIIS    0.
  11  -224.403204542  -440.477318354   149.662890898  -0.15E-06*   0.29E-03*   0.52E-04     0.18E-03   0.76E+02   QNRc2DIIS    0.
  12  -224.403204614  -440.477191044   149.662763516  -0.72E-07*   0.16E-04    0.12E-04     0.12E-03   0.76E+02   QNRc2DIIS    0.
  13  -224.403204615  -440.477448688   149.663021159  -0.88E-09    0.79E-05    0.30E-05     0.23E-04   0.76E+02   QNRc2DIIS    0.
 
       Convergence after 13 Macro Iterations
--
 
 *****************************************************************************************************************************
 *                                                                                                                           *
 *                                             SCF/KS-DFT Program, Final results                                             *
 *                                                                                                                           *
 *                                                                                                                           *
 *                                                                                                                           *
 *                                                       Final Results                                                       *
 *                                                                                                                           *
 *****************************************************************************************************************************
 
::    Total SCF energy                               -224.4032046147
      One-electron energy                            -440.4774486878
      Two-electron energy                             149.6630211591
      Nuclear repulsion energy                         66.4112229140
      Kinetic energy (interpolated)                   225.5823055524
      Virial theorem                                    0.9947730788
      Total spin, S(S+1)                                0.0000000000
      Total spin, S                                     0.0000000000
      Max non-diagonal density matrix element           0.0000099913
      Max non-diagonal Fock matrix element              0.0000017360
 
 
      All orbitals with orbital energies smaller than  E(LUMO)+0.5 are printed
 
++    Molecular orbitals:
      -------------------
 
      Title: SCF orbitals

      Molecular orbitals for symmetry species 1: a  
 
          Orbital            1         2         3         4         5         6         7         8         9        10    
          Energy          -20.8571  -20.7349  -20.7349   -1.7131   -1.4698   -1.0657   -0.8376   -0.7931   -0.7565   -0.6145
          Occ. No.          2.0000    2.0000    2.0000    2.0000    2.0000    2.0000    2.0000    2.0000    2.0000    2.0000
 
        1 O1     1s         0.0025   -0.7072    0.7072   -0.0154    0.0098    0.0137   -0.0041   -0.0190    0.0000    0.0050
        2 O1     2s         0.0001   -0.0008    0.0005    0.3254   -0.5723    0.6489   -0.0913   -0.4080    0.0000    0.0634
        3 O1     3s        -0.0000   -0.0001   -0.0001   -0.0237    0.0128    0.0180   -0.0071   -0.0258    0.0000    0.0058
        4 O1     2px        0.0001    0.0001   -0.0001   -0.0136    0.0235    0.0453    0.3274   -0.1683    0.0000   -0.6813
        5 O1     3px        0.0002    0.0001    0.0000    0.0053   -0.0031   -0.0072   -0.0305    0.0094   -0.0000    0.0011
        6 O1     2py       -0.0001    0.0009   -0.0010   -0.1035    0.0928    0.1713   -0.1214   -0.4015    0.0000    0.1745
        7 O1     3py        0.0000   -0.0005    0.0003    0.0249   -0.0188   -0.0258    0.0107    0.0294   -0.0000    0.0004
        8 O1     2pz       -0.0000    0.0000    0.0000   -0.0000   -0.0000   -0.0000   -0.0000    0.0000    0.4134    0.0000
        9 O1     3pz       -0.0000   -0.0000    0.0000   -0.0000   -0.0000   -0.0000    0.0000    0.0000   -0.0240   -0.0000
       10 O1     3d2-       0.0000   -0.0000    0.0000    0.0030   -0.0056   -0.0047   -0.0201    0.0117   -0.0000    0.0130
       11 O1     3d1-       0.0000   -0.0000   -0.0000   -0.0000    0.0000   -0.0000    0.0000   -0.0000   -0.0306    0.0000
       12 O1     3d0        0.0000    0.0001   -0.0001   -0.0085    0.0085    0.0065   -0.0041   -0.0166    0.0000    0.0041
       13 O1     3d1+       0.0000   -0.0000   -0.0000    0.0000   -0.0000   -0.0000   -0.0000    0.0000   -0.0042   -0.0000
       14 O1     3d2+      -0.0000   -0.0002    0.0001   -0.0171    0.0145    0.0137   -0.0129   -0.0293    0.0000    0.0101
       15 O2     1s         1.0000    0.0000   -0.0037   -0.0210   -0.0000   -0.0151   -0.0025   -0.0000   -0.0000   -0.0000
       16 O2     2s         0.0001    0.0000   -0.0008    0.6704    0.0000   -0.6265   -0.0294   -0.0000   -0.0000   -0.0000
       17 O2     3s        -0.0008    0.0000   -0.0007   -0.0377   -0.0000   -0.0131   -0.0027    0.0000   -0.0000   -0.0000
       18 O2     2px        0.0004    0.0000   -0.0000    0.0468    0.0000    0.0864    0.7405   -0.0000    0.0000    0.0000
       19 O2     3px       -0.0007    0.0000   -0.0001   -0.0109   -0.0000   -0.0106   -0.0623    0.0000   -0.0000    0.0000
       20 O2     2py       -0.0000    0.0010    0.0000    0.0000   -0.3286   -0.0000    0.0000    0.5262   -0.0000   -0.1049
       21 O2     3py       -0.0000    0.0012    0.0000   -0.0000    0.0816    0.0000   -0.0000   -0.0838    0.0000    0.0031
       22 O2     2pz        0.0000   -0.0000   -0.0000    0.0000    0.0000   -0.0000   -0.0000    0.0000    0.6511    0.0000
       23 O2     3pz        0.0000    0.0000    0.0000    0.0000    0.0000   -0.0000    0.0000   -0.0000   -0.0173   -0.0000
       24 O2     3d2-       0.0000    0.0001    0.0000    0.0000   -0.0177   -0.0000    0.0000    0.0117   -0.0000   -0.0404
       25 O2     3d1-       0.0000   -0.0000   -0.0000   -0.0000   -0.0000    0.0000   -0.0000    0.0000    0.0000    0.0000
       26 O2     3d0       -0.0003   -0.0000    0.0003   -0.0181   -0.0000   -0.0003   -0.0088    0.0000   -0.0000   -0.0000
       27 O2     3d1+      -0.0000    0.0000    0.0000   -0.0000    0.0000    0.0000   -0.0000    0.0000    0.0148    0.0000
       28 O2     3d2+       0.0001   -0.0000    0.0004   -0.0301   -0.0000   -0.0026    0.0095   -0.0000   -0.0000   -0.0000
       29 O3     1s         0.0025    0.7072    0.7072   -0.0154   -0.0098    0.0137   -0.0041    0.0190   -0.0000   -0.0050
       30 O3     2s         0.0001    0.0008    0.0005    0.3254    0.5723    0.6489   -0.0913    0.4080   -0.0000   -0.0634
       31 O3     3s        -0.0000    0.0001   -0.0001   -0.0237   -0.0128    0.0180   -0.0071    0.0258   -0.0000   -0.0058
       32 O3     2px        0.0001   -0.0001   -0.0001   -0.0136   -0.0235    0.0453    0.3274    0.1683   -0.0000    0.6813
       33 O3     3px        0.0002   -0.0001    0.0000    0.0053    0.0031   -0.0072   -0.0305   -0.0094    0.0000   -0.0011
       34 O3     2py        0.0001    0.0009    0.0010    0.1035    0.0928   -0.1713    0.1214   -0.4015    0.0000    0.1745
       35 O3     3py       -0.0000   -0.0005   -0.0003   -0.0249   -0.0188    0.0258   -0.0107    0.0294   -0.0000    0.0004
       36 O3     2pz       -0.0000    0.0000   -0.0000   -0.0000   -0.0000    0.0000   -0.0000    0.0000    0.4134   -0.0000
       37 O3     3pz       -0.0000   -0.0000    0.0000   -0.0000    0.0000   -0.0000    0.0000   -0.0000   -0.0240    0.0000
       38 O3     3d2-      -0.0000   -0.0000   -0.0000   -0.0030   -0.0056    0.0047    0.0201    0.0117   -0.0000    0.0130
       39 O3     3d1-      -0.0000   -0.0000   -0.0000   -0.0000   -0.0000   -0.0000   -0.0000    0.0000    0.0306   -0.0000
       40 O3     3d0        0.0000   -0.0001   -0.0001   -0.0085   -0.0085    0.0065   -0.0041    0.0166   -0.0000   -0.0041
       41 O3     3d1+       0.0000   -0.0000   -0.0000    0.0000    0.0000    0.0000   -0.0000   -0.0000   -0.0042   -0.0000
       42 O3     3d2+      -0.0000    0.0002    0.0001   -0.0171   -0.0145    0.0137   -0.0129    0.0293   -0.0000   -0.0101
 
          Orbital           11        12        13        14        15        16    
          Energy           -0.5147   -0.4837   -0.0323    0.1480    0.2862    0.4629
          Occ. No.          2.0000    2.0000    0.0000    0.0000    0.0000    0.0000
 
        1 O1     1s        -0.0000    0.0018    0.0000    0.0279   -0.1620   -0.0224
        2 O1     2s        -0.0000    0.0013    0.0000    0.3416   -1.1783   -0.1539
        3 O1     3s        -0.0000    0.0118    0.0000    0.0174   -0.4199   -0.0917
        4 O1     2px        0.0000    0.6669    0.0000    0.0260    0.1501   -0.0781
        5 O1     3px        0.0000    0.0366    0.0000    0.0103    0.1202    0.4229
        6 O1     2py        0.0000    0.0621    0.0000   -0.8090    0.5886    0.1089
        7 O1     3py        0.0000   -0.0134   -0.0000   -0.1856    0.6422    0.2326
        8 O1     2pz       -0.7031    0.0000    0.6536   -0.0000    0.0000    0.0000
        9 O1     3pz       -0.0366    0.0000    0.1293    0.0000   -0.0000   -0.0000
       10 O1     3d2-       0.0000    0.0008    0.0000    0.0076   -0.0103    0.0248
       11 O1     3d1-       0.0246   -0.0000    0.0130    0.0000    0.0000   -0.0000
       12 O1     3d0       -0.0000    0.0026    0.0000    0.0004    0.0191    0.0064
       13 O1     3d1+       0.0029    0.0000    0.0025    0.0000    0.0000   -0.0000
       14 O1     3d2+       0.0000    0.0063   -0.0000    0.0037    0.0306    0.0222
       15 O2     1s         0.0000    0.0146   -0.0000   -0.1197    0.0000    0.0708
       16 O2     2s         0.0000    0.1838   -0.0000   -1.1169   -0.0000    0.4322
       17 O2     3s         0.0000    0.0273   -0.0000   -0.2574   -0.0000    0.1698
       18 O2     2px       -0.0000   -0.6921   -0.0000   -0.3234   -0.0000   -0.0569
       19 O2     3px       -0.0000   -0.0381   -0.0000   -0.0688   -0.0000    0.4739
       20 O2     2py        0.0000   -0.0000   -0.0000   -0.0000    1.3265   -0.0000
       21 O2     3py        0.0000   -0.0000   -0.0000   -0.0000    1.0951   -0.0000
       22 O2     2pz        0.0000    0.0000   -0.8897   -0.0000    0.0000    0.0000
       23 O2     3pz        0.0000    0.0000   -0.1607    0.0000    0.0000   -0.0000
       24 O2     3d2-      -0.0000   -0.0000   -0.0000   -0.0000    0.0249   -0.0000
       25 O2     3d1-      -0.0554    0.0000   -0.0000   -0.0000   -0.0000   -0.0000
       26 O2     3d0        0.0000    0.0140    0.0000   -0.0369   -0.0000   -0.0335
       27 O2     3d1+       0.0000    0.0000   -0.0038    0.0000   -0.0000    0.0000
       28 O2     3d2+       0.0000    0.0208    0.0000   -0.0669   -0.0000   -0.0770
       29 O3     1s         0.0000    0.0018   -0.0000    0.0279    0.1620   -0.0224
       30 O3     2s         0.0000    0.0013   -0.0000    0.3416    1.1783   -0.1539
       31 O3     3s         0.0000    0.0118   -0.0000    0.0174    0.4199   -0.0917
       32 O3     2px        0.0000    0.6669    0.0000    0.0260   -0.1501   -0.0781
       33 O3     3px        0.0000    0.0366    0.0000    0.0103   -0.1202    0.4229
       34 O3     2py       -0.0000   -0.0621    0.0000    0.8090    0.5886   -0.1089
       35 O3     3py        0.0000    0.0134    0.0000    0.1856    0.6422   -0.2326
       36 O3     2pz        0.7031   -0.0000    0.6536    0.0000   -0.0000    0.0000
       37 O3     3pz        0.0366   -0.0000    0.1293    0.0000    0.0000   -0.0000
       38 O3     3d2-       0.0000   -0.0008   -0.0000   -0.0076   -0.0103   -0.0248
       39 O3     3d1-       0.0246   -0.0000   -0.0130   -0.0000   -0.0000    0.0000
       40 O3     3d0        0.0000    0.0026   -0.0000    0.0004   -0.0191    0.0064
       41 O3     3d1+      -0.0029    0.0000    0.0025   -0.0000    0.0000   -0.0000
       42 O3     3d2+       0.0000    0.0063   -0.0000    0.0037   -0.0306    0.0222
--
 
 
++    Molecular charges:
      ------------------
 
      Mulliken charges per centre and basis function type
      ---------------------------------------------------
 
                O1      O2      O3    
      1s       2.0003  2.0000  2.0003
      2s       1.9349  1.6971  1.9349
      2px      1.9976  1.9003  1.9976
      2pz      1.4369  1.0779  1.4369
      2py      0.7609  1.0028  0.7609
      3s      -0.0131 -0.0228 -0.0131
      3px     -0.0193 -0.0404 -0.0193
      3pz     -0.0110 -0.0067 -0.0110
      3py     -0.0109  0.0264 -0.0109
      3d2+     0.0203  0.0231  0.0203
      3d1+     0.0003  0.0015  0.0003
      3d0      0.0057  0.0060  0.0057
      3d1-     0.0135  0.0479  0.0135
      3d2-     0.0106  0.0337  0.0106
      Total    8.1266  7.7468  8.1266
 
      N-E     -0.1266  0.2532 -0.1266
 
      Total electronic charge=   24.000000
 
      Total            charge=   -0.000000
--
 
 
  Input file to MOLDEN was generated!
 
 
++    Static properties:
      ------------------
 
 
      LoProp Charges per center
 

                   O1       O2       O3    
      Nuclear      8.0000   8.0000   8.0000
      Electronic  -8.1723  -7.6553  -8.1723
 
      Total       -0.1723   0.3447  -0.1723
--
 
 
++    Natural Bond Order analysis
      ---------------------------
      Based on LoProp computed density
      -------------------------------------------------------------------------------------
      Atom A       Atom B       Bond Order | Atom A       Atom B       Bond Order
        O1           O2             2.000  |   O2           O3             2.000
      -------------------------------------------------------------------------------------
      NBO located     15.999 core electrons.
      NBO located      8.000 electrons involved in    2 bonds.
      The remaining    0.001 electrons are to be considered as diffuse
--
 
 
++    Molecular properties:
      ---------------------
 
      Charge (e):
                      =   -0.0000
      Dipole Moment (Debye):
      Origin of the operator (Ang)=    0.0000    0.0000    0.0000
                   X= -3.9156E-02               Y=  6.4735E-12               Z=  2.5845E-13           Total=  3.9156E-02
      Quadrupole Moment (Debye*Ang):
      Origin of the operator (Ang)=    0.1314    0.0000    0.0000
                  XX= -1.6421E+01              XY=  3.8985E-12              XZ=  8.2357E-14              YY= -1.7103E+01
                  YZ=  6.2767E-13              ZZ= -1.5172E+01
      In traceless form (Debye*Ang)
                  XX= -2.8386E-01              XY=  5.8478E-12              XZ=  1.2354E-13              YY= -1.3065E+00
                  YZ=  9.4151E-13              ZZ=  1.5904E+00
--
 
 
  Input file to MOLDEN was generated!
 
 ###############################################################################
 ###############################################################################
 ###                                                                         ###
 ###                                                                         ###
 ###    RunFile label nBas                                                   ###
 ###    was used       78 times                                              ###
 ###                                                                         ###
 ###                                                                         ###
 ###############################################################################
 ###############################################################################
forrtl: warning (528): IEEE_UNDERFLOW is signaling
--- Stop Module: scf at Fri Jan 24 17:41:07 2025 /rc=_RC_ALL_IS_WELL_ ---
*** files: ozone_162.25.LprOrb ozone_162.25.LoProp.molden ozone_162.25.scf.molden ozone_162.25.ScfOrb ozone_162.25.scf.h5 xmldump
    saved to directory /home/grierjones/DDCASPT2/ozone/ANO-RCC-VDZP/ozone_162.25

>>> COPY /tmp/ozone_162.25/ozone_162.25.scf.h5 /home/grierjones/DDCASPT2/ozone/ANO-RCC-VDZP/ozone_162.25/

*** symbolic link created: INPORB -> ozone_162.25.ScfOrb
--- Start Module: rasscf at Fri Jan 24 17:41:07 2025 ---
 
()()()()()()()()()()()()()()()()()()()()()()()()()()()()()()()()()()()()()()()()()()()()()()()()()()

                                              &RASSCF

                                   only a single process is used
                       available to each process: 2.0 GB of memory, 1 thread?
()()()()()()()()()()()()()()()()()()()()()()()()()()()()()()()()()()()()()()()()()()()()()()()()()()
 
 
 *************** WARNING ****************
 ###############################################################################
 ###############################################################################
 ###                                                                         ###
 ###                                                                         ###
 ###    Too many macro-iterations.                                           ###
 ###                                                                         ###
 ###                                                                         ###
 ###############################################################################
 ###############################################################################
 Too many macro-iterations requested.
 Reset to maximum, new MAXIT=     200
 ****************************************
 
 *************** WARNING ****************
 ###############################################################################
 ###############################################################################
 ###                                                                         ###
 ###                                                                         ###
 ###    Too many SX-iterations.                                              ###
 ###                                                                         ###
 ###                                                                         ###
 ###############################################################################
 ###############################################################################
 Too many SX-iterations requested.
 Reset to maximum, new ITMAX=     100
 ****************************************
 
      Header of the ONEINT file:
      --------------------------
      
      Integrals generated by seward 4.2.0  , Fri Jan 24 17:41:05 2025
 
 
      OrdInt status: non-squared
 
 
      Cartesian coordinates in Angstrom:
      -----------------------------------------------------
      No.  Label        X            Y            Z        
      -----------------------------------------------------
       1   O1         0.19716900   1.26269900   0.00000000
       2   O2         0.00000000   0.00000000   0.00000000
       3   O3         0.19716900  -1.26269900   0.00000000
      -----------------------------------------------------
      Nuclear repulsion energy =   66.41122291
 
++    Wave function specifications:
      -----------------------------
 
      Number of closed shell electrons          20
      Number of electrons in active shells       4
      Max number of holes in RAS1 space          0
      Max nr of electrons in RAS3 space          0
      Number of inactive orbitals               10
      Number of active orbitals                  3
      Number of secondary orbitals              29
      Spin quantum number                      0.0
      State symmetry                             1
--
 
++    Orbital specifications:
      -----------------------
 
      Symmetry species                           1
                                                 a
      Frozen orbitals                            0
      Inactive orbitals                         10
      Active orbitals                            3
      RAS1 orbitals                              0
      RAS2 orbitals                              3
      RAS3 orbitals                              0
      Secondary orbitals                        29
      Deleted orbitals                           0
      Number of basis functions                 42
--
 
++    CI expansion specifications:
      ----------------------------
 
      Number of CSFs                             6
      Number of determinants                     6
      Number of root(s) required                 1
      Root chosen for geometry opt.              1
      CI root used                               1
         
      highest root included in the CI            1
      max. size of the explicit Hamiltonian      6
--
 
++    Optimization specifications:
      ----------------------------
 
      RASSCF algorithm: Conventional
      Maximum number of macro iterations       200
      Maximum number of SX iterations          100
      Threshold for RASSCF energy            0.100E-07
      Threshold for max MO rotation          0.100E+00
      Threshold for max BLB element          0.100E-03
      Level shift parameter                  0.500E+00
      Make Quasi-Newton update
--
 
      The MO-coefficients are taken from the file:
      /home/grierjones/DDCASPT2/ozone/ANO-RCC-VDZP/ozone_162.00/ozone_162.00.RasOrb                                                   
      Title: RASSCF average (pseudo-natural) orbitals                                      
 
      Total molecular charge    0.00
 
      ************************************************************************************************************************
      *                                                                                                                      *
      *                                            Wave function control section                                             *
      *                                                                                                                      *
      ************************************************************************************************************************
 
 
                                         RASSCF iterations: Energy and convergence statistics
                                         ----------------------------------------------------
 
      Iter CI   SX   CI       RASSCF       Energy    max ROT     max BLB   max BLB  Level Ln srch  Step   QN   Walltime
          iter iter root      energy       change     param      element    value   shift minimum  type update hh:mm:ss
 Nr of preliminary CI iterations:   1
        1   1    3    1  -224.47972052    0.00E+00  -0.68E-03    7  14 1 -0.16E-02*  0.20   0.00    SX    NO    0:00:00
        2   1    3    1  -224.47972669   -0.62E-05*  0.40E-03    7  14 1 -0.92E-03*  0.20   0.00    SX    NO    0:00:00
        3   1    3    1  -224.47972810   -0.14E-05*  0.26E-03    7  14 1 -0.60E-03*  0.20   0.00    SX    NO    0:00:00
        4   1    3    1  -224.47972860   -0.50E-06*  0.13E-03    7  14 1 -0.30E-03*  0.20   0.00    SX    NO    0:00:00
        5   1    3    1  -224.47972875   -0.15E-06*  0.41E-03    7  14 1 -0.22E-03*  0.20   2.07    QN   YES    0:00:00
        6   1    3    1  -224.47972884   -0.88E-07* -0.20E-03    7  14 1  0.27E-03*  0.20   0.65    QN   YES    0:00:00
        7   1    3    1  -224.47972888   -0.45E-07* -0.55E-04    8  19 1  0.18E-03*  0.20   0.63    QN   YES    0:00:00
        8   1    3    1  -224.47972890   -0.14E-07* -0.83E-04    7  14 1  0.34E-04   0.20   2.50    LS   YES    0:00:00
        9   1    3    1  -224.47972890   -0.27E-08   0.52E-04    7  14 1  0.86E-04   0.20   0.71    QN   YES    0:00:00
      Convergence after  9 iterations
 
  Dmat in MO in SXCTL bf call to SXHAM                                                                                    
  mat. size =     3x    3
 
        1.9858609220495267
        0.0000000000006133      1.7494887722967130
        0.0012738229524674      0.0000000000014815      0.2646503056537609
       10   1    3    1  -224.47972890   -0.18E-08   0.52E-04    8  19 1  0.87E-04   0.20   0.71    QN   YES    0:00:00
 
      ************************************************************************************************************************
                                                      Wave function printout:
                       occupation of active orbitals, and spin coupling of open shells (u,d: Spin up or down)
      ************************************************************************************************************************
 
      Note: transformation to natural orbitals
      has been made, which may change the order of the CSFs.
 
      printout of CI-coefficients larger than  0.05 for root  1
      energy=    -224.479729
      conf/sym  111     Coeff  Weight
             1  220  -0.93149 0.86768
             3  202   0.35391 0.12526
             6  022   0.08408 0.00707
 
      Natural orbitals and occupation numbers for root  1
      sym 1:   1.985862   1.749489   0.264649
 
      ************************************************************************************************************************
      *                                                                                                                      *
      *                                                    Final results                                                     *
      *                                                                                                                      *
      ************************************************************************************************************************
 
 
++    Wave function specifications:
      -----------------------------
 
      Number of closed shell electrons          20
      Number of electrons in active shells       4
      Max number of holes in RAS1 space          0
      Max nr of electrons in RAS3 space          0
      Number of inactive orbitals               10
      Number of active orbitals                  3
      Number of secondary orbitals              29
      Spin quantum number                      0.0
      State symmetry                             1
--
 
++    Orbital specifications:
      -----------------------
 
      Symmetry species                           1
                                                 a
      Frozen orbitals                            0
      Inactive orbitals                         10
      Active orbitals                            3
      RAS1 orbitals                              0
      RAS2 orbitals                              3
      RAS3 orbitals                              0
      Secondary orbitals                        29
      Deleted orbitals                           0
      Number of basis functions                 42
--
 
++    CI expansion specifications:
      ----------------------------
 
      Number of CSFs                             6
      Number of determinants                     6
      Number of root(s) required                 1
      CI root used                               1
      highest root included in the CI            1
      Root passed to geometry opt.               1
--
 
++    Final optimization conditions:
      ------------------------------
 
      Average CI energy                            -224.47972890
      RASSCF energy for state  1                   -224.47972890
      Super-CI energy                                -0.00000001
      RASSCF energy change                           -0.00000000
      Max change in MO coefficients              -0.473E-04
      Max non-diagonal density matrix element     0.525E-04
      Maximum BLB matrix element                  0.866E-04
      (orbital pair   8,  19 in symmetry   1)
      Norm of electronic gradient            0.725E-04
--
 
 
      Final state energy(ies):
      ------------------------
 
::    RASSCF root number  1 Total energy:   -224.47972890
 
++    Molecular orbitals:
      -------------------
 
      Pseudonatural active orbitals and approximate occupation numbers
 
 
 
 
      Molecular orbitals for symmetry species 1: a  
 
 
      Orbital                1         2         3         4         5         6         7         8         9        10
      Energy          -20.7668  -20.7360  -20.7360   -1.6796   -1.4533   -1.0544   -0.7995   -0.7801   -0.6153   -0.4623
      Occ. No.          2.0000    2.0000    2.0000    2.0000    2.0000    2.0000    2.0000    2.0000    2.0000    2.0000
 
    1 O1     1s         0.0094   -0.7072    0.7071   -0.0151    0.0086    0.0143   -0.0035   -0.0181    0.0055    0.0013
    2 O1     2s         0.0002   -0.0008    0.0005    0.3464   -0.5899    0.6376   -0.0722   -0.3776    0.0690   -0.0086
    3 O1     3s         0.0000   -0.0001   -0.0001   -0.0245    0.0119    0.0182   -0.0058   -0.0246    0.0064    0.0134
    4 O1     2px        0.0001    0.0001   -0.0001   -0.0135    0.0227    0.0460    0.3834   -0.1861   -0.6781    0.6392
    5 O1     3px        0.0003    0.0001    0.0000    0.0052   -0.0030   -0.0066   -0.0316    0.0100    0.0024    0.0418
    6 O1     2py       -0.0002    0.0009   -0.0010   -0.1059    0.0900    0.1916   -0.1249   -0.4244    0.1855    0.0949
    7 O1     3py        0.0000   -0.0005    0.0003    0.0252   -0.0177   -0.0264    0.0086    0.0277    0.0007   -0.0139
    8 O1     2pz        0.0000    0.0000   -0.0000    0.0000   -0.0000    0.0000   -0.0000    0.0000    0.0000   -0.0000
    9 O1     3pz        0.0000    0.0000    0.0000    0.0000   -0.0000    0.0000   -0.0000   -0.0000    0.0000   -0.0000
   10 O1     3d2-       0.0000   -0.0000    0.0001    0.0026   -0.0052   -0.0044   -0.0206    0.0112    0.0119    0.0045
   11 O1     3d1-       0.0000   -0.0000   -0.0000   -0.0000   -0.0000    0.0000   -0.0000    0.0000   -0.0000   -0.0000
   12 O1     3d0        0.0000    0.0001   -0.0002   -0.0092    0.0090    0.0069   -0.0041   -0.0167    0.0047    0.0028
   13 O1     3d1+       0.0000   -0.0000    0.0000   -0.0000    0.0000   -0.0000   -0.0000    0.0000    0.0000   -0.0000
   14 O1     3d2+      -0.0000   -0.0002    0.0001   -0.0172    0.0140    0.0148   -0.0123   -0.0294    0.0102    0.0078
   15 O2     1s         0.9999    0.0000   -0.0134   -0.0222   -0.0000   -0.0125   -0.0033    0.0000    0.0000    0.0177
   16 O2     2s         0.0002    0.0000   -0.0008    0.6430    0.0000   -0.6283   -0.0450    0.0000    0.0000    0.2279
   17 O2     3s        -0.0010    0.0000   -0.0006   -0.0318   -0.0000   -0.0171   -0.0029    0.0000    0.0000    0.0340
   18 O2     2px        0.0004    0.0000   -0.0000    0.0485    0.0000    0.0633    0.6746   -0.0000   -0.0000   -0.7513
   19 O2     3px       -0.0009    0.0000   -0.0001   -0.0103   -0.0000   -0.0078   -0.0473    0.0000   -0.0000   -0.0569
   20 O2     2py        0.0000    0.0009    0.0000    0.0000   -0.2991   -0.0000    0.0000    0.4987   -0.1130   -0.0000
   21 O2     3py        0.0000    0.0012    0.0000   -0.0000    0.0784    0.0000   -0.0000   -0.0770    0.0004   -0.0000
   22 O2     2pz       -0.0000   -0.0000   -0.0000   -0.0000    0.0000   -0.0000    0.0000    0.0000   -0.0000    0.0000
   23 O2     3pz       -0.0000   -0.0000   -0.0000   -0.0000    0.0000   -0.0000    0.0000   -0.0000   -0.0000    0.0000
   24 O2     3d2-       0.0000    0.0001    0.0000    0.0000   -0.0182   -0.0000   -0.0000    0.0135   -0.0386    0.0000
   25 O2     3d1-      -0.0000   -0.0000    0.0000   -0.0000   -0.0000    0.0000    0.0000    0.0000    0.0000   -0.0000
   26 O2     3d0       -0.0001   -0.0000    0.0003   -0.0176   -0.0000   -0.0001   -0.0096    0.0000    0.0000    0.0171
   27 O2     3d1+      -0.0000    0.0000   -0.0000    0.0000   -0.0000   -0.0000    0.0000    0.0000    0.0000    0.0000
   28 O2     3d2+       0.0001   -0.0000    0.0004   -0.0299   -0.0000    0.0000    0.0110    0.0000    0.0000    0.0196
   29 O3     1s         0.0094    0.7072    0.7071   -0.0151   -0.0086    0.0143   -0.0035    0.0181   -0.0055    0.0013
   30 O3     2s         0.0002    0.0008    0.0005    0.3464    0.5899    0.6376   -0.0722    0.3776   -0.0690   -0.0086
   31 O3     3s         0.0000    0.0001   -0.0001   -0.0245   -0.0119    0.0182   -0.0058    0.0246   -0.0064    0.0134
   32 O3     2px        0.0001   -0.0001   -0.0001   -0.0135   -0.0227    0.0460    0.3834    0.1861    0.6781    0.6392
   33 O3     3px        0.0003   -0.0001    0.0000    0.0052    0.0030   -0.0066   -0.0316   -0.0100   -0.0024    0.0418
   34 O3     2py        0.0002    0.0009    0.0010    0.1059    0.0900   -0.1916    0.1249   -0.4244    0.1855   -0.0949
   35 O3     3py       -0.0000   -0.0005   -0.0003   -0.0252   -0.0177    0.0264   -0.0086    0.0277    0.0007    0.0139
   36 O3     2pz        0.0000   -0.0000    0.0000    0.0000   -0.0000   -0.0000    0.0000   -0.0000    0.0000    0.0000
   37 O3     3pz        0.0000    0.0000   -0.0000    0.0000   -0.0000   -0.0000   -0.0000    0.0000    0.0000   -0.0000
   38 O3     3d2-      -0.0000   -0.0000   -0.0001   -0.0026   -0.0052    0.0044    0.0206    0.0112    0.0119   -0.0045
   39 O3     3d1-       0.0000   -0.0000    0.0000    0.0000    0.0000    0.0000   -0.0000   -0.0000    0.0000   -0.0000
   40 O3     3d0        0.0000   -0.0001   -0.0002   -0.0092   -0.0090    0.0069   -0.0041    0.0167   -0.0047    0.0028
   41 O3     3d1+       0.0000   -0.0000    0.0000   -0.0000    0.0000    0.0000   -0.0000    0.0000   -0.0000    0.0000
   42 O3     3d2+      -0.0000    0.0002    0.0001   -0.0172   -0.0140    0.0148   -0.0123    0.0294   -0.0102    0.0078
 
 
      Orbital               11        12        13        14        15        16        17        18        19        20
      Energy            0.0000    0.0000    0.0000    0.1546    0.2879    0.4669    0.4736    0.5217    0.6470    0.6778
      Occ. No.          1.9859    1.7495    0.2646    0.0000    0.0000    0.0000    0.0000    0.0000    0.0000    0.0000
 
    1 O1     1s        -0.0000   -0.0000   -0.0000   -0.0295   -0.1626    0.0000   -0.0213    0.0315   -0.0344    0.0087
    2 O1     2s         0.0000   -0.0000   -0.0000   -0.3567   -1.1780    0.0000   -0.1460    0.2317   -0.0883    0.0188
    3 O1     3s        -0.0000   -0.0000    0.0000   -0.0172   -0.4222    0.0000   -0.0810    0.2112   -0.1149    0.0424
    4 O1     2px       -0.0000   -0.0000    0.0000   -0.0451    0.1457    0.0000   -0.0570   -0.0792   -0.0870   -0.0696
    5 O1     3px        0.0000    0.0000   -0.0000   -0.0151    0.1232   -0.0000    0.4565    0.1058   -0.2056   -0.8015
    6 O1     2py        0.0000    0.0000    0.0000    0.8013    0.5693   -0.0000    0.1000   -0.2436   -0.4590    0.1435
    7 O1     3py        0.0000    0.0000    0.0000    0.1841    0.6476   -0.0000    0.2152   -0.8047    0.0764   -0.0227
    8 O1     2pz        0.3200   -0.7045    0.6683    0.0000   -0.0000    0.0208    0.0000    0.0000   -0.0000   -0.0000
    9 O1     3pz       -0.0296   -0.0091   -0.0590   -0.0000   -0.0000    0.4881    0.0000   -0.0000   -0.0000   -0.0000
   10 O1     3d2-      -0.0000    0.0000   -0.0000   -0.0080   -0.0109   -0.0000    0.0256   -0.0038   -0.0551   -0.0062
   11 O1     3d1-      -0.0296    0.0196    0.0083   -0.0000    0.0000    0.0346    0.0000   -0.0000   -0.0000   -0.0000
   12 O1     3d0        0.0000   -0.0000    0.0000   -0.0010    0.0192   -0.0000    0.0068    0.0032    0.0626   -0.0195
   13 O1     3d1+      -0.0037    0.0018    0.0012   -0.0000    0.0000    0.0067   -0.0000   -0.0000    0.0000    0.0000
   14 O1     3d2+       0.0000   -0.0000    0.0000   -0.0057    0.0313   -0.0000    0.0235    0.0019    0.0961   -0.0302
   15 O2     1s         0.0000   -0.0000   -0.0000    0.1186    0.0000   -0.0000    0.0672   -0.1695    0.0000   -0.0000
   16 O2     2s        -0.0000    0.0000    0.0000    1.1288    0.0000   -0.0000    0.4103   -1.0041    0.0000   -0.0000
   17 O2     3s         0.0000   -0.0000    0.0000    0.2676   -0.0000   -0.0000    0.1725   -0.3311   -0.0000    0.0000
   18 O2     2px       -0.0000    0.0000   -0.0000    0.3650   -0.0000    0.0000   -0.1022   -0.0672   -0.0000   -0.0000
   19 O2     3px       -0.0000   -0.0000   -0.0000    0.0851   -0.0000   -0.0000    0.4216   -0.0196   -0.0000   -0.0000
   20 O2     2py       -0.0000    0.0000    0.0000   -0.0000    1.3163    0.0000    0.0000   -0.0000   -0.4159    0.1223
   21 O2     3py        0.0000    0.0000   -0.0000   -0.0000    1.1084    0.0000   -0.0000    0.0000    0.7201   -0.2063
   22 O2     2pz        0.7646    0.0000   -0.6805    0.0000    0.0000   -0.2795   -0.0000    0.0000   -0.0000    0.0000
   23 O2     3pz       -0.0063    0.0000   -0.0735   -0.0000    0.0000    0.3447    0.0000   -0.0000    0.0000    0.0000
   24 O2     3d2-       0.0000    0.0000    0.0000   -0.0000    0.0272   -0.0000    0.0000    0.0000    0.0520    0.0444
   25 O2     3d1-       0.0000   -0.0458   -0.0000    0.0000   -0.0000    0.0000   -0.0000   -0.0000    0.0000    0.0000
   26 O2     3d0       -0.0000    0.0000   -0.0000    0.0350   -0.0000    0.0000   -0.0305    0.0965   -0.0000    0.0000
   27 O2     3d1+       0.0166   -0.0000   -0.0100    0.0000    0.0000   -0.0141   -0.0000    0.0000   -0.0000   -0.0000
   28 O2     3d2+      -0.0000    0.0000    0.0000    0.0636   -0.0000    0.0000   -0.0725    0.1443   -0.0000    0.0000
   29 O3     1s         0.0000    0.0000    0.0000   -0.0295    0.1626    0.0000   -0.0213    0.0315    0.0344   -0.0087
   30 O3     2s         0.0000    0.0000   -0.0000   -0.3567    1.1780    0.0000   -0.1460    0.2317    0.0883   -0.0188
   31 O3     3s        -0.0000    0.0000   -0.0000   -0.0172    0.4222    0.0000   -0.0810    0.2112    0.1149   -0.0424
   32 O3     2px       -0.0000   -0.0000   -0.0000   -0.0451   -0.1457    0.0000   -0.0570   -0.0792    0.0870    0.0696
   33 O3     3px        0.0000    0.0000    0.0000   -0.0151   -0.1232   -0.0000    0.4565    0.1058    0.2056    0.8015
   34 O3     2py       -0.0000   -0.0000   -0.0000   -0.8013    0.5693    0.0000   -0.1000    0.2436   -0.4590    0.1435
   35 O3     3py       -0.0000   -0.0000   -0.0000   -0.1841    0.6476    0.0000   -0.2152    0.8047    0.0764   -0.0227
   36 O3     2pz        0.3200    0.7045    0.6683   -0.0000   -0.0000    0.0208   -0.0000    0.0000    0.0000   -0.0000
   37 O3     3pz       -0.0296    0.0091   -0.0590   -0.0000   -0.0000    0.4881    0.0000   -0.0000    0.0000    0.0000
   38 O3     3d2-       0.0000   -0.0000    0.0000    0.0080   -0.0109    0.0000   -0.0256    0.0038   -0.0551   -0.0062
   39 O3     3d1-       0.0296    0.0196   -0.0083    0.0000    0.0000   -0.0346   -0.0000    0.0000   -0.0000   -0.0000
   40 O3     3d0        0.0000    0.0000    0.0000   -0.0010   -0.0192   -0.0000    0.0068    0.0032   -0.0626    0.0195
   41 O3     3d1+      -0.0037   -0.0018    0.0012    0.0000    0.0000    0.0067    0.0000   -0.0000    0.0000    0.0000
   42 O3     3d2+       0.0000   -0.0000    0.0000   -0.0057   -0.0313   -0.0000    0.0235    0.0019   -0.0961    0.0302
 
 
      Orbital               21        22        23        24        25        26        27        28        29        30
      Energy            0.6863    0.8559    1.0081    1.0241    1.0555    1.6901    1.7271    1.7275    1.7317    2.0147
      Occ. No.          0.0000    0.0000    0.0000    0.0000    0.0000    0.0000    0.0000    0.0000    0.0000    0.0000
 
    1 O1     1s         0.0000   -0.0198   -0.0183    0.0000    0.0948   -0.0000   -0.0023   -0.0000   -0.0551   -0.1089
    2 O1     2s         0.0000   -0.1040   -0.0991    0.0000    0.5560   -0.0000   -0.0193   -0.0000   -0.4152   -0.8282
    3 O1     3s         0.0000    0.4537   -0.0396   -0.0000   -0.0482    0.0000   -0.0225   -0.0000   -0.6184   -0.9319
    4 O1     2px        0.0000   -0.0125   -0.4680   -0.0000   -0.1332   -0.0000    0.0435    0.0000    0.1749    0.0599
    5 O1     3px        0.0000    0.0066   -0.9032   -0.0000   -0.1027   -0.0000    0.0263    0.0000    0.0307    0.0931
    6 O1     2py        0.0000   -0.0402    0.0379   -0.0000   -0.0324   -0.0000    0.0108    0.0000    0.1166    0.5586
    7 O1     3py       -0.0000    0.3095    0.0155    0.0000    0.6851   -0.0000    0.0116    0.0000    0.2156    0.5848
    8 O1     2pz       -0.0871    0.0000   -0.0000    0.5049   -0.0000   -0.1776    0.0000   -0.0396    0.0000   -0.0000
    9 O1     3pz       -0.8281    0.0000   -0.0000    0.9070   -0.0000    0.0297    0.0000   -0.0288   -0.0000    0.0000
   10 O1     3d2-       0.0000   -0.0319   -0.0439   -0.0000   -0.0220   -0.0000    0.1539    0.0000    0.3976   -0.1193
   11 O1     3d1-      -0.0269    0.0000   -0.0000    0.0326   -0.0000   -0.4392    0.0000   -0.1559    0.0000   -0.0000
   12 O1     3d0       -0.0000    0.0491    0.0289   -0.0000   -0.0658   -0.0000    0.3713    0.0000   -0.0657   -0.0126
   13 O1     3d1+      -0.0007    0.0000   -0.0000    0.0192   -0.0000   -0.1194   -0.0000    0.4121   -0.0000    0.0000
   14 O1     3d2+      -0.0000    0.0728    0.0102   -0.0000   -0.1213    0.0000   -0.1802   -0.0000    0.1298   -0.1047
   15 O2     1s         0.0000    0.0118   -0.0080   -0.0000    0.0000    0.0000    0.0067    0.0000    0.0000    0.2654
   16 O2     2s        -0.0000    0.0558   -0.0239   -0.0000    0.0000   -0.0000    0.0465    0.0000    0.0000    1.9001
   17 O2     3s         0.0000    0.5646   -0.0193   -0.0000    0.0000   -0.0000    0.0439    0.0000    0.0000    1.8974
   18 O2     2px        0.0000    0.0038    0.6549    0.0000    0.0000   -0.0000    0.0362    0.0000   -0.0000    0.0660
   19 O2     3px        0.0000   -0.0007    1.6182    0.0000    0.0000    0.0000   -0.0533   -0.0000   -0.0000    0.1009
   20 O2     2py        0.0000    0.0000   -0.0000   -0.0000   -0.8069   -0.0000   -0.0000    0.0000    0.3973    0.0000
   21 O2     3py       -0.0000    0.0000   -0.0000   -0.0000   -1.0202    0.0000   -0.0000    0.0000    0.4948    0.0000
   22 O2     2pz       -0.0000   -0.0000    0.0000   -0.6704    0.0000    0.0000    0.0000   -0.0382    0.0000   -0.0000
   23 O2     3pz       -0.0000   -0.0000    0.0000   -1.6498    0.0000    0.0000   -0.0000    0.0639   -0.0000   -0.0000
   24 O2     3d2-      -0.0000    0.0000    0.0000    0.0000    0.1298   -0.0000    0.0000   -0.0000   -0.4850    0.0000
   25 O2     3d1-       0.0796   -0.0000   -0.0000   -0.0000    0.0000    0.5733    0.0000    0.0000    0.0000   -0.0000
   26 O2     3d0       -0.0000    0.0491    0.0441    0.0000    0.0000   -0.0000    0.5647    0.0000    0.0000    0.0893
   27 O2     3d1+       0.0000    0.0000   -0.0000    0.0306   -0.0000   -0.0000   -0.0000    0.6598   -0.0000   -0.0000
   28 O2     3d2+      -0.0000    0.0709    0.0184    0.0000   -0.0000    0.0000   -0.3412   -0.0000   -0.0000    0.1712
   29 O3     1s        -0.0000   -0.0198   -0.0183   -0.0000   -0.0948   -0.0000   -0.0023    0.0000    0.0551   -0.1089
   30 O3     2s        -0.0000   -0.1040   -0.0991   -0.0000   -0.5560    0.0000   -0.0193    0.0000    0.4152   -0.8282
   31 O3     3s        -0.0000    0.4537   -0.0396    0.0000    0.0482   -0.0000   -0.0225    0.0000    0.6184   -0.9319
   32 O3     2px       -0.0000   -0.0125   -0.4680   -0.0000    0.1332   -0.0000    0.0435    0.0000   -0.1749    0.0599
   33 O3     3px       -0.0000    0.0066   -0.9032   -0.0000    0.1027    0.0000    0.0263    0.0000   -0.0307    0.0931
   34 O3     2py        0.0000    0.0402   -0.0379   -0.0000   -0.0324   -0.0000   -0.0108   -0.0000    0.1166   -0.5586
   35 O3     3py       -0.0000   -0.3095   -0.0155    0.0000    0.6851    0.0000   -0.0116    0.0000    0.2156   -0.5848
   36 O3     2pz        0.0871    0.0000   -0.0000    0.5049   -0.0000    0.1776    0.0000   -0.0396    0.0000   -0.0000
   37 O3     3pz        0.8281   -0.0000   -0.0000    0.9070   -0.0000   -0.0297    0.0000   -0.0288    0.0000    0.0000
   38 O3     3d2-       0.0000    0.0319    0.0439    0.0000   -0.0220    0.0000   -0.1539   -0.0000    0.3976    0.1193
   39 O3     3d1-      -0.0269   -0.0000    0.0000   -0.0326    0.0000   -0.4392   -0.0000    0.1559   -0.0000   -0.0000
   40 O3     3d0        0.0000    0.0491    0.0289    0.0000    0.0658   -0.0000    0.3713    0.0000    0.0657   -0.0126
   41 O3     3d1+       0.0007   -0.0000   -0.0000    0.0192   -0.0000    0.1194   -0.0000    0.4121   -0.0000   -0.0000
   42 O3     3d2+       0.0000    0.0728    0.0102    0.0000    0.1213   -0.0000   -0.1802   -0.0000   -0.1298   -0.1047
 
 
      Orbital               31        32        33        34        35        36        37        38        39        40
      Energy            2.0166    2.0963    2.0976    2.4322    2.4358    2.6358    2.7431    2.7816    2.9896    3.5797
      Occ. No.          0.0000    0.0000    0.0000    0.0000    0.0000    0.0000    0.0000    0.0000    0.0000    0.0000
 
    1 O1     1s        -0.2662    0.0000    0.0229    0.0366    0.0000    0.0303    0.0000   -0.0495    0.0311    0.0000
    2 O1     2s        -1.8119    0.0000    0.1515    0.2360    0.0000    0.0869   -0.0000   -0.4051    0.3501    0.0000
    3 O1     3s        -1.5965    0.0000    0.1113    0.1329    0.0000   -0.1889   -0.0000   -0.4033    0.4252    0.0000
    4 O1     2px        0.1413   -0.0000   -0.0104    0.0985    0.0000    0.1213   -0.0000   -0.2416   -0.0855    0.0000
    5 O1     3px        0.1964   -0.0000   -0.0369    0.2116    0.0000    0.2323   -0.0000   -0.3373   -0.0590    0.0000
    6 O1     2py        0.6233   -0.0000   -0.0490   -0.1396   -0.0000    0.0471    0.0000    0.3450   -0.4172   -0.0000
    7 O1     3py        0.1165    0.0000    0.0101   -0.0596   -0.0000    0.2579    0.0000    0.3339   -0.4124   -0.0000
    8 O1     2pz        0.0000    0.0023   -0.0000    0.0000   -0.1192   -0.0000   -0.3160    0.0000    0.0000   -0.3305
    9 O1     3pz        0.0000   -0.0208    0.0000    0.0000   -0.2084   -0.0000   -0.4368    0.0000    0.0000   -0.2045
   10 O1     3d2-      -0.1764    0.0000    0.1879   -0.3086   -0.0000   -0.3880    0.0000    0.5558    0.2971   -0.0000
   11 O1     3d1-      -0.0000    0.1700   -0.0000   -0.0000    0.3111    0.0000    0.7380   -0.0000    0.0000    0.6667
   12 O1     3d0        0.0583    0.0000    0.6072    0.4879    0.0000    0.1164    0.0000    0.3378   -0.4092   -0.0000
   13 O1     3d1+       0.0000   -0.6891    0.0000   -0.0000    0.5761    0.0000   -0.1329    0.0000   -0.0000    0.1445
   14 O1     3d2+      -0.1003   -0.0000   -0.3117   -0.2805   -0.0000    0.4992    0.0000    0.4052   -0.6355   -0.0000
   15 O2     1s        -0.0000    0.0000    0.0000   -0.0275   -0.0000    0.1401    0.0000    0.1764   -0.0000   -0.0000
   16 O2     2s        -0.0000    0.0000    0.0000   -0.2710   -0.0000    0.7010    0.0000    1.1436   -0.0000    0.0000
   17 O2     3s        -0.0000    0.0000    0.0000   -0.3848   -0.0000   -0.0866    0.0000    0.6314    0.0000   -0.0000
   18 O2     2px       -0.0000    0.0000    0.0000   -0.4145   -0.0000   -0.2398    0.0000    0.7723   -0.0000   -0.0000
   19 O2     3px       -0.0000   -0.0000    0.0000   -0.3848   -0.0000   -0.3729    0.0000    0.6794   -0.0000    0.0000
   20 O2     2py        1.9666   -0.0000   -0.1731   -0.0000   -0.0000   -0.0000   -0.0000   -0.0000   -0.7662   -0.0000
   21 O2     3py        2.1279   -0.0000   -0.1825    0.0000   -0.0000    0.0000   -0.0000   -0.0000    0.2600   -0.0000
   22 O2     2pz       -0.0000    0.0000    0.0000   -0.0000    0.3978    0.0000    0.7621   -0.0000    0.0000    0.0000
   23 O2     3pz       -0.0000    0.0000    0.0000   -0.0000    0.3341    0.0000    0.7445   -0.0000    0.0000    0.0000
   24 O2     3d2-       0.2878   -0.0000   -0.0465    0.0000    0.0000    0.0000    0.0000   -0.0000    0.0900   -0.0000
   25 O2     3d1-       0.0000   -0.0183    0.0000    0.0000   -0.0000    0.0000   -0.0000    0.0000   -0.0000    1.1006
   26 O2     3d0       -0.0000   -0.0000    0.0000   -0.4322   -0.0000    0.5097   -0.0000   -0.3034   -0.0000    0.0000
   27 O2     3d1+      -0.0000   -0.0000    0.0000    0.0000   -0.5811    0.0000    0.5370   -0.0000    0.0000    0.0000
   28 O2     3d2+      -0.0000    0.0000   -0.0000    0.3728    0.0000    0.1972    0.0000    0.3569   -0.0000    0.0000
   29 O3     1s         0.2662   -0.0000   -0.0229    0.0366    0.0000    0.0303   -0.0000   -0.0495   -0.0311   -0.0000
   30 O3     2s         1.8119   -0.0000   -0.1515    0.2360    0.0000    0.0869   -0.0000   -0.4051   -0.3501   -0.0000
   31 O3     3s         1.5965   -0.0000   -0.1113    0.1329    0.0000   -0.1889   -0.0000   -0.4033   -0.4252   -0.0000
   32 O3     2px       -0.1413    0.0000    0.0104    0.0985    0.0000    0.1213   -0.0000   -0.2416    0.0855   -0.0000
   33 O3     3px       -0.1964    0.0000    0.0369    0.2116    0.0000    0.2323   -0.0000   -0.3373    0.0590   -0.0000
   34 O3     2py        0.6233   -0.0000   -0.0490    0.1396    0.0000   -0.0471   -0.0000   -0.3450   -0.4172   -0.0000
   35 O3     3py        0.1165    0.0000    0.0101    0.0596    0.0000   -0.2579   -0.0000   -0.3339   -0.4124   -0.0000
   36 O3     2pz        0.0000   -0.0023    0.0000    0.0000   -0.1192   -0.0000   -0.3160    0.0000   -0.0000    0.3305
   37 O3     3pz        0.0000    0.0208   -0.0000    0.0000   -0.2084   -0.0000   -0.4368    0.0000   -0.0000    0.2045
   38 O3     3d2-      -0.1764    0.0000    0.1879    0.3086    0.0000    0.3880   -0.0000   -0.5558    0.2971   -0.0000
   39 O3     3d1-      -0.0000    0.1700   -0.0000    0.0000   -0.3111   -0.0000   -0.7380    0.0000   -0.0000    0.6667
   40 O3     3d0       -0.0583   -0.0000   -0.6072    0.4879    0.0000    0.1164    0.0000    0.3378    0.4092    0.0000
   41 O3     3d1+      -0.0000    0.6891   -0.0000   -0.0000    0.5761    0.0000   -0.1329    0.0000    0.0000   -0.1445
   42 O3     3d2+       0.1003    0.0000    0.3117   -0.2805   -0.0000    0.4992    0.0000    0.4052    0.6355    0.0000
 
 
      Orbital               41        42
      Energy            3.5833    4.4060
      Occ. No.          0.0000    0.0000
 
    1 O1     1s        -0.0343    0.2324
    2 O1     2s        -0.2168    1.5367
    3 O1     3s        -0.0801    0.7792
    4 O1     2px       -0.2905   -0.2720
    5 O1     3px       -0.1960   -0.1254
    6 O1     2py        0.2037   -1.1201
    7 O1     3py        0.0527   -0.4747
    8 O1     2pz       -0.0000    0.0000
    9 O1     3pz       -0.0000   -0.0000
   10 O1     3d2-       0.5837    0.3343
   11 O1     3d1-       0.0000   -0.0000
   12 O1     3d0        0.0405   -0.3408
   13 O1     3d1+       0.0000    0.0000
   14 O1     3d2+       0.3424   -0.5057
   15 O2     1s         0.0000   -0.4196
   16 O2     2s         0.0000   -2.9619
   17 O2     3s         0.0000   -1.9003
   18 O2     2px        0.0000   -0.1559
   19 O2     3px        0.0000    0.0008
   20 O2     2py        0.1984   -0.0000
   21 O2     3py        0.0310   -0.0000
   22 O2     2pz       -0.0000    0.0000
   23 O2     3pz       -0.0000    0.0000
   24 O2     3d2-       1.1073    0.0000
   25 O2     3d1-       0.0000   -0.0000
   26 O2     3d0       -0.0000    0.6971
   27 O2     3d1+      -0.0000    0.0000
   28 O2     3d2+       0.0000    1.2195
   29 O3     1s         0.0343    0.2324
   30 O3     2s         0.2168    1.5367
   31 O3     3s         0.0801    0.7792
   32 O3     2px        0.2905   -0.2720
   33 O3     3px        0.1960   -0.1254
   34 O3     2py        0.2037    1.1201
   35 O3     3py        0.0527    0.4747
   36 O3     2pz        0.0000   -0.0000
   37 O3     3pz        0.0000   -0.0000
   38 O3     3d2-       0.5837   -0.3343
   39 O3     3d1-       0.0000   -0.0000
   40 O3     3d0       -0.0405   -0.3408
   41 O3     3d1+      -0.0000    0.0000
   42 O3     3d2+      -0.3424   -0.5057
--
 
      Von Neumann Entropy (Root  1) =  0.56515
 

      Mulliken population analysis for root number:  1
      -----------------------------------------------
 
 
++    Molecular charges:
      ------------------
 
      Mulliken charges per centre and basis function type
      ---------------------------------------------------
 
                O1      O2      O3    
      1s       2.0003  2.0000  2.0003
      2s       1.9320  1.6758  1.9320
      2px      2.0000  1.8819  2.0000
      2pz      1.2590  1.4424  1.2590
      2py      0.8336  0.9301  0.8336
      3s      -0.0125 -0.0252 -0.0125
      3px     -0.0223 -0.0519 -0.0223
      3pz     -0.0089 -0.0064 -0.0089
      3py     -0.0109  0.0139 -0.0109
      3d2+     0.0198  0.0225  0.0198
      3d1+     0.0003  0.0013  0.0003
      3d0      0.0057  0.0067  0.0057
      3d1-     0.0144  0.0333  0.0144
      3d2-     0.0113  0.0321  0.0113
      Total    8.0217  7.9566  8.0217
 
      N-E     -0.0217  0.0434 -0.0217
 
      Total electronic charge=   24.000000
 
      Total            charge=   -0.000000
--
 
 

      Expectation values of various properties for root number:  1
      -----------------------------------------------------------
 
 
++    Molecular properties:
      ---------------------
 
      Charge (e):
                      =   -0.0000
      Dipole Moment (Debye):
      Origin of the operator (Ang)=    0.0000    0.0000    0.0000
                   X=  2.0678E-01               Y=  4.9491E-11               Z=  1.9141E-13           Total=  2.0678E-01
      Quadrupole Moment (Debye*Ang):
      Origin of the operator (Ang)=    0.1314    0.0000    0.0000
                  XX= -1.6397E+01              XY=  6.6139E-12              XZ=  1.1253E-13              YY= -1.5908E+01
                  YZ=  3.2624E-13              ZZ= -1.4773E+01
      In traceless form (Debye*Ang)
                  XX= -1.0566E+00              XY=  9.9209E-12              XZ=  1.6879E-13              YY= -3.2333E-01
                  YZ=  4.8935E-13              ZZ=  1.3800E+00
--
 

      LoProp population analysis for root number:  1
      -----------------------------------------------
 
 
++    LoProp analysis:
      ----------------
 
 
 
  Input file to MOLDEN was generated!
 
 
++    Static properties:
      ------------------
 
 
      LoProp Charges per center
 

                   O1       O2       O3    
      Nuclear      8.0000   8.0000   8.0000
      Electronic  -8.0566  -7.8869  -8.0566
 
      Total       -0.0566   0.1131  -0.0566
--
 
 
      Natural Bond Order analysis for root number:  1
 
++    Natural Bond Order analysis
      ---------------------------
      Based on LoProp computed density
      -------------------------------------------------------------------------------------
      Atom A       Atom B       Bond Order | Atom A       Atom B       Bond Order
        O1           O2             1.968  |   O2           O3             1.968
      -------------------------------------------------------------------------------------
      NBO located     16.000 core electrons.
      NBO located      7.872 electrons involved in    2 bonds.
      The remaining    0.128 electrons are to be considered as diffuse
--
 
--
 
 
  Input file to MOLDEN was generated!
 
      Average orbitals are written to the RASORB file
      Natural orbitals for root   1 are written to the RASORB.1 file
      Spin density orbitals for root   1 are written to the SPDORB.1 file
 
forrtl: warning (525): IEEE_DIVIDE_BY_ZERO is signaling
forrtl: warning (526): IEEE_INVALID is signaling
forrtl: warning (528): IEEE_UNDERFLOW is signaling
--- Stop Module: rasscf at Fri Jan 24 17:41:07 2025 /rc=_RC_ALL_IS_WELL_ ---
*** files: ozone_162.25.LprOrb ozone_162.25.rasscf.molden ozone_162.25.LoProp.molden ozone_162.25.RasOrb ozone_162.25.RasOrb.1 ozone_162.25.rasscf.h5 ozone_162.25.SpdOrb.1 xmldump
    saved to directory /home/grierjones/DDCASPT2/ozone/ANO-RCC-VDZP/ozone_162.25

>>> COPY /tmp/ozone_162.25/ozone_162.25.rasscf.h5 /home/grierjones/DDCASPT2/ozone/ANO-RCC-VDZP/ozone_162.25/

>>> COPY /tmp/ozone_162.25/GMJ_Fock_MO.csv /home/grierjones/DDCASPT2/ozone/ANO-RCC-VDZP/ozone_162.25/ozone_162.25.GMJ_Fock_MO.csv

>>> COPY /tmp/ozone_162.25/GMJ_PT2_Fock_MO.csv /home/grierjones/DDCASPT2/ozone/ANO-RCC-VDZP/ozone_162.25/ozone_162.25.GMJ_PT2_Fock_MO.csv

*** symbolic link created: INPORB -> ozone_162.25.RasOrb
--- Start Module: motra at Fri Jan 24 17:41:07 2025 ---
 
()()()()()()()()()()()()()()()()()()()()()()()()()()()()()()()()()()()()()()()()()()()()()()()()()()

                                               &MOTRA

                                   only a single process is used
                       available to each process: 2.0 GB of memory, 1 thread?
()()()()()()()()()()()()()()()()()()()()()()()()()()()()()()()()()()()()()()()()()()()()()()()()()()
 
 
      *** WARNING: Default frozen orbitals is overwritten by user input.
      *** Default values:   3
 
      Header of the integral files:
      
       Integrals generated by seward 4.2.0  , Fri Jan 24 17:41:05 2025
 
 
      Header of MO coefficients source file:
      * RASSCF average (pseudo-natural) orbitals                                      
 
 
      Cartesian coordinates in Angstrom:
      -----------------------------------------------------
      No.  Label        X            Y            Z        
      -----------------------------------------------------
       1   O1         0.19716900   1.26269900   0.00000000
       2   O2         0.00000000   0.00000000   0.00000000
       3   O3         0.19716900  -1.26269900   0.00000000
      -----------------------------------------------------
      Nuclear repulsion energy =   66.41122291
 
      Orbital specifications:
      -----------------------
 
      Symmetry species:              1
      Number of basis functions:    42
      Frozen orbitals:               0
      Deleted orbitals:              0
      Number of orbitals used:      42

       SYMMETRY  BASIS FUNCTIONS       ORBITALS      INTEGRALS   CPU(SEC)  I/O(SEC)
 
        1 1 1 1   42  42  42  42    42  42  42  42      408156       0.00      0.00

       TOTAL CPU TIME(SEC)    0.34TOTAL I/O TIME(SEC)    0.76
 
--- Stop Module: motra at Fri Jan 24 17:41:08 2025 /rc=_RC_ALL_IS_WELL_ ---
*** files: xmldump
    saved to directory /home/grierjones/DDCASPT2/ozone/ANO-RCC-VDZP/ozone_162.25

>>> COPY /tmp/ozone_162.25/GMJ_one_int_indx.csv /home/grierjones/DDCASPT2/ozone/ANO-RCC-VDZP/ozone_162.25/ozone_162.25.GMJ_one_int_indx.csv

>>> COPY /tmp/ozone_162.25/GMJ_one_int.csv /home/grierjones/DDCASPT2/ozone/ANO-RCC-VDZP/ozone_162.25/ozone_162.25.GMJ_one_int.csv

>>> COPY /tmp/ozone_162.25/GMJ_two_int_indx.csv /home/grierjones/DDCASPT2/ozone/ANO-RCC-VDZP/ozone_162.25/ozone_162.25.GMJ_two_int_indx.csv

>>> COPY /tmp/ozone_162.25/GMJ_two_int.csv /home/grierjones/DDCASPT2/ozone/ANO-RCC-VDZP/ozone_162.25/ozone_162.25.GMJ_two_int.csv

*** symbolic link created: INPORB -> ozone_162.25.RasOrb
--- Start Module: caspt2 at Fri Jan 24 17:41:08 2025 ---
 
()()()()()()()()()()()()()()()()()()()()()()()()()()()()()()()()()()()()()()()()()()()()()()()()()()

                                              &CASPT2

                                   only a single process is used
                       available to each process: 2.0 GB of memory, 1 thread?
()()()()()()()()()()()()()()()()()()()()()()()()()()()()()()()()()()()()()()()()()()()()()()()()()()
 
 Cholesky algorithm in CASPT2 =    1
 
 ###############################################################################
 ###############################################################################
 ###                                                                         ###
 ###                                                                         ###
 ###    User changed nr of frozen orbitals.                                  ###
 ###                                                                         ###
 ###                                                                         ###
 ###############################################################################
 ###############################################################################
 
++    Wave function specifications:
      -----------------------------
 
      Number of closed shell electrons          20
      Number of electrons in active shells       4
      Max number of holes in RAS1 space          0
      Max number of electrons in RAS3 space      0
      Number of inactive orbitals               10
      Number of active orbitals                  3
      Number of secondary orbitals              29
      Spin quantum number                      0.0
      State symmetry                             1
      Number of CSFs                             6
      Number of root(s) available                1
      Root passed to geometry opt.               1
      A file JOBMIX will be created.
      This is a CASSCF or RASSCF reference function
--
 
++    Orbital specifications:
      -----------------------
 
      Symmetry species                           1
                                                 a
      Frozen orbitals                            0
      Inactive orbitals                         10
      Active orbitals                            3
      Secondary orbitals                        29
      Deleted orbitals                           0
      Number of basis functions                 42
--
 
      Type of Fock operator: STANDARD
      Type of 0-order Hamiltonian: STANDARD WITH DEFAULT IPEA
        "IP-EA" denominator shift =      0.25
      The input orbitals and the CI vector will be transformed.
 
--------------------------------------------------------------------------------
 Estimated memory requirements:
  POLY3 :                   250202
  RHS:                      279634
  SIGMA :                   302200
  PRPCTL:                        0
 Available workspace:    230396563
 
++ CASPT2 computation for group   1
 
********************************************************************************
 Multi-State initialization phase begins for group   1
--------------------------------------------------------------------------------
********************************************************************************
 Compute H0 matrices for state    1
--------------------------------------------------------------------------------
--------------------------------------------------------------------------------
 H0 matrices have been computed.
 
********************************************************************************
  CASPT2 EQUATION SOLUTION
--------------------------------------------------------------------------------
 
  Total nr of CASPT2 parameters:
   Before reduction:       86691
   After  reduction:       82880
 
 The contributions to the second order correlation energy in atomic units.
-----------------------------------------------------------------------------------------------------------------------------
  IT.      VJTU        VJTI        ATVX        AIVX        VJAI        BVAT        BJAT        BJAI        TOTAL       RNORM  
-----------------------------------------------------------------------------------------------------------------------------
   1    -0.000000   -0.001530   -0.015004   -0.101451   -0.016985   -0.017020   -0.122001   -0.263167   -0.537158    0.002170
   2    -0.000000   -0.001549   -0.015058   -0.101799   -0.017002   -0.017024   -0.122018   -0.263170   -0.537619    0.000176
   3    -0.000000   -0.001549   -0.015058   -0.101803   -0.017002   -0.017024   -0.122019   -0.263170   -0.537625    0.000024
   4    -0.000000   -0.001549   -0.015058   -0.101801   -0.017002   -0.017024   -0.122019   -0.263170   -0.537622    0.000003
-------------------------------------------------------------------------------------------------------------------
 
  FINAL CASPT2 RESULT:
 
  Correlation energy /Case, /Symm, and sums:
 VJTU     -0.00000000 -0.00000000
 VJTIP    -0.00154908 -0.00154908
 VJTIM     0.00000000  0.00000000
 ATVX     -0.01505771 -0.01505771
 AIVX     -0.10180044 -0.10180044
 VJAIP    -0.01183044 -0.01183044
 VJAIM    -0.00517126 -0.00517126
 BVATP    -0.01614653 -0.01614653
 BVATM    -0.00087793 -0.00087793
 BJATP    -0.04547053 -0.04547053
 BJATM    -0.07654806 -0.07654806
 BJAIP    -0.17716473 -0.17716473
 BJAIM    -0.08600512 -0.08600512
 Summed:  -0.53762184 -0.53762184
 
      Reference energy:        -224.4797288996
      E2 (Non-variational):      -0.5376218386
      E2 (Variational):          -0.5376218664
      Total energy:            -225.0173507659
      Residual norm:              0.0000002935
      Reference weight:           0.85470
 
      Contributions to the CASPT2 correlation energy
      Active & Virtual Only:         -0.0320821682
      One Inactive Excited:          -0.2238190296
      Two Inactive Excited:          -0.2817206408
 
 
++ Denominators, etc.
----------------------------------------------------------------------------------------------------
 Report on small energy denominators, large coefficients, and large energy contributions.
CASE  SYMM ACTIVE-MIX  NON-ACTIVE INDICES          DENOMINATOR     RHS VALUE       COEFFICIENT     CONTRIBUTION
ATVX     1  Mu1.0006  Se1.016                       1.89732002     -0.06816568      0.03663428     -0.00249720
ATVX     1  Mu1.0005  Se1.021                       1.85782788     -0.10718262      0.05655210     -0.00606140
ATVX     1  Mu1.0006  Se1.024                       2.45449564      0.06156319     -0.02511021     -0.00154586
ATVX     1  Mu1.0005  Se1.026                       2.86167830      0.07705121     -0.02701244     -0.00208134
AIVX     1  Mu1.0005  In1.004 Se1.014               2.62067125      0.08401114     -0.03205289     -0.00269280
AIVX     1  Mu1.0003  In1.005 Se1.014               2.07190216      0.06588819     -0.03133683     -0.00206473
AIVX     1  Mu1.0004  In1.006 Se1.014               1.83769900      0.05705070     -0.03134540     -0.00178828
AIVX     1  Mu1.0005  In1.006 Se1.014               1.99550367     -0.05435529      0.02766374     -0.00150367
AIVX     1  Mu1.0004  In1.007 Se1.014               1.58277814     -0.05003988      0.03189694     -0.00159612
AIVX     1  Mu1.0002  In1.008 Se1.014               1.30195838     -0.10579783      0.08055468     -0.00852251
AIVX     1  Mu1.0003  In1.008 Se1.014               1.39874143     -0.05836683      0.04140554     -0.00241671
AIVX     1  Mu1.0002  In1.009 Se1.014               1.13713653      0.05291383     -0.04602626     -0.00243543
AIVX     1  Mu1.0003  In1.009 Se1.014               1.23391958      0.03494779     -0.02808649     -0.00098156
AIVX     1  Mu1.0002  In1.009 Se1.017               1.45612056      0.04768276     -0.03174626     -0.00151375
AIVX     1  Mu1.0004  In1.010 Se1.017               1.56458977     -0.05818280      0.03708342     -0.00215762
AIVX     1  Mu1.0002  In1.009 Se1.018               1.50427670      0.04164468     -0.02699784     -0.00112432
AIVX     1  Mu1.0004  In1.008 Se1.019               2.05579004      0.12086121     -0.05916423     -0.00715066
AIVX     1  Mu1.0005  In1.008 Se1.019               2.21359471     -0.07415221      0.03367247     -0.00249689
AIVX     1  Mu1.0002  In1.010 Se1.020               1.50734232      0.07103105     -0.04589561     -0.00326001
AIVX     1  Mu1.0003  In1.010 Se1.020               1.60412537      0.04787575     -0.02897177     -0.00138705
AIVX     1  Mu1.0004  In1.006 Se1.022               2.53895889     -0.06754419      0.02657226     -0.00179480
AIVX     1  Mu1.0002  In1.008 Se1.022               2.00321827      0.05148328     -0.02524528     -0.00129971
BJATM    1  Mu1.0002  In1.008 Se1.019 Se1.016       2.61971435     -0.06020430      0.02519974     -0.00151713
BJAIP    1  Se1.014 In1.006 Se1.019 In1.008         2.63611084      0.08851905     -0.03357938     -0.00297242
BJAIP    1  Se1.014 In1.008 Se1.014 In1.008         1.86938431      0.07557124     -0.04042574     -0.00305502
BJAIP    1  Se1.019 In1.008 Se1.019 In1.008         2.85420188      0.10756546     -0.03768666     -0.00405378
BJAIP    1  Se1.017 In1.007 Se1.023 In1.010         2.74351693     -0.07053315      0.02570901     -0.00181334
BJAIP    1  Se1.017 In1.009 Se1.020 In1.010         2.22893043      0.06132299     -0.02751229     -0.00168714
BJAIM    1  Se1.014 In1.008 Se1.016 In1.009         2.02354649     -0.05247144      0.02593043     -0.00136061
--
 
   (Skipping property calculation,
    use PROP keyword to activate)
--
 
  Total CASPT2 energies:
::    CASPT2 Root  1     Total energy:   -225.01735077
 
  A NEW JOBIPH FILE NAMED 'JOBMIX' IS PREPARED.
********************************************************************************
forrtl: warning (528): IEEE_UNDERFLOW is signaling
--- Stop Module: caspt2 at Fri Jan 24 17:41:08 2025 /rc=_RC_ALL_IS_WELL_ ---
*** files: xmldump
    saved to directory /home/grierjones/DDCASPT2/ozone/ANO-RCC-VDZP/ozone_162.25

>>> EXPORT i = B

>>> EXPORT j = P

>>> IF (-FILE GMJ_e2_${i}_${j}.csv)

>>> COPY /tmp/ozone_162.25/GMJ_RHS_B_P.csv /home/grierjones/DDCASPT2/ozone/ANO-RCC-VDZP/ozone_162.25/GMJ_RHS_B_P.csv

>>> COPY /tmp/ozone_162.25/GMJ_IVECW_B_P.csv /home/grierjones/DDCASPT2/ozone/ANO-RCC-VDZP/ozone_162.25/GMJ_IVECW_B_P.csv

>>> COPY /tmp/ozone_162.25/GMJ_IVECX_B_P.csv /home/grierjones/DDCASPT2/ozone/ANO-RCC-VDZP/ozone_162.25/GMJ_IVECX_B_P.csv

>>> COPY /tmp/ozone_162.25/GMJ_IVECC2_B_P.csv /home/grierjones/DDCASPT2/ozone/ANO-RCC-VDZP/ozone_162.25/GMJ_IVECC2_B_P.csv

>>> COPY /tmp/ozone_162.25/GMJ_e2_B_P.csv /home/grierjones/DDCASPT2/ozone/ANO-RCC-VDZP/ozone_162.25/GMJ_e2_B_P.csv

>>> END FOREACH

>>> EXPORT j = M

>>> IF (-FILE GMJ_e2_${i}_${j}.csv)
(Skipped)

>>> END FOREACH

>>> END FOREACH

>>> EXPORT i = E

>>> EXPORT j = P

>>> IF (-FILE GMJ_e2_${i}_${j}.csv)

>>> COPY /tmp/ozone_162.25/GMJ_RHS_E_P.csv /home/grierjones/DDCASPT2/ozone/ANO-RCC-VDZP/ozone_162.25/GMJ_RHS_E_P.csv

>>> COPY /tmp/ozone_162.25/GMJ_IVECW_E_P.csv /home/grierjones/DDCASPT2/ozone/ANO-RCC-VDZP/ozone_162.25/GMJ_IVECW_E_P.csv

>>> COPY /tmp/ozone_162.25/GMJ_IVECX_E_P.csv /home/grierjones/DDCASPT2/ozone/ANO-RCC-VDZP/ozone_162.25/GMJ_IVECX_E_P.csv

>>> COPY /tmp/ozone_162.25/GMJ_IVECC2_E_P.csv /home/grierjones/DDCASPT2/ozone/ANO-RCC-VDZP/ozone_162.25/GMJ_IVECC2_E_P.csv

>>> COPY /tmp/ozone_162.25/GMJ_e2_E_P.csv /home/grierjones/DDCASPT2/ozone/ANO-RCC-VDZP/ozone_162.25/GMJ_e2_E_P.csv

>>> END FOREACH

>>> EXPORT j = M

>>> IF (-FILE GMJ_e2_${i}_${j}.csv)

>>> COPY /tmp/ozone_162.25/GMJ_RHS_E_M.csv /home/grierjones/DDCASPT2/ozone/ANO-RCC-VDZP/ozone_162.25/GMJ_RHS_E_M.csv

>>> COPY /tmp/ozone_162.25/GMJ_IVECW_E_M.csv /home/grierjones/DDCASPT2/ozone/ANO-RCC-VDZP/ozone_162.25/GMJ_IVECW_E_M.csv

>>> COPY /tmp/ozone_162.25/GMJ_IVECX_E_M.csv /home/grierjones/DDCASPT2/ozone/ANO-RCC-VDZP/ozone_162.25/GMJ_IVECX_E_M.csv

>>> COPY /tmp/ozone_162.25/GMJ_IVECC2_E_M.csv /home/grierjones/DDCASPT2/ozone/ANO-RCC-VDZP/ozone_162.25/GMJ_IVECC2_E_M.csv

>>> COPY /tmp/ozone_162.25/GMJ_e2_E_M.csv /home/grierjones/DDCASPT2/ozone/ANO-RCC-VDZP/ozone_162.25/GMJ_e2_E_M.csv

>>> END FOREACH

>>> END FOREACH

>>> EXPORT i = F

>>> EXPORT j = P

>>> IF (-FILE GMJ_e2_${i}_${j}.csv)

>>> COPY /tmp/ozone_162.25/GMJ_RHS_F_P.csv /home/grierjones/DDCASPT2/ozone/ANO-RCC-VDZP/ozone_162.25/GMJ_RHS_F_P.csv

>>> COPY /tmp/ozone_162.25/GMJ_IVECW_F_P.csv /home/grierjones/DDCASPT2/ozone/ANO-RCC-VDZP/ozone_162.25/GMJ_IVECW_F_P.csv

>>> COPY /tmp/ozone_162.25/GMJ_IVECX_F_P.csv /home/grierjones/DDCASPT2/ozone/ANO-RCC-VDZP/ozone_162.25/GMJ_IVECX_F_P.csv

>>> COPY /tmp/ozone_162.25/GMJ_IVECC2_F_P.csv /home/grierjones/DDCASPT2/ozone/ANO-RCC-VDZP/ozone_162.25/GMJ_IVECC2_F_P.csv

>>> COPY /tmp/ozone_162.25/GMJ_e2_F_P.csv /home/grierjones/DDCASPT2/ozone/ANO-RCC-VDZP/ozone_162.25/GMJ_e2_F_P.csv

>>> END FOREACH

>>> EXPORT j = M

>>> IF (-FILE GMJ_e2_${i}_${j}.csv)

>>> COPY /tmp/ozone_162.25/GMJ_RHS_F_M.csv /home/grierjones/DDCASPT2/ozone/ANO-RCC-VDZP/ozone_162.25/GMJ_RHS_F_M.csv

>>> COPY /tmp/ozone_162.25/GMJ_IVECW_F_M.csv /home/grierjones/DDCASPT2/ozone/ANO-RCC-VDZP/ozone_162.25/GMJ_IVECW_F_M.csv

>>> COPY /tmp/ozone_162.25/GMJ_IVECX_F_M.csv /home/grierjones/DDCASPT2/ozone/ANO-RCC-VDZP/ozone_162.25/GMJ_IVECX_F_M.csv

>>> COPY /tmp/ozone_162.25/GMJ_IVECC2_F_M.csv /home/grierjones/DDCASPT2/ozone/ANO-RCC-VDZP/ozone_162.25/GMJ_IVECC2_F_M.csv

>>> COPY /tmp/ozone_162.25/GMJ_e2_F_M.csv /home/grierjones/DDCASPT2/ozone/ANO-RCC-VDZP/ozone_162.25/GMJ_e2_F_M.csv

>>> END FOREACH

>>> END FOREACH

>>> EXPORT i = G

>>> EXPORT j = P

>>> IF (-FILE GMJ_e2_${i}_${j}.csv)

>>> COPY /tmp/ozone_162.25/GMJ_RHS_G_P.csv /home/grierjones/DDCASPT2/ozone/ANO-RCC-VDZP/ozone_162.25/GMJ_RHS_G_P.csv

>>> COPY /tmp/ozone_162.25/GMJ_IVECW_G_P.csv /home/grierjones/DDCASPT2/ozone/ANO-RCC-VDZP/ozone_162.25/GMJ_IVECW_G_P.csv

>>> COPY /tmp/ozone_162.25/GMJ_IVECX_G_P.csv /home/grierjones/DDCASPT2/ozone/ANO-RCC-VDZP/ozone_162.25/GMJ_IVECX_G_P.csv

>>> COPY /tmp/ozone_162.25/GMJ_IVECC2_G_P.csv /home/grierjones/DDCASPT2/ozone/ANO-RCC-VDZP/ozone_162.25/GMJ_IVECC2_G_P.csv

>>> COPY /tmp/ozone_162.25/GMJ_e2_G_P.csv /home/grierjones/DDCASPT2/ozone/ANO-RCC-VDZP/ozone_162.25/GMJ_e2_G_P.csv

>>> END FOREACH

>>> EXPORT j = M

>>> IF (-FILE GMJ_e2_${i}_${j}.csv)

>>> COPY /tmp/ozone_162.25/GMJ_RHS_G_M.csv /home/grierjones/DDCASPT2/ozone/ANO-RCC-VDZP/ozone_162.25/GMJ_RHS_G_M.csv

>>> COPY /tmp/ozone_162.25/GMJ_IVECW_G_M.csv /home/grierjones/DDCASPT2/ozone/ANO-RCC-VDZP/ozone_162.25/GMJ_IVECW_G_M.csv

>>> COPY /tmp/ozone_162.25/GMJ_IVECX_G_M.csv /home/grierjones/DDCASPT2/ozone/ANO-RCC-VDZP/ozone_162.25/GMJ_IVECX_G_M.csv

>>> COPY /tmp/ozone_162.25/GMJ_IVECC2_G_M.csv /home/grierjones/DDCASPT2/ozone/ANO-RCC-VDZP/ozone_162.25/GMJ_IVECC2_G_M.csv

>>> COPY /tmp/ozone_162.25/GMJ_e2_G_M.csv /home/grierjones/DDCASPT2/ozone/ANO-RCC-VDZP/ozone_162.25/GMJ_e2_G_M.csv

>>> END FOREACH

>>> END FOREACH

>>> EXPORT i = H

>>> EXPORT j = P

>>> IF (-FILE GMJ_e2_${i}_${j}.csv)

>>> COPY /tmp/ozone_162.25/GMJ_RHS_H_P.csv /home/grierjones/DDCASPT2/ozone/ANO-RCC-VDZP/ozone_162.25/GMJ_RHS_H_P.csv

>>> COPY /tmp/ozone_162.25/GMJ_IVECW_H_P.csv /home/grierjones/DDCASPT2/ozone/ANO-RCC-VDZP/ozone_162.25/GMJ_IVECW_H_P.csv

>>> COPY /tmp/ozone_162.25/GMJ_IVECX_H_P.csv /home/grierjones/DDCASPT2/ozone/ANO-RCC-VDZP/ozone_162.25/GMJ_IVECX_H_P.csv

>>> COPY /tmp/ozone_162.25/GMJ_IVECC2_H_P.csv /home/grierjones/DDCASPT2/ozone/ANO-RCC-VDZP/ozone_162.25/GMJ_IVECC2_H_P.csv

>>> COPY /tmp/ozone_162.25/GMJ_e2_H_P.csv /home/grierjones/DDCASPT2/ozone/ANO-RCC-VDZP/ozone_162.25/GMJ_e2_H_P.csv

>>> END FOREACH

>>> EXPORT j = M

>>> IF (-FILE GMJ_e2_${i}_${j}.csv)

>>> COPY /tmp/ozone_162.25/GMJ_RHS_H_M.csv /home/grierjones/DDCASPT2/ozone/ANO-RCC-VDZP/ozone_162.25/GMJ_RHS_H_M.csv

>>> COPY /tmp/ozone_162.25/GMJ_IVECW_H_M.csv /home/grierjones/DDCASPT2/ozone/ANO-RCC-VDZP/ozone_162.25/GMJ_IVECW_H_M.csv

>>> COPY /tmp/ozone_162.25/GMJ_IVECX_H_M.csv /home/grierjones/DDCASPT2/ozone/ANO-RCC-VDZP/ozone_162.25/GMJ_IVECX_H_M.csv

>>> COPY /tmp/ozone_162.25/GMJ_IVECC2_H_M.csv /home/grierjones/DDCASPT2/ozone/ANO-RCC-VDZP/ozone_162.25/GMJ_IVECC2_H_M.csv

>>> COPY /tmp/ozone_162.25/GMJ_e2_H_M.csv /home/grierjones/DDCASPT2/ozone/ANO-RCC-VDZP/ozone_162.25/GMJ_e2_H_M.csv

>>> END FOREACH

>>> END FOREACH

>>> EXPORT i = A

>>> IF (-FILE GMJ_e2_$i.csv)

>>> COPY /tmp/ozone_162.25/GMJ_RHS_A.csv /home/grierjones/DDCASPT2/ozone/ANO-RCC-VDZP/ozone_162.25/GMJ_RHS_A.csv

>>> COPY /tmp/ozone_162.25/GMJ_IVECW_A.csv /home/grierjones/DDCASPT2/ozone/ANO-RCC-VDZP/ozone_162.25/GMJ_IVECW_A.csv

>>> COPY /tmp/ozone_162.25/GMJ_IVECX_A.csv /home/grierjones/DDCASPT2/ozone/ANO-RCC-VDZP/ozone_162.25/GMJ_IVECX_A.csv

>>> COPY /tmp/ozone_162.25/GMJ_IVECC2_A.csv /home/grierjones/DDCASPT2/ozone/ANO-RCC-VDZP/ozone_162.25/GMJ_IVECC2_A.csv

>>> COPY /tmp/ozone_162.25/GMJ_e2_A.csv /home/grierjones/DDCASPT2/ozone/ANO-RCC-VDZP/ozone_162.25/GMJ_e2_A.csv

>>> END FOREACH

>>> EXPORT i = C

>>> IF (-FILE GMJ_e2_$i.csv)

>>> COPY /tmp/ozone_162.25/GMJ_RHS_C.csv /home/grierjones/DDCASPT2/ozone/ANO-RCC-VDZP/ozone_162.25/GMJ_RHS_C.csv

>>> COPY /tmp/ozone_162.25/GMJ_IVECW_C.csv /home/grierjones/DDCASPT2/ozone/ANO-RCC-VDZP/ozone_162.25/GMJ_IVECW_C.csv

>>> COPY /tmp/ozone_162.25/GMJ_IVECX_C.csv /home/grierjones/DDCASPT2/ozone/ANO-RCC-VDZP/ozone_162.25/GMJ_IVECX_C.csv

>>> COPY /tmp/ozone_162.25/GMJ_IVECC2_C.csv /home/grierjones/DDCASPT2/ozone/ANO-RCC-VDZP/ozone_162.25/GMJ_IVECC2_C.csv

>>> COPY /tmp/ozone_162.25/GMJ_e2_C.csv /home/grierjones/DDCASPT2/ozone/ANO-RCC-VDZP/ozone_162.25/GMJ_e2_C.csv

>>> END FOREACH

>>> EXPORT i = D

>>> IF (-FILE GMJ_e2_$i.csv)

>>> COPY /tmp/ozone_162.25/GMJ_RHS_D.csv /home/grierjones/DDCASPT2/ozone/ANO-RCC-VDZP/ozone_162.25/GMJ_RHS_D.csv

>>> COPY /tmp/ozone_162.25/GMJ_IVECW_D.csv /home/grierjones/DDCASPT2/ozone/ANO-RCC-VDZP/ozone_162.25/GMJ_IVECW_D.csv

>>> COPY /tmp/ozone_162.25/GMJ_IVECX_D.csv /home/grierjones/DDCASPT2/ozone/ANO-RCC-VDZP/ozone_162.25/GMJ_IVECX_D.csv

>>> COPY /tmp/ozone_162.25/GMJ_IVECC2_D.csv /home/grierjones/DDCASPT2/ozone/ANO-RCC-VDZP/ozone_162.25/GMJ_IVECC2_D.csv

>>> COPY /tmp/ozone_162.25/GMJ_e2_D.csv /home/grierjones/DDCASPT2/ozone/ANO-RCC-VDZP/ozone_162.25/GMJ_e2_D.csv

>>> END FOREACH

.########################.
.# Non-zero return code #.
.########################.

    Timing: Wall=3.54 User=2.58 System=0.96
********************************************
*** WorkDir at /tmp/ozone_162.25 cleaned ***
********************************************
