   This run of MOLCAS is using the pymolcas driver

                             OPE
                             OPE          NMOL  CASOP  ENMOLC A   SO
                 OPE        NMOLC        AS  OP EN  MO LC     AS  OP
                OPENM       OL CA        SO  PE NM  OL CA     SOP EN
                OP EN      MO   LC       AS  OP ENMOL  CASO   PENMOL
                OP  EN     MO   LC       AS  OP EN     MO     LC ASO
               OP   E  NMOL  C  AS       OP  EN MO     LC     AS  OP
               OP  E   NMO   LC AS        OPEN  MO     LCASOP EN   M
               O  PEN   MO  LCA  SO
            OPE   NMO   L   CAS    OP
        OPENMOL  CASOP     ENMOL   CASOPE
     OPENMOLCA   SOPENMOLCASOPEN   MOLCASOPE
    OPENMOLCAS   OP           EN   MOL    CAS
    OPENMOLCAS       OP  ENM        O     LCA
    OPENMOLCAS    OPEN  MOLCASO     P  E  NMO
    OPENMOLCAS     OP               E  N  MOL
    OPENMOLCA   SO           PENM   O  L  CAS    OPEN    MO    LCAS
    OPENMOLCA   SOP           ENM   O  L  CAS   OP  EN  MOLC  AS   O
    OPENMOLCA   SOPE           NM      O  LCA   S      OP  EN MO
    OPENMOLC                AS         O  PEN   M      OL  CA  SOPE
    OPENMO        LCASOPE  NMOL        C  ASO   P      ENMOLC     AS
    OPE     NMO      LCA  SO     P     E   NM   OL  CA SO  PE N   MO
          OPENMOLCA            SOPE   NMO        LCAS  O    P  ENMO
     OPENMOLCASOPENMOLCASOPENMOLCASOPENMOLCA
        OPENMOLCASOPENMOLCASOPENMOLCASOPE
            OPENMOLCASOPENMOLCASOPENM
               OPENMOLCASOPENMOLCA        version: ea724fe96-dirty
                   OPENMOLCASO
                       OPE                tag:

 OpenMolcas is free software; you can redistribute it and/or modify it
 under the terms of the GNU Lesser General Public License version 2.1.
 OpenMolcas is distributed in the hope that it will be useful, but it
 is provided "as is" and without any express or implied warranties.
 For more details see the full text of the license in the file
 LICENSE or in <http://www.gnu.org/licenses/>.

                 Copyright (C) The OpenMolcas Authors
           For the author list and the recommended citation,
                   consult the file CONTRIBUTORS.md

           *************************************************
           * pymolcas version py2.28                       *
           *   build c4a6d18ded8cb6cad61d2372a9abd97c      *
           *   (after the EMIL interpreter by V. Veryazov) *
           *************************************************

configuration info
------------------
C Compiler ID: Intel
C flags: -std=gnu99
Fortran Compiler ID: Intel
Fortran flags: -fpp -i8 -r8 -heap-arrays
Definitions: _MOLCAS_;_I8_;_LINUX_
Parallel: OFF (GA=OFF)


   -------------------------------------------------------------------------------
  |
  |              Project: 5.18
  |       Submitted from: /home/grierjones/DDCASPT2/iron_oxo_DDCASPT2/cluster/5.18
  |         Scratch area: /tmp/5.18
  |      Save outputs to: /home/grierjones/DDCASPT2/iron_oxo_DDCASPT2/cluster/5.18
  |               Molcas: /home/grierjones/Test/build
  |
  | Scratch area is empty
  |
  |       MOLCAS_DRIVER = /usr/local/pymolcas
  | MOLCAS_KEEP_WORKDIR = NO
  |  MOLCAS_NEW_WORKDIR = YES
  |       MOLCAS_NPROCS = 1
  |        MOLCAS_PRINT = NORMAL
  |       MOLCAS_SOURCE = /home/grierjones/Test/build
  |    MOLCAS_STRUCTURE = 0
  |
   -------------------------------------------------------------------------------

++ ---------   Input file   ---------

&GATEWAY
coord=5.18.xyz
Basis = ANO-RCC-VDZP
Group = nosymm
Expert
End of Input

&SEWARD
End of Input

&SCF
UHF
charge
2
spin
5

>>> COPY $WorkDir/5.18.scf.h5 $CurrDir/

&RASSCF
Title= RASSCF
FileOrb
/home/grierjones/DDCASPT2/iron_oxo_DDCASPT2/cluster/5.17/5.17.RasOrb
NACTEL
10 0 0
RAS2
14
Symmetry
1
Spin
5
charge
2
orblisting
all
ITERation
300 200

>>> COPY $WorkDir/5.18.rasscf.h5 $CurrDir/

>>> COPY $WorkDir/GMJ_Fock_MO.csv $CurrDir/5.18.GMJ_Fock_MO.csv

>>> COPY $WorkDir/GMJ_PT2_Fock_MO.csv $CurrDir/5.18.GMJ_PT2_Fock_MO.csv

&MOTRA
Frozen=0
LUMORB

>>> COPY $WorkDir/GMJ_one_int_indx.csv $CurrDir/5.18.GMJ_one_int_indx.csv

>>> COPY $WorkDir/GMJ_one_int.csv $CurrDir/5.18.GMJ_one_int.csv

>>> COPY $WorkDir/GMJ_two_int_indx.csv $CurrDir/5.18.GMJ_two_int_indx.csv

>>> COPY $WorkDir/GMJ_two_int.csv $CurrDir/5.18.GMJ_two_int.csv

&CASPT2
Frozen
0
MAXITER
50

>>> FOREACH i IN (B,E,F,G,H)

  >>> FOREACH j IN (P,M)

    >>> IF (-FILE GMJ_e2_${i}_${j}.csv)

      >>> COPY $WorkDir/GMJ_RHS_${i}_${j}.csv $CurrDir/GMJ_RHS_${i}_${j}.csv

      >>> COPY $WorkDir/GMJ_IVECW_${i}_${j}.csv $CurrDir/GMJ_IVECW_${i}_${j}.csv

      >>> COPY $WorkDir/GMJ_IVECX_${i}_${j}.csv $CurrDir/GMJ_IVECX_${i}_${j}.csv

      >>> COPY $WorkDir/GMJ_IVECC2_${i}_${j}.csv $CurrDir/GMJ_IVECC2_${i}_${j}.csv

      >>> COPY $WorkDir/GMJ_e2_${i}_${j}.csv $CurrDir/GMJ_e2_${i}_${j}.csv

    >>> END IF

  >>> END FOREACH

>>> END FOREACH

>>> FOREACH i IN (A,C,D)

  >>> IF (-FILE GMJ_e2_$i.csv)

    >>> COPY $WorkDir/GMJ_RHS_$i.csv $CurrDir/GMJ_RHS_$i.csv

    >>> COPY $WorkDir/GMJ_IVECW_$i.csv $CurrDir/GMJ_IVECW_$i.csv

    >>> COPY $WorkDir/GMJ_IVECX_$i.csv $CurrDir/GMJ_IVECX_$i.csv

    >>> COPY $WorkDir/GMJ_IVECC2_$i.csv $CurrDir/GMJ_IVECC2_$i.csv

    >>> COPY $WorkDir/GMJ_e2_$i.csv $CurrDir/GMJ_e2_$i.csv

  >>> END IF

>>> END FOREACH

-- ----------------------------------

--- Start Module: gateway at Sun Dec 22 16:41:57 2024 ---
 
()()()()()()()()()()()()()()()()()()()()()()()()()()()()()()()()()()()()()()()()()()()()()()()()()()

                                              &GATEWAY

                                   only a single process is used
                       available to each process: 2.0 GB of memory, 1 thread?
()()()()()()()()()()()()()()()()()()()()()()()()()()()()()()()()()()()()()()()()()()()()()()()()()()
 
 ###############################################################################
 ###############################################################################
 ###                                                                         ###
 ###                                                                         ###
 ###                                                                         ###
 ###    WARNING: EXPERT option is ON!                                        ###
 ###                                                                         ###
 ###                                                                         ###
 ###############################################################################
 ###############################################################################
 
++    Symmetry information:
      ---------------------
 
                    Character Table for C1 
 
                             E  
                    a        1  x, y, xy, Rz, z, xz, Ry, yz, Rx, I
--
 
 
++    Basis set information:
      ----------------------
 
 
      Basis set label: O.ANO-RCC...3S2P1D.
 
      Electronic valence basis set:
      ------------------
      Associated Effective Charge   8.000000 au
      Associated Actual Charge      8.000000 au
      Nuclear Model: Point charge
 
      Shell  nPrim  nBasis  Cartesian Spherical Contaminant
         s      14       3        X                  
         p       9       2        X                  
         d       4       1                 X         
 
 
      Basis set label: FE.ANO-RCC...5S4P2D1F.
 
      Electronic valence basis set:
      ------------------
      Associated Effective Charge  26.000000 au
      Associated Actual Charge     26.000000 au
      Nuclear Model: Point charge
 
      Shell  nPrim  nBasis  Cartesian Spherical Contaminant
         s      21       5        X                  
         p      15       4        X                  
         d      10       2                 X         
         f       6       1                 X         
--
 
 
++    Molecular structure info:
      -------------------------
 
                    ************************************************ 
                    **** Cartesian Coordinates / Bohr, Angstrom **** 
                    ************************************************ 
 
     Center  Label                x              y              z                     x              y              z
        1      O1               0.000000       0.000000       6.408779              0.000000       0.000000       3.391380
        2      FE2              0.000000       0.000000      -3.385218              0.000000       0.000000      -1.791380
--
 
 
            Nuclear Potential Energy             21.23749890 au
 
 ###############################################################################
 ###############################################################################
 ###                                                                         ###
 ###                                                                         ###
 ###    There were warnings during the execution                             ###
 ###    Please, check the output with care!                                  ###
 ###                                                                         ###
 ###                                                                         ###
 ###############################################################################
 ###############################################################################
--- Stop Module: gateway at Sun Dec 22 16:41:57 2024 /rc=_RC_ALL_IS_WELL_ ---
*** files: xmldump
    saved to directory /home/grierjones/DDCASPT2/iron_oxo_DDCASPT2/cluster/5.18

--- Start Module: seward at Sun Dec 22 16:41:57 2024 ---
 
()()()()()()()()()()()()()()()()()()()()()()()()()()()()()()()()()()()()()()()()()()()()()()()()()()

                                              &SEWARD

                                   only a single process is used
                       available to each process: 2.0 GB of memory, 1 thread?
()()()()()()()()()()()()()()()()()()()()()()()()()()()()()()()()()()()()()()()()()()()()()()()()()()
 
 ###############################################################################
 ###############################################################################
 ###                                                                         ###
 ###                                                                         ###
 ###                                                                         ###
 ###    WARNING: EXPERT option is ON!                                        ###
 ###                                                                         ###
 ###                                                                         ###
 ###############################################################################
 ###############################################################################
               SEWARD will generate:
                  Multipole Moment integrals up to order  2
                  Kinetic Energy integrals
                  Nuclear Attraction integrals (point charge)
                  One-Electron Hamiltonian integrals
                  Velocity integrals
                  Relativistic Douglas-Kroll-Hess integrals:
                    - Parametrization         : EXP
                    - DKH order of Hamiltonian: 2
                    - DKH order of Properties : 0
                         - multipole moment operators
                         - electric potential operators
                         - contact operators
                  Atomic mean-field integrals
                  Two-Electron Repulsion integrals
 
                   Integrals are discarded if absolute value <: 0.10E-13
                   Integral cutoff threshold is set to       <: 0.10E-15
 
            Nuclear Potential Energy             21.23749890 au
 
 
      Basis set specifications :
      Symmetry species         a  
      Basis functions           48
 
 
  Input file to MOLDEN was generated!
 
 ###############################################################################
 ###############################################################################
 ###                                                                         ###
 ###                                                                         ###
 ###    There were warnings during the execution                             ###
 ###    Please, check the output with care!                                  ###
 ###                                                                         ###
 ###                                                                         ###
 ###############################################################################
 ###############################################################################
--- Stop Module: seward at Sun Dec 22 16:41:58 2024 /rc=_RC_ALL_IS_WELL_ ---
*** files: 5.18.GssOrb 5.18.guessorb.h5 5.18.guessorb.molden xmldump
    saved to directory /home/grierjones/DDCASPT2/iron_oxo_DDCASPT2/cluster/5.18

*** symbolic link created: INPORB -> 5.18.GssOrb
--- Start Module: scf at Sun Dec 22 16:41:58 2024 ---
 
()()()()()()()()()()()()()()()()()()()()()()()()()()()()()()()()()()()()()()()()()()()()()()()()()()

                                                &SCF

                                   only a single process is used
                       available to each process: 2.0 GB of memory, 1 thread?
()()()()()()()()()()()()()()()()()()()()()()()()()()()()()()()()()()()()()()()()()()()()()()()()()()
 
 *** Possible bug in opening file
 *** isFreeUnit resets the unit number
++    Input section:
      --------------
 
      Header of the integral files:
      
       Integrals generated by seward 4.2.0  , Sun Dec 22 16:41:57 2024
 
 
      Cartesian coordinates in Angstrom:
      -----------------------------------------------------
      No.  Label        X            Y            Z        
      -----------------------------------------------------
       1   O1         0.00000000   0.00000000   3.39138000
       2   FE2        0.00000000   0.00000000  -1.79138000
      -----------------------------------------------------
      Nuclear repulsion energy =   21.23749890
--
 
++    Orbital specifications:
      -----------------------
 
      Symmetry species               1
                                     a
      Frozen orbitals                0
      Start temperature = 0.500
      End temperature   = 0.010
      Temperature Factor= 0.460
      Deleted orbitals               0
      Total number of orbitals      48
      Number of basis functions     48
--
 
      Molecular charge                           2.000
 
++    Optimization specifications:
      ----------------------------
 
      SCF Algorithm: Conventional USCF
      D(i)-D(i-1) density differences are used
      Number of density matrices in core                5
      Maximum number of NDDO SCF iterations           400
      Maximum number of HF SCF iterations             400
      Threshold for SCF energy change            0.10E-08
      Threshold for density matrix               0.10E-03
      Threshold for Fock matrix                  0.15E-03
      Threshold for linear dependence            0.10E-08
      Threshold at which DIIS is turned on       0.15E+00
      Threshold at which QNR/C2DIIS is turned on 0.75E-01
      Threshold for Norm(delta) (QNR/C2DIIS)     0.20E-04
      DIIS extrapolation of the SCF procedure
      All orbitals punched on: UHFORB
--
 
      Input vectors read from INPORB
      Orbital file label: *Guess orbitals
 
 
++ Convergence information
                               UHF SCF        iterations: Energy and convergence statistics
 
Iter     Tot. SCF        One-elec.       Two-elec.     Energy      Max Dij or  Max Fij      DNorm      TNorm      AccCon     Time
         Energy          Energy          Energy        Change      Delta Norm                                                in Sec.
 
 The total and one-electron energies are shifted by a value of      1000. a.u.
 
   1  -343.300227481  -876.153512202   511.615785817   0.00E+00    0.15E+00*   0.36E+00*    0.75E+01   0.18E+03   None         0.
   2  -343.479406891  -872.035420759   507.318514964  -0.18E+00*   0.12E+00*   0.14E+00*    0.10E+01   0.18E+03   EDIIS        0.
   3  -341.597334534  -920.182001189   557.347167751   0.19E+01*   0.64E-01*   0.18E+00*    0.18E+01   0.19E+03   EDIIS        0.
   4  -342.902357631  -860.220939990   496.081083455  -0.13E+01*   0.74E-01*   0.61E-01*    0.15E+01   0.17E+03   EDIIS        0.
   5  -344.055191260  -894.084985114   528.792294950  -0.12E+01*   0.22E-01*   0.37E-01*    0.85E+00   0.18E+03   EDIIS        0.
   6  -344.164572740  -865.969068786   500.566997142  -0.11E+00*   0.21E+00*   0.19E+00*    0.18E+01   0.18E+03   EDIIS        0.
   7  -343.433403618  -906.641199755   541.970297234   0.73E+00*   0.55E-01*   0.38E-01*    0.19E+01   0.18E+03   EDIIS        0.
   8  -344.883500968  -884.318910136   518.197910264  -0.15E+01*   0.26E+00*   0.16E+00*    0.22E+01   0.18E+03   EDIIS        0.
   9  -345.210532337  -872.422534234   505.974502992  -0.33E+00*   0.24E+00*   0.33E+00*    0.16E+01   0.18E+03   EDIIS        0.
  10  -345.289804498  -877.573504550   511.046201148  -0.79E-01*   0.67E-01*   0.93E-01*    0.72E+00   0.18E+03   EDIIS        0.
  11  -345.298631186  -875.660550497   509.124420407  -0.88E-02*   0.34E-01*   0.33E-01*    0.21E+00   0.18E+03   EDIIS        0.
 
       Fermi aufbau procedure completed!
      nOcc(alpha)=   18
      nOcc(beta) =   14
 
  12  -345.299987011  -876.494535409   509.957049494  -0.14E-02*   0.96E-02*   0.85E-02*    0.84E-01   0.18E+03   EDIIS        0.
  13  -345.300253227  -876.172820610   509.635068479  -0.27E-03*   0.82E-02*   0.47E-02*    0.35E-01   0.18E+03   EDIIS        0.
  14  -345.300319188  -876.302485853   509.764667761  -0.66E-04*   0.41E-02*   0.23E-02*    0.17E-01   0.18E+03   EDIIS        0.
  15  -345.300338352  -876.252188942   509.714351687  -0.19E-04*   0.26E-02*   0.15E-02*    0.92E-02   0.18E+03   EDIIS        0.
  16  -345.300344484  -876.271788230   509.733944842  -0.61E-05*   0.53E-03*   0.16E-02*    0.53E-02   0.18E+03   c2DIIS       0.
  17  -345.300347316  -876.257559671   509.719713450  -0.28E-05*   0.78E-03*   0.27E-03*    0.24E-02   0.18E+03   QNRc2DIIS    0.
  18  -345.300347554  -876.269511926   509.731665468  -0.24E-06*   0.40E-03*   0.12E-03     0.11E-02   0.18E+03   QNRc2DIIS    0.
  19  -345.300347620  -876.267211326   509.729364802  -0.66E-07*   0.43E-03*   0.61E-04     0.55E-03   0.18E+03   QNRc2DIIS    0.
  20  -345.300347640  -876.266143129   509.728296585  -0.20E-07*   0.28E-05    0.98E-06     0.59E-03   0.18E+03   QNRc2DIIS    0.
  21  -345.300347640  -876.266136285   509.728289741  -0.23E-11    0.24E-05    0.23E-06     0.39E-05   0.18E+03   QNRc2DIIS    0.
 
       Convergence after 21 Macro Iterations
--
 
 *****************************************************************************************************************************
 *                                                                                                                           *
 *                                             SCF/KS-DFT Program, Final results                                             *
 *                                                                                                                           *
 *                                                                                                                           *
 *                                                                                                                           *
 *                                                       Final Results                                                       *
 *                                                                                                                           *
 *****************************************************************************************************************************
 
::    Total SCF energy                              -1345.3003476404
      One-electron energy                           -1876.2661362849
      Two-electron energy                             509.7282897406
      Nuclear repulsion energy                         21.2374989039
      Kinetic energy (interpolated)                  1399.7958828322
      Virial theorem                                    0.9610689417
      Total spin, S(S+1)                                8.0097054848
      Total spin, S                                     2.3739703347
      Max non-diagonal density matrix element           0.0000018965
      Max non-diagonal Fock matrix element              0.0000002131
 
 
      All orbitals with orbital energies smaller than  E(LUMO)+0.5 are printed
 
++    Molecular orbitals:
      -------------------
 
      Title: UHF orbitals (alpha)

      Molecular orbitals for symmetry species 1: a  
 
          Orbital            1         2         3         4         5         6         7         8         9        10    
          Energy         -264.6168  -33.4944  -28.5582  -28.5582  -28.5582  -20.8399   -5.4426   -3.9825   -3.9825   -3.9825
          Occ. No.          1.0000    1.0000    1.0000    1.0000    1.0000    1.0000    1.0000    1.0000    1.0000    1.0000
 
        1 O1     1s        -0.0000   -0.0000   -0.0000    0.0000    0.0000    1.0000   -0.0000    0.0000   -0.0000   -0.0000
        2 O1     2s        -0.0000   -0.0000   -0.0000    0.0000    0.0000   -0.0022   -0.0002    0.0000   -0.0000   -0.0001
        3 O1     3s        -0.0000   -0.0000   -0.0001    0.0000    0.0000    0.0004   -0.0004    0.0000   -0.0000   -0.0002
        4 O1     2px        0.0000   -0.0000   -0.0000    0.0000   -0.0000   -0.0000    0.0000    0.0000   -0.0000    0.0000
        5 O1     3px       -0.0000    0.0000   -0.0000    0.0000   -0.0000   -0.0000   -0.0000    0.0000   -0.0001    0.0000
        6 O1     2py       -0.0000    0.0000   -0.0000   -0.0000   -0.0000   -0.0000   -0.0000   -0.0000   -0.0000   -0.0000
        7 O1     3py        0.0000    0.0000   -0.0000   -0.0000   -0.0000    0.0000   -0.0000   -0.0001   -0.0000   -0.0000
        8 O1     2pz        0.0000    0.0000    0.0000   -0.0000   -0.0000   -0.0001    0.0002   -0.0000    0.0000    0.0001
        9 O1     3pz        0.0000    0.0000    0.0001   -0.0000   -0.0000    0.0000    0.0005   -0.0000    0.0000    0.0002
       10 O1     3d2-      -0.0000    0.0000   -0.0000   -0.0000   -0.0000    0.0000    0.0000   -0.0000    0.0000    0.0000
       11 O1     3d1-      -0.0000    0.0000    0.0000    0.0000    0.0000    0.0000   -0.0000    0.0000    0.0000    0.0000
       12 O1     3d0       -0.0000   -0.0000   -0.0000    0.0000    0.0000    0.0009   -0.0000    0.0000   -0.0000   -0.0000
       13 O1     3d1+       0.0000   -0.0000    0.0000   -0.0000    0.0000   -0.0000   -0.0000   -0.0000    0.0000   -0.0000
       14 O1     3d2+      -0.0000   -0.0000   -0.0000    0.0000    0.0000   -0.0000    0.0000   -0.0000   -0.0000   -0.0000
       15 FE2    1s         1.0000   -0.0000   -0.0000   -0.0000    0.0000   -0.0000    0.0000    0.0000    0.0000    0.0000
       16 FE2    2s         0.0000    1.0000   -0.0000    0.0000    0.0000    0.0000   -0.0035   -0.0000   -0.0000   -0.0000
       17 FE2    3s        -0.0000    0.0035    0.0000   -0.0000   -0.0000   -0.0000    0.9999    0.0000   -0.0000   -0.0000
       18 FE2    4s         0.0000   -0.0003    0.0000   -0.0000   -0.0000   -0.0000   -0.0076   -0.0000    0.0000    0.0000
       19 FE2    5s        -0.0000    0.0004    0.0000   -0.0000   -0.0000   -0.0001    0.0082   -0.0000    0.0000    0.0000
       20 FE2    2px        0.0000   -0.0000    0.0000   -0.0031    1.0000   -0.0000   -0.0000    0.0001   -0.0035    0.0000
       21 FE2    3px       -0.0000    0.0000    0.0000   -0.0000    0.0035    0.0000   -0.0000   -0.0173    0.9995   -0.0000
       22 FE2    4px        0.0000   -0.0000   -0.0000    0.0000   -0.0006    0.0000    0.0000    0.0003   -0.0192    0.0000
       23 FE2    5px       -0.0000    0.0000    0.0000   -0.0000    0.0015   -0.0000    0.0000   -0.0003    0.0182   -0.0000
       24 FE2    2py        0.0000    0.0000    0.0000    1.0000    0.0031   -0.0000    0.0000   -0.0035   -0.0001   -0.0000
       25 FE2    3py       -0.0000    0.0000    0.0000    0.0035    0.0000    0.0000    0.0000    0.9995    0.0173    0.0000
       26 FE2    4py        0.0000   -0.0000   -0.0000   -0.0006   -0.0000    0.0000   -0.0000   -0.0192   -0.0003   -0.0000
       27 FE2    5py       -0.0000    0.0000    0.0000    0.0015    0.0000    0.0000    0.0000    0.0182    0.0003    0.0000
       28 FE2    2pz        0.0000    0.0000    1.0000   -0.0000   -0.0000    0.0000   -0.0000    0.0000   -0.0000   -0.0035
       29 FE2    3pz       -0.0000    0.0000    0.0035   -0.0000   -0.0000   -0.0000    0.0000   -0.0000    0.0000    0.9996
       30 FE2    4pz        0.0000    0.0000   -0.0006    0.0000    0.0000   -0.0000    0.0001    0.0000   -0.0000   -0.0192
       31 FE2    5pz        0.0000    0.0000    0.0015   -0.0000   -0.0000   -0.0000    0.0001   -0.0000    0.0000    0.0182
       32 FE2    3d2-      -0.0000    0.0000   -0.0000   -0.0000    0.0000    0.0000   -0.0000    0.0000   -0.0000    0.0000
       33 FE2    4d2-      -0.0000   -0.0000    0.0000    0.0000   -0.0000    0.0000   -0.0000   -0.0000    0.0000   -0.0000
       34 FE2    3d1-      -0.0000   -0.0000    0.0000    0.0000    0.0000    0.0000   -0.0000    0.0000    0.0000    0.0000
       35 FE2    4d1-      -0.0000    0.0000    0.0000    0.0000    0.0000    0.0000    0.0000   -0.0000   -0.0000   -0.0000
       36 FE2    3d0        0.0000    0.0000    0.0000    0.0000   -0.0000   -0.0000   -0.0000   -0.0000    0.0000    0.0000
       37 FE2    4d0        0.0000    0.0000    0.0000   -0.0000   -0.0000   -0.0000    0.0001    0.0000   -0.0000   -0.0000
       38 FE2    3d1+       0.0000   -0.0000    0.0000   -0.0000    0.0000    0.0000   -0.0000   -0.0000    0.0000   -0.0000
       39 FE2    4d1+       0.0000   -0.0000    0.0000   -0.0000    0.0000   -0.0000    0.0000    0.0000   -0.0000    0.0000
       40 FE2    3d2+       0.0000   -0.0000   -0.0000    0.0000   -0.0000   -0.0000    0.0000    0.0000   -0.0000    0.0000
       41 FE2    4d2+      -0.0000   -0.0000    0.0000    0.0000    0.0000    0.0000    0.0000   -0.0000    0.0000   -0.0000
       42 FE2    4f3-       0.0000   -0.0000   -0.0000   -0.0000   -0.0000   -0.0000    0.0000   -0.0000    0.0000   -0.0000
       43 FE2    4f2-       0.0000   -0.0000   -0.0000   -0.0000    0.0000    0.0000    0.0000   -0.0000    0.0000    0.0000
       44 FE2    4f1-       0.0000    0.0000    0.0000    0.0000    0.0000    0.0000    0.0000   -0.0000   -0.0000   -0.0000
       45 FE2    4f0        0.0000    0.0000    0.0000   -0.0000   -0.0000   -0.0000    0.0000    0.0000   -0.0000   -0.0000
       46 FE2    4f1+       0.0000    0.0000    0.0000   -0.0000    0.0000    0.0000   -0.0000    0.0000   -0.0000    0.0000
       47 FE2    4f2+      -0.0000    0.0000   -0.0000    0.0000    0.0000   -0.0000   -0.0000   -0.0000    0.0000   -0.0000
       48 FE2    4f3+       0.0000    0.0000   -0.0000    0.0000    0.0000    0.0000   -0.0000   -0.0000   -0.0000    0.0000
 
          Orbital           11        12        13        14        15        16        17        18        19        20    
          Energy           -1.6632   -1.6632   -1.6632   -1.6632   -1.6632   -1.2844   -0.9504   -0.7243   -0.4822   -0.4822
          Occ. No.          1.0000    1.0000    1.0000    1.0000    1.0000    1.0000    1.0000    1.0000    0.0000    0.0000
 
        1 O1     1s         0.0000    0.0000    0.0000    0.0000   -0.0000    0.0021    0.0005    0.0001   -0.0000    0.0000
        2 O1     2s         0.0005    0.0000    0.0000    0.0000   -0.0000    0.9992    0.0046    0.0172   -0.0000    0.0000
        3 O1     3s         0.0005    0.0000    0.0000    0.0000   -0.0000    0.0223    0.0053   -0.0104   -0.0000    0.0000
        4 O1     2px        0.0000   -0.0000   -0.0000   -0.0000    0.0002   -0.0000    0.0000   -0.0000   -0.0000   -0.0011
        5 O1     3px        0.0000    0.0000   -0.0000   -0.0001    0.0004    0.0000   -0.0000   -0.0000   -0.0001   -0.0029
        6 O1     2py       -0.0000   -0.0000    0.0000    0.0002    0.0000    0.0000   -0.0000    0.0000   -0.0011    0.0000
        7 O1     3py       -0.0000   -0.0000    0.0000    0.0004    0.0001   -0.0000   -0.0000    0.0000   -0.0029    0.0001
        8 O1     2pz       -0.0006   -0.0000   -0.0000   -0.0000    0.0000   -0.0162   -0.0076    0.9979    0.0000   -0.0000
        9 O1     3pz       -0.0009   -0.0000   -0.0000   -0.0000    0.0000   -0.0060   -0.0065    0.0505    0.0000   -0.0000
       10 O1     3d2-      -0.0000    0.0000    0.0000    0.0000    0.0000   -0.0000    0.0000   -0.0000    0.0000   -0.0000
       11 O1     3d1-      -0.0000    0.0000   -0.0000   -0.0000   -0.0000    0.0000   -0.0000   -0.0000    0.0000   -0.0000
       12 O1     3d0        0.0001    0.0000    0.0000    0.0000   -0.0000    0.0295    0.0002   -0.0051   -0.0000    0.0000
       13 O1     3d1+      -0.0000   -0.0000    0.0000    0.0000   -0.0000   -0.0000    0.0000    0.0000    0.0000    0.0000
       14 O1     3d2+      -0.0000    0.0000   -0.0000    0.0000   -0.0000   -0.0000   -0.0000   -0.0000    0.0000    0.0000
       15 FE2    1s        -0.0000   -0.0000   -0.0000    0.0000    0.0000   -0.0000   -0.0000    0.0000    0.0000   -0.0000
       16 FE2    2s        -0.0000   -0.0000   -0.0000   -0.0000    0.0000   -0.0000    0.0004    0.0001    0.0000    0.0000
       17 FE2    3s         0.0000    0.0000    0.0000    0.0000   -0.0000   -0.0000    0.0101    0.0007    0.0000   -0.0000
       18 FE2    4s        -0.0001   -0.0000   -0.0000   -0.0000    0.0000    0.0002    0.9281    0.0089    0.0000    0.0000
       19 FE2    5s        -0.0002   -0.0000   -0.0000   -0.0000    0.0000   -0.0005   -0.3717   -0.0049    0.0000   -0.0000
       20 FE2    2px       -0.0000    0.0000   -0.0000    0.0000   -0.0000    0.0000   -0.0000    0.0000    0.0000    0.0005
       21 FE2    3px       -0.0000    0.0000    0.0000    0.0000   -0.0000   -0.0000   -0.0000   -0.0000    0.0007    0.0186
       22 FE2    4px       -0.0000    0.0000    0.0000    0.0000   -0.0001    0.0000   -0.0000   -0.0000    0.0403    0.9986
       23 FE2    5px       -0.0000   -0.0000    0.0000    0.0000   -0.0000    0.0000   -0.0000    0.0000    0.0013    0.0323
       24 FE2    2py       -0.0000    0.0000    0.0000   -0.0000   -0.0000   -0.0000   -0.0000    0.0000    0.0005   -0.0000
       25 FE2    3py        0.0000    0.0000   -0.0000   -0.0000   -0.0000   -0.0000    0.0000   -0.0000    0.0186   -0.0007
       26 FE2    4py        0.0000    0.0000   -0.0000   -0.0001   -0.0000   -0.0000    0.0000   -0.0000    0.9986   -0.0403
       27 FE2    5py       -0.0000    0.0000    0.0000   -0.0000   -0.0000   -0.0000    0.0000    0.0000    0.0323   -0.0013
       28 FE2    2pz       -0.0000   -0.0000   -0.0000   -0.0000    0.0000   -0.0000   -0.0000    0.0000    0.0000   -0.0000
       29 FE2    3pz       -0.0000   -0.0000   -0.0000   -0.0000    0.0000   -0.0000   -0.0001    0.0002    0.0000   -0.0000
       30 FE2    4pz       -0.0003   -0.0000   -0.0000   -0.0000    0.0000    0.0000   -0.0048   -0.0133    0.0000   -0.0000
       31 FE2    5pz       -0.0001   -0.0000   -0.0000   -0.0000    0.0000   -0.0001   -0.0004   -0.0006    0.0000   -0.0000
       32 FE2    3d2-      -0.0000    0.0786    0.9875   -0.0000    0.0000   -0.0000    0.0000   -0.0000    0.0000    0.0000
       33 FE2    4d2-       0.0000   -0.0108   -0.1359    0.0000   -0.0000   -0.0000    0.0000   -0.0000   -0.0000    0.0000
       34 FE2    3d1-      -0.0000   -0.0000    0.0000    0.9801    0.1440   -0.0000   -0.0000   -0.0000    0.0000   -0.0000
       35 FE2    4d1-       0.0000    0.0000   -0.0000   -0.1349   -0.0198   -0.0000    0.0000    0.0000   -0.0005    0.0000
       36 FE2    3d0        0.9906    0.0000    0.0000    0.0000   -0.0000   -0.0001   -0.0001    0.0003    0.0000    0.0000
       37 FE2    4d0       -0.1365   -0.0000   -0.0000   -0.0000    0.0000    0.0001   -0.0007   -0.0018   -0.0000    0.0000
       38 FE2    3d1+       0.0000    0.0000   -0.0000   -0.1440    0.9801   -0.0000    0.0000    0.0000    0.0000    0.0000
       39 FE2    4d1+      -0.0000   -0.0000    0.0000    0.0198   -0.1349    0.0000   -0.0000   -0.0000   -0.0000   -0.0005
       40 FE2    3d2+      -0.0000    0.9875   -0.0786    0.0000   -0.0000   -0.0000    0.0000    0.0000    0.0000   -0.0000
       41 FE2    4d2+       0.0000   -0.1359    0.0108   -0.0000    0.0000   -0.0000    0.0000    0.0000   -0.0000   -0.0000
       42 FE2    4f3-       0.0000   -0.0000    0.0000   -0.0000   -0.0000   -0.0000    0.0000   -0.0000    0.0000    0.0000
       43 FE2    4f2-      -0.0000    0.0000    0.0000   -0.0000    0.0000    0.0000    0.0000    0.0000   -0.0000    0.0000
       44 FE2    4f1-      -0.0000   -0.0000    0.0000    0.0000    0.0000   -0.0000    0.0000    0.0000   -0.0000    0.0000
       45 FE2    4f0        0.0000    0.0000    0.0000    0.0000   -0.0000    0.0000   -0.0000   -0.0001   -0.0000    0.0000
       46 FE2    4f1+       0.0000   -0.0000   -0.0000   -0.0000    0.0000    0.0000   -0.0000   -0.0000   -0.0000   -0.0000
       47 FE2    4f2+      -0.0000    0.0000   -0.0000    0.0000   -0.0000   -0.0000    0.0000    0.0000   -0.0000   -0.0000
       48 FE2    4f3+      -0.0000   -0.0000    0.0000   -0.0000   -0.0000   -0.0000   -0.0000   -0.0000    0.0000   -0.0000
 
          Orbital           21        22        23        24    
          Energy           -0.4816   -0.2480   -0.1150   -0.1150
          Occ. No.          0.0000    0.0000    0.0000    0.0000
 
        1 O1     1s        -0.0011   -0.0034    0.0000   -0.0000
        2 O1     2s        -0.0170   -0.0442   -0.0000    0.0000
        3 O1     3s        -0.0068   -0.0095    0.0000   -0.0000
        4 O1     2px       -0.0000   -0.0000    0.1295    0.9361
        5 O1     3px       -0.0000   -0.0000    0.0447    0.3234
        6 O1     2py        0.0000    0.0000    0.9361   -0.1295
        7 O1     3py        0.0000    0.0000    0.3234   -0.0447
        8 O1     2pz        0.0418    0.0528   -0.0000    0.0000
        9 O1     3pz        0.0127    0.0113   -0.0000    0.0000
       10 O1     3d2-      -0.0000    0.0000    0.0000   -0.0000
       11 O1     3d1-      -0.0000   -0.0000   -0.0049    0.0007
       12 O1     3d0       -0.0002    0.0000    0.0000   -0.0000
       13 O1     3d1+       0.0000    0.0000   -0.0007   -0.0049
       14 O1     3d2+      -0.0000    0.0000    0.0000    0.0000
       15 FE2    1s         0.0000    0.0000   -0.0000    0.0000
       16 FE2    2s         0.0000   -0.0002   -0.0000    0.0000
       17 FE2    3s         0.0001   -0.0046   -0.0000    0.0000
       18 FE2    4s         0.0045    0.3723   -0.0000    0.0000
       19 FE2    5s        -0.0008    0.9327   -0.0000    0.0000
       20 FE2    2px        0.0000   -0.0000   -0.0000   -0.0000
       21 FE2    3px        0.0000    0.0000   -0.0001   -0.0004
       22 FE2    4px        0.0000    0.0000   -0.0014   -0.0104
       23 FE2    5px        0.0000   -0.0000    0.0003    0.0019
       24 FE2    2py       -0.0000   -0.0000   -0.0000    0.0000
       25 FE2    3py       -0.0000   -0.0000   -0.0004    0.0001
       26 FE2    4py       -0.0000   -0.0000   -0.0104    0.0014
       27 FE2    5py       -0.0000    0.0000    0.0019   -0.0003
       28 FE2    2pz        0.0005    0.0000   -0.0000    0.0000
       29 FE2    3pz        0.0187    0.0002   -0.0000    0.0000
       30 FE2    4pz        1.0010    0.0046   -0.0000    0.0000
       31 FE2    5pz        0.0324   -0.0005    0.0000   -0.0000
       32 FE2    3d2-      -0.0000   -0.0000    0.0000   -0.0000
       33 FE2    4d2-      -0.0000   -0.0000    0.0000   -0.0000
       34 FE2    3d1-      -0.0000    0.0000    0.0014   -0.0002
       35 FE2    4d1-       0.0000    0.0000    0.0122   -0.0017
       36 FE2    3d0        0.0001   -0.0002    0.0000   -0.0000
       37 FE2    4d0       -0.0009   -0.0016    0.0000   -0.0000
       38 FE2    3d1+       0.0000   -0.0000    0.0002    0.0014
       39 FE2    4d1+      -0.0000   -0.0000    0.0017    0.0122
       40 FE2    3d2+       0.0000    0.0000    0.0000    0.0000
       41 FE2    4d2+       0.0000    0.0000    0.0000    0.0000
       42 FE2    4f3-       0.0000    0.0000   -0.0000    0.0000
       43 FE2    4f2-      -0.0000    0.0000   -0.0000   -0.0000
       44 FE2    4f1-       0.0000   -0.0000    0.0001   -0.0000
       45 FE2    4f0       -0.0000   -0.0000    0.0000   -0.0000
       46 FE2    4f1+      -0.0000   -0.0000    0.0000    0.0001
       47 FE2    4f2+       0.0000   -0.0000    0.0000    0.0000
       48 FE2    4f3+      -0.0000   -0.0000    0.0000   -0.0000
--
 
 
  Input file to MOLDEN was generated!
 
 
++    Static properties:
      ------------------
 
 
      LoProp Charges per center
 

                   O1       FE2   
      Nuclear      8.0000  26.0000
      Electronic  -7.9999 -24.0001
 
      Total        0.0001   1.9999
--
 
 
      All orbitals with orbital energies smaller than  E(LUMO)+0.5 are printed
 
++    Molecular orbitals:
      -------------------
 
      Title: UHF orbitals (beta)

      Molecular orbitals for symmetry species 1: a  
 
          Orbital            1         2         3         4         5         6         7         8         9        10    
          Energy         -264.6090  -33.3178  -28.3858  -28.3858  -28.3858  -20.9250   -4.9684   -3.4200   -3.4200   -3.4200
          Occ. No.          1.0000    1.0000    1.0000    1.0000    1.0000    1.0000    1.0000    1.0000    1.0000    1.0000
 
        1 O1     1s        -0.0000    0.0000   -0.0000    0.0000    0.0000    1.0000   -0.0000   -0.0000    0.0000    0.0000
        2 O1     2s        -0.0000    0.0000   -0.0000    0.0000    0.0000    0.0019   -0.0001   -0.0000    0.0000    0.0001
        3 O1     3s        -0.0000    0.0000   -0.0000    0.0000    0.0000   -0.0017   -0.0001   -0.0000    0.0000    0.0001
        4 O1     2px        0.0000   -0.0000   -0.0000    0.0000   -0.0000   -0.0000    0.0000   -0.0000    0.0000   -0.0000
        5 O1     3px       -0.0000    0.0000   -0.0000    0.0000   -0.0000   -0.0000   -0.0000   -0.0000    0.0001   -0.0000
        6 O1     2py       -0.0000    0.0000    0.0000    0.0000   -0.0000   -0.0000   -0.0000    0.0000    0.0000   -0.0000
        7 O1     3py        0.0000    0.0000    0.0000    0.0000   -0.0000    0.0000   -0.0000    0.0001    0.0000    0.0000
        8 O1     2pz        0.0000   -0.0000    0.0000   -0.0000   -0.0000   -0.0001    0.0001    0.0000   -0.0000   -0.0001
        9 O1     3pz        0.0000   -0.0000    0.0000   -0.0000   -0.0001    0.0001    0.0002    0.0000   -0.0000   -0.0003
       10 O1     3d2-      -0.0000    0.0000   -0.0000   -0.0000   -0.0000   -0.0000    0.0000   -0.0000    0.0000    0.0000
       11 O1     3d1-      -0.0000    0.0000   -0.0000   -0.0000    0.0000   -0.0000   -0.0000   -0.0000   -0.0000   -0.0000
       12 O1     3d0       -0.0000    0.0000   -0.0000    0.0000    0.0000   -0.0004   -0.0000   -0.0000    0.0000    0.0000
       13 O1     3d1+       0.0000   -0.0000    0.0000   -0.0000    0.0000    0.0000   -0.0000    0.0000   -0.0000    0.0000
       14 O1     3d2+      -0.0000   -0.0000    0.0000    0.0000   -0.0000    0.0000    0.0000   -0.0000   -0.0000   -0.0000
       15 FE2    1s         1.0000   -0.0000    0.0000   -0.0000   -0.0000    0.0000    0.0000    0.0000    0.0000   -0.0000
       16 FE2    2s         0.0000    1.0000    0.0000   -0.0000   -0.0000    0.0000    0.0011    0.0000   -0.0000   -0.0000
       17 FE2    3s        -0.0000   -0.0011   -0.0000    0.0000    0.0000    0.0000    1.0000    0.0000   -0.0000   -0.0001
       18 FE2    4s         0.0000    0.0002    0.0000   -0.0000   -0.0000    0.0000   -0.0028    0.0000   -0.0000   -0.0000
       19 FE2    5s        -0.0000   -0.0002    0.0000   -0.0000   -0.0000    0.0000    0.0033    0.0000   -0.0000   -0.0001
       20 FE2    2px        0.0000   -0.0000   -0.0388    0.9992   -0.0000   -0.0000   -0.0000   -0.0002    0.0032   -0.0000
       21 FE2    3px       -0.0000    0.0000    0.0001   -0.0032    0.0000   -0.0000    0.0000   -0.0678    0.9976   -0.0000
       22 FE2    4px        0.0000   -0.0000   -0.0000    0.0005   -0.0000    0.0000    0.0000    0.0008   -0.0114    0.0000
       23 FE2    5px       -0.0000    0.0000    0.0000   -0.0011    0.0000   -0.0000    0.0000   -0.0004    0.0055   -0.0000
       24 FE2    2py        0.0000    0.0000    0.9992    0.0388   -0.0000    0.0000    0.0000    0.0032    0.0002    0.0000
       25 FE2    3py       -0.0000    0.0000   -0.0032   -0.0001    0.0000   -0.0000    0.0000    0.9976    0.0678    0.0000
       26 FE2    4py        0.0000   -0.0000    0.0005    0.0000   -0.0000   -0.0000   -0.0000   -0.0114   -0.0008   -0.0000
       27 FE2    5py       -0.0000    0.0000   -0.0011   -0.0000    0.0000   -0.0000    0.0000    0.0055    0.0004    0.0000
       28 FE2    2pz        0.0000    0.0000   -0.0000    0.0000    1.0000    0.0000   -0.0000   -0.0000    0.0000    0.0032
       29 FE2    3pz       -0.0000    0.0000    0.0000   -0.0000   -0.0032    0.0000    0.0001   -0.0000    0.0000    0.9999
       30 FE2    4pz        0.0000   -0.0000   -0.0000    0.0000    0.0004    0.0000    0.0000    0.0000   -0.0000   -0.0115
       31 FE2    5pz        0.0000   -0.0000    0.0000   -0.0000   -0.0011    0.0000    0.0000   -0.0000    0.0000    0.0055
       32 FE2    3d2-      -0.0000    0.0000   -0.0000    0.0000    0.0000   -0.0000   -0.0000    0.0000   -0.0000    0.0000
       33 FE2    4d2-      -0.0000   -0.0000    0.0000   -0.0000    0.0000    0.0000    0.0000   -0.0000    0.0000   -0.0000
       34 FE2    3d1-      -0.0000   -0.0000    0.0000    0.0000   -0.0000    0.0000   -0.0000    0.0001    0.0000    0.0000
       35 FE2    4d1-      -0.0000    0.0000   -0.0000   -0.0000    0.0000   -0.0000    0.0000   -0.0000   -0.0000   -0.0000
       36 FE2    3d0        0.0000   -0.0000    0.0000   -0.0000   -0.0000    0.0000   -0.0000   -0.0000    0.0000    0.0001
       37 FE2    4d0        0.0000   -0.0000    0.0000   -0.0000   -0.0000    0.0000    0.0000    0.0000   -0.0000   -0.0000
       38 FE2    3d1+       0.0000   -0.0000   -0.0000    0.0000   -0.0000    0.0000   -0.0000   -0.0000    0.0001   -0.0000
       39 FE2    4d1+       0.0000   -0.0000    0.0000   -0.0000    0.0000    0.0000    0.0000    0.0000   -0.0000    0.0000
       40 FE2    3d2+       0.0000   -0.0000   -0.0000   -0.0000   -0.0000   -0.0000    0.0000    0.0000   -0.0000    0.0000
       41 FE2    4d2+      -0.0000   -0.0000    0.0000    0.0000    0.0000    0.0000   -0.0000   -0.0000    0.0000   -0.0000
       42 FE2    4f3-       0.0000   -0.0000   -0.0000   -0.0000   -0.0000   -0.0000    0.0000    0.0000   -0.0000   -0.0000
       43 FE2    4f2-       0.0000   -0.0000   -0.0000    0.0000   -0.0000    0.0000    0.0000   -0.0000    0.0000    0.0000
       44 FE2    4f1-       0.0000    0.0000   -0.0000   -0.0000    0.0000    0.0000    0.0000   -0.0000   -0.0000   -0.0000
       45 FE2    4f0        0.0000   -0.0000    0.0000   -0.0000   -0.0000    0.0000   -0.0000    0.0000   -0.0000   -0.0000
       46 FE2    4f1+       0.0000    0.0000    0.0000   -0.0000    0.0000    0.0000   -0.0000    0.0000   -0.0000    0.0000
       47 FE2    4f2+      -0.0000    0.0000    0.0000    0.0000   -0.0000   -0.0000   -0.0000   -0.0000    0.0000   -0.0000
       48 FE2    4f3+       0.0000    0.0000   -0.0000    0.0000   -0.0000    0.0000   -0.0000   -0.0000   -0.0000    0.0000
 
          Orbital           11        12        13        14        15        16        17        18        19        20    
          Energy           -1.6270   -0.9174   -0.9174   -0.8192   -0.5738   -0.5719   -0.5719   -0.5718   -0.5718   -0.5718
          Occ. No.          1.0000    1.0000    1.0000    1.0000    0.0000    0.0000    0.0000    0.0000    0.0000    0.0000
 
        1 O1     1s        -0.0020    0.0000    0.0000    0.0000    0.0001    0.0000    0.0000   -0.0000   -0.0000   -0.0001
        2 O1     2s         0.9993    0.0000   -0.0000    0.0127    0.0002    0.0000    0.0000    0.0000   -0.0000   -0.0018
        3 O1     3s        -0.0285   -0.0000    0.0000   -0.0098    0.0013    0.0000    0.0000   -0.0000   -0.0000   -0.0007
        4 O1     2px        0.0000    0.9175   -0.3948   -0.0000   -0.0000    0.0000    0.0000    0.0001   -0.0008   -0.0000
        5 O1     3px       -0.0000   -0.0437    0.0188    0.0000   -0.0000    0.0000    0.0000    0.0001   -0.0007    0.0000
        6 O1     2py       -0.0000    0.3948    0.9175    0.0000    0.0000    0.0000    0.0000   -0.0008   -0.0001    0.0000
        7 O1     3py        0.0000   -0.0188   -0.0437   -0.0000    0.0000    0.0000    0.0000   -0.0007   -0.0001    0.0000
        8 O1     2pz       -0.0132    0.0000   -0.0000    0.9998    0.0089   -0.0000   -0.0000   -0.0000    0.0000    0.0069
        9 O1     3pz       -0.0029   -0.0000    0.0000   -0.0090   -0.0017   -0.0000   -0.0000    0.0000    0.0000    0.0022
       10 O1     3d2-      -0.0000   -0.0000    0.0000   -0.0000    0.0000    0.0000    0.0000    0.0000    0.0000   -0.0000
       11 O1     3d1-      -0.0000   -0.0018   -0.0043   -0.0000    0.0000   -0.0000   -0.0000    0.0000    0.0000   -0.0000
       12 O1     3d0       -0.0210   -0.0000    0.0000   -0.0062    0.0001    0.0000    0.0000    0.0000   -0.0000   -0.0000
       13 O1     3d1+       0.0000   -0.0043    0.0018    0.0000   -0.0000   -0.0000    0.0000   -0.0000    0.0000    0.0000
       14 O1     3d2+       0.0000    0.0000    0.0000   -0.0000   -0.0000    0.0000   -0.0000   -0.0000   -0.0000   -0.0000
       15 FE2    1s        -0.0000   -0.0000    0.0000    0.0000   -0.0000   -0.0000    0.0000    0.0000    0.0000    0.0000
       16 FE2    2s        -0.0000    0.0000   -0.0000    0.0001   -0.0002    0.0000   -0.0000    0.0000   -0.0000   -0.0000
       17 FE2    3s        -0.0000   -0.0000    0.0000    0.0003    0.0035   -0.0000    0.0000   -0.0000    0.0000    0.0002
       18 FE2    4s        -0.0004    0.0000   -0.0000   -0.0030    0.9667   -0.0000    0.0000   -0.0000    0.0000    0.0628
       19 FE2    5s        -0.0009    0.0000   -0.0000    0.0014   -0.2472    0.0000   -0.0000    0.0000   -0.0000   -0.0157
       20 FE2    2px        0.0000   -0.0000    0.0000    0.0000   -0.0000    0.0000   -0.0000    0.0000   -0.0000    0.0000
       21 FE2    3px       -0.0000   -0.0000    0.0000   -0.0000   -0.0000    0.0000    0.0000    0.0000   -0.0001    0.0000
       22 FE2    4px        0.0000   -0.0003    0.0001    0.0000   -0.0000    0.0000    0.0000   -0.0000    0.0001   -0.0000
       23 FE2    5px        0.0000   -0.0001    0.0001    0.0000   -0.0000   -0.0000    0.0000    0.0000   -0.0000    0.0000
       24 FE2    2py       -0.0000   -0.0000   -0.0000    0.0000   -0.0000    0.0000   -0.0000   -0.0000   -0.0000   -0.0000
       25 FE2    3py        0.0000   -0.0000   -0.0000   -0.0000    0.0000    0.0000    0.0000   -0.0001   -0.0000    0.0000
       26 FE2    4py       -0.0000   -0.0001   -0.0003   -0.0000    0.0000   -0.0000   -0.0000    0.0001    0.0000    0.0000
       27 FE2    5py       -0.0000   -0.0001   -0.0001    0.0000    0.0000    0.0000    0.0000   -0.0000   -0.0000   -0.0000
       28 FE2    2pz       -0.0000    0.0000   -0.0000    0.0000    0.0000    0.0000   -0.0000    0.0000    0.0000   -0.0000
       29 FE2    3pz       -0.0000    0.0000   -0.0000    0.0002   -0.0000    0.0000    0.0000    0.0000   -0.0000   -0.0001
       30 FE2    4pz       -0.0005    0.0000   -0.0000   -0.0017   -0.0012    0.0000    0.0000    0.0000   -0.0000   -0.0003
       31 FE2    5pz       -0.0003    0.0000   -0.0000   -0.0001   -0.0002    0.0000    0.0000    0.0000   -0.0000   -0.0000
       32 FE2    3d2-       0.0000    0.0000   -0.0000    0.0000   -0.0000    0.0246    0.9917    0.0000    0.0000    0.0000
       33 FE2    4d2-      -0.0000   -0.0000    0.0000    0.0000   -0.0000    0.0031    0.1265    0.0000    0.0000    0.0000
       34 FE2    3d1-       0.0000   -0.0000   -0.0000    0.0000    0.0000   -0.0000   -0.0000    0.9885    0.0832   -0.0000
       35 FE2    4d1-      -0.0000   -0.0000   -0.0001   -0.0000    0.0000   -0.0000   -0.0000    0.1261    0.0106   -0.0000
       36 FE2    3d0       -0.0000    0.0000   -0.0000   -0.0021   -0.0641   -0.0000   -0.0000   -0.0000    0.0000    0.9900
       37 FE2    4d0       -0.0002    0.0000    0.0000   -0.0007   -0.0085   -0.0000   -0.0000   -0.0000    0.0000    0.1262
       38 FE2    3d1+       0.0000   -0.0000    0.0000    0.0000   -0.0000   -0.0000   -0.0000   -0.0832    0.9885   -0.0000
       39 FE2    4d1+       0.0000   -0.0001    0.0000    0.0000   -0.0000   -0.0000   -0.0000   -0.0106    0.1261   -0.0000
       40 FE2    3d2+       0.0000   -0.0000    0.0000   -0.0000   -0.0000    0.9917   -0.0246    0.0000    0.0000    0.0000
       41 FE2    4d2+      -0.0000    0.0000    0.0000   -0.0000   -0.0000    0.1265   -0.0031    0.0000    0.0000    0.0000
       42 FE2    4f3-      -0.0000    0.0000   -0.0000   -0.0000    0.0000   -0.0000    0.0000   -0.0000   -0.0000    0.0000
       43 FE2    4f2-       0.0000   -0.0000    0.0000    0.0000   -0.0000    0.0000    0.0000    0.0000    0.0000    0.0000
       44 FE2    4f1-      -0.0000    0.0000    0.0000   -0.0000    0.0000   -0.0000   -0.0000    0.0000    0.0000   -0.0000
       45 FE2    4f0       -0.0000   -0.0000    0.0000   -0.0000   -0.0000   -0.0000   -0.0000    0.0000    0.0000    0.0000
       46 FE2    4f1+       0.0000    0.0000   -0.0000    0.0000   -0.0000   -0.0000   -0.0000   -0.0000    0.0000   -0.0000
       47 FE2    4f2+      -0.0000    0.0000    0.0000    0.0000    0.0000    0.0000   -0.0000    0.0000    0.0000    0.0000
       48 FE2    4f3+      -0.0000    0.0000    0.0000   -0.0000   -0.0000   -0.0000    0.0000   -0.0000   -0.0000   -0.0000
 
          Orbital           21        22        23        24    
          Energy           -0.3920   -0.3920   -0.3914   -0.2263
          Occ. No.          0.0000    0.0000    0.0000    0.0000
 
        1 O1     1s        -0.0000    0.0000   -0.0012   -0.0034
        2 O1     2s        -0.0000    0.0000   -0.0151   -0.0392
        3 O1     3s        -0.0000    0.0000   -0.0037   -0.0051
        4 O1     2px       -0.0000   -0.0033   -0.0000   -0.0000
        5 O1     3px       -0.0000   -0.0010   -0.0000   -0.0000
        6 O1     2py       -0.0033    0.0000    0.0000    0.0000
        7 O1     3py       -0.0010    0.0000    0.0000    0.0000
        8 O1     2pz        0.0000   -0.0000    0.0251    0.0415
        9 O1     3pz        0.0000   -0.0000    0.0029    0.0049
       10 O1     3d2-      -0.0000   -0.0000    0.0000    0.0000
       11 O1     3d1-      -0.0001    0.0000    0.0000    0.0000
       12 O1     3d0        0.0000   -0.0000    0.0004    0.0009
       13 O1     3d1+      -0.0000   -0.0001   -0.0000   -0.0000
       14 O1     3d2+      -0.0000    0.0000   -0.0000   -0.0000
       15 FE2    1s        -0.0000   -0.0000    0.0000    0.0000
       16 FE2    2s         0.0000    0.0000    0.0000    0.0002
       17 FE2    3s         0.0000   -0.0000    0.0000   -0.0024
       18 FE2    4s        -0.0000    0.0000    0.0006    0.2487
       19 FE2    5s         0.0000   -0.0000   -0.0030    0.9716
       20 FE2    2px       -0.0000   -0.0003   -0.0000   -0.0000
       21 FE2    3px        0.0001    0.0110    0.0000    0.0000
       22 FE2    4px        0.0112    0.9973    0.0000    0.0000
       23 FE2    5px        0.0008    0.0721    0.0000   -0.0000
       24 FE2    2py       -0.0003    0.0000    0.0000   -0.0000
       25 FE2    3py        0.0110   -0.0001   -0.0000   -0.0000
       26 FE2    4py        0.9973   -0.0112   -0.0000   -0.0000
       27 FE2    5py        0.0721   -0.0008   -0.0000   -0.0000
       28 FE2    2pz       -0.0000    0.0000   -0.0003   -0.0000
       29 FE2    3pz        0.0000   -0.0000    0.0110    0.0001
       30 FE2    4pz        0.0000   -0.0000    0.9982    0.0060
       31 FE2    5pz        0.0000   -0.0000    0.0720   -0.0000
       32 FE2    3d2-       0.0000   -0.0000   -0.0000   -0.0000
       33 FE2    4d2-       0.0000    0.0000   -0.0000   -0.0000
       34 FE2    3d1-      -0.0001    0.0000   -0.0000   -0.0000
       35 FE2    4d1-      -0.0000    0.0000    0.0000    0.0000
       36 FE2    3d0        0.0000    0.0000    0.0007    0.0006
       37 FE2    4d0       -0.0000    0.0000   -0.0004   -0.0008
       38 FE2    3d1+      -0.0000   -0.0001    0.0000    0.0000
       39 FE2    4d1+      -0.0000   -0.0000   -0.0000   -0.0000
       40 FE2    3d2+       0.0000   -0.0000    0.0000   -0.0000
       41 FE2    4d2+      -0.0000   -0.0000    0.0000   -0.0000
       42 FE2    4f3-      -0.0000    0.0000    0.0000    0.0000
       43 FE2    4f2-       0.0000    0.0000   -0.0000    0.0000
       44 FE2    4f1-      -0.0000    0.0000    0.0000   -0.0000
       45 FE2    4f0       -0.0000    0.0000   -0.0000   -0.0000
       46 FE2    4f1+      -0.0000   -0.0000   -0.0000   -0.0000
       47 FE2    4f2+      -0.0000   -0.0000    0.0000   -0.0000
       48 FE2    4f3+       0.0000   -0.0000   -0.0000   -0.0000
--
 
 
++    Molecular charges:
      ------------------
 
      Mulliken charges per centre and basis function type
      ---------------------------------------------------
 
                            O1                      FE2   
                     alpha        beta       alpha        beta
      1s           1.0000      1.0000      1.0000      1.0000
      2s           0.9986      0.9988      1.0000      1.0000
      2px          0.0000      0.9977      1.0000      1.0000
      2pz          0.9965      0.9997      1.0000      1.0000
      2py          0.0000      0.9977      1.0000      1.0000
      3s           0.0006      0.0009      1.0000      1.0000
      3px          0.0000      0.0023      0.9993      0.9998
      3pz          0.0029      0.0001      0.9993      0.9998
      3py          0.0000      0.0023      0.9993      0.9998
      4s           0.0000      0.0000      0.8621      0.0001
      3d2+        -0.0000      0.0000      0.9814      0.0000
      3d1+        -0.0000      0.0000      0.9814     -0.0000
      3d0          0.0009      0.0005      0.9814      0.0000
      3d1-        -0.0000      0.0000      0.9814     -0.0000
      3d2-        -0.0000      0.0000      0.9814      0.0000
      4px          0.0000      0.0000      0.0004      0.0001
      4pz          0.0000      0.0000      0.0009      0.0002
      4py          0.0000      0.0000      0.0004      0.0001
      5s           0.0000      0.0000      0.1378     -0.0001
      4d2+         0.0000      0.0000      0.0186      0.0000
      4d1+         0.0000      0.0000      0.0186     -0.0000
      4d0          0.0000      0.0000      0.0187      0.0000
      4d1-         0.0000      0.0000      0.0186     -0.0000
      4d2-         0.0000      0.0000      0.0186      0.0000
      5px          0.0000      0.0000      0.0003      0.0000
      5pz          0.0000      0.0000      0.0003      0.0000
      5py          0.0000      0.0000      0.0003      0.0000
      4f3+         0.0000      0.0000      0.0000      0.0000
      4f2+         0.0000      0.0000      0.0000      0.0000
      4f1+         0.0000      0.0000      0.0000      0.0000
      4f0          0.0000      0.0000      0.0000      0.0000
      4f1-         0.0000      0.0000      0.0000      0.0000
      4f2-         0.0000      0.0000      0.0000      0.0000
      4f3-         0.0000      0.0000      0.0000      0.0000
      Total        2.9996      5.0000     15.0004      9.0000
      Total              7.9996                 24.0004
 
      Charge            0.0004                  1.9996
 
      Total electronic charge=   32.000000
 
      Total            charge=    2.000000
--
 
 
  Input file to MOLDEN was generated!
 
 
++    Static properties:
      ------------------
 
 
      LoProp Charges per center
 

                   O1       FE2   
      Nuclear      8.0000  26.0000
      Electronic  -7.9999 -24.0001
 
      Total        0.0001   1.9999
--
 
 
++    Natural Bond Order analysis
      ---------------------------
      Based on LoProp computed density
      -------------------------------------------------------------------------------------
      Atom A       Atom B       Bond Order
      -------------------------------------------------------------------------------------
      NBO located     20.000 core electrons.
      NBO located      3.995 lone pair electrons.
      NBO located      1.000 non-bonded electrons on atom O1        
      NBO located      1.000 non-bonded electrons on atom O1        
      NBO located      1.000 non-bonded electrons on atom FE2       
      NBO located      1.000 non-bonded electrons on atom FE2       
      NBO located      1.000 non-bonded electrons on atom FE2       
      NBO located      1.000 non-bonded electrons on atom FE2       
      NBO located      1.000 non-bonded electrons on atom FE2       
      NBO located      1.000 non-bonded electrons on atom FE2       
      The remaining    0.006 electrons are to be considered as diffuse
--
 
 
++    Molecular orbitals:
      -------------------
 
      Title: Natural orbitals

      Molecular orbitals for symmetry species 1: a  
 
          Orbital            1         2         3         4         5         6         7         8         9        10    
          Energy         -264.6129  -33.0542  -27.6464  -27.7119  -27.7111  -20.8884   -5.5902   -4.4641   -4.4611   -4.4619
          Occ. No.          2.0000    2.0000    2.0000    2.0000    2.0000    2.0000    2.0000    1.9999    1.9999    1.9999
 
        1 O1     1s         0.0000    0.0049    0.0951    0.0000   -0.0000    0.9938    0.0456   -0.0019   -0.0000   -0.0000
        2 O1     2s        -0.0000   -0.0001   -0.0031   -0.0000    0.0000   -0.0334   -0.0007   -0.0019   -0.0000    0.0000
        3 O1     3s         0.0000    0.0000   -0.0001   -0.0000    0.0000   -0.0005    0.0002    0.0002    0.0000   -0.0000
        4 O1     2px        0.0000   -0.0000   -0.0000    0.0000   -0.0000    0.0000    0.0000    0.0000    0.0000   -0.0000
        5 O1     3px       -0.0000    0.0000   -0.0000    0.0000   -0.0000   -0.0000    0.0000    0.0000    0.0000   -0.0000
        6 O1     2py       -0.0000   -0.0000    0.0000   -0.0000   -0.0000   -0.0000   -0.0000   -0.0000   -0.0000   -0.0000
        7 O1     3py        0.0000    0.0000   -0.0000   -0.0000   -0.0000    0.0000   -0.0000   -0.0000   -0.0000   -0.0000
        8 O1     2pz        0.0000   -0.0000    0.0011   -0.0000   -0.0000   -0.0009   -0.0038   -0.0230   -0.0000    0.0000
        9 O1     3pz        0.0000   -0.0000    0.0001    0.0000   -0.0000    0.0002   -0.0004   -0.0005   -0.0000    0.0000
       10 O1     3d2-      -0.0000    0.0000   -0.0000   -0.0000   -0.0000    0.0000   -0.0000    0.0000   -0.0000    0.0000
       11 O1     3d1-      -0.0000    0.0000    0.0000    0.0000    0.0000    0.0000    0.0000    0.0000    0.0000    0.0000
       12 O1     3d0       -0.0000    0.0000    0.0000    0.0000   -0.0000    0.0002    0.0001    0.0001    0.0000   -0.0000
       13 O1     3d1+       0.0000   -0.0000   -0.0000   -0.0000    0.0000   -0.0000    0.0000   -0.0000   -0.0000    0.0000
       14 O1     3d2+      -0.0000   -0.0000    0.0000    0.0000    0.0000    0.0000   -0.0000   -0.0000   -0.0000   -0.0000
       15 FE2    1s         1.0000   -0.0000    0.0000    0.0000    0.0000    0.0000   -0.0000    0.0000    0.0000   -0.0000
       16 FE2    2s         0.0000    0.9939    0.0015   -0.0000   -0.0000   -0.0000   -0.1106    0.0004    0.0000   -0.0000
       17 FE2    3s        -0.0000   -0.1105    0.0033    0.0000   -0.0000    0.0458   -0.9928    0.0024    0.0000    0.0000
       18 FE2    4s         0.0000    0.0005   -0.0000   -0.0000    0.0000   -0.0001    0.0022    0.0000    0.0000   -0.0000
       19 FE2    5s        -0.0000   -0.0006    0.0000    0.0000   -0.0000    0.0002   -0.0045   -0.0000    0.0000   -0.0000
       20 FE2    2px       -0.0000    0.0000    0.0000   -0.0031    0.9845    0.0000   -0.0000    0.0000   -0.0022    0.1751
       21 FE2    3px        0.0000   -0.0000   -0.0000    0.0005   -0.1751   -0.0000    0.0000    0.0000   -0.0122    0.9843
       22 FE2    4px       -0.0000    0.0000    0.0000   -0.0000    0.0026    0.0000   -0.0000   -0.0000    0.0002   -0.0151
       23 FE2    5px        0.0000   -0.0000   -0.0000    0.0000   -0.0019   -0.0000    0.0000    0.0000   -0.0001    0.0117
       24 FE2    2py       -0.0000    0.0000    0.0000    0.9846    0.0031   -0.0000   -0.0000   -0.0000    0.1750    0.0022
       25 FE2    3py       -0.0000   -0.0000   -0.0000   -0.1750   -0.0005    0.0000    0.0000   -0.0000    0.9843    0.0122
       26 FE2    4py        0.0000    0.0000    0.0000    0.0026    0.0000   -0.0000   -0.0000    0.0000   -0.0151   -0.0002
       27 FE2    5py       -0.0000   -0.0000   -0.0000   -0.0019   -0.0000    0.0000    0.0000   -0.0000    0.0117    0.0001
       28 FE2    2pz       -0.0000   -0.0016    0.9800   -0.0000   -0.0000   -0.0934   -0.0005    0.1756    0.0000   -0.0000
       29 FE2    3pz       -0.0000    0.0002   -0.1746    0.0000    0.0000    0.0184    0.0026    0.9840    0.0000   -0.0000
       30 FE2    4pz        0.0000   -0.0000    0.0026   -0.0000   -0.0000   -0.0003   -0.0001   -0.0149   -0.0000    0.0000
       31 FE2    5pz        0.0000   -0.0000   -0.0019    0.0000    0.0000    0.0002   -0.0000    0.0117    0.0000   -0.0000
       32 FE2    3d2-      -0.0000    0.0000   -0.0000   -0.0000    0.0000    0.0000    0.0000    0.0000    0.0000   -0.0000
       33 FE2    4d2-      -0.0000   -0.0000    0.0000    0.0000   -0.0000    0.0000   -0.0000   -0.0000   -0.0000    0.0000
       34 FE2    3d1-      -0.0000   -0.0000   -0.0000   -0.0000   -0.0000    0.0000    0.0000   -0.0000    0.0001    0.0000
       35 FE2    4d1-      -0.0000    0.0000    0.0000    0.0000    0.0000   -0.0000   -0.0000    0.0000   -0.0000   -0.0000
       36 FE2    3d0        0.0000   -0.0000   -0.0000    0.0000    0.0000    0.0000    0.0000    0.0001    0.0000   -0.0000
       37 FE2    4d0        0.0000   -0.0000    0.0000    0.0000   -0.0000    0.0000   -0.0000    0.0000    0.0000   -0.0000
       38 FE2    3d1+       0.0000   -0.0000   -0.0000    0.0000   -0.0000   -0.0000    0.0000    0.0000   -0.0000    0.0001
       39 FE2    4d1+       0.0000   -0.0000    0.0000   -0.0000    0.0000    0.0000   -0.0000   -0.0000    0.0000   -0.0000
       40 FE2    3d2+       0.0000   -0.0000   -0.0000    0.0000   -0.0000    0.0000   -0.0000    0.0000    0.0000   -0.0000
       41 FE2    4d2+      -0.0000   -0.0000    0.0000    0.0000    0.0000    0.0000   -0.0000   -0.0000   -0.0000    0.0000
       42 FE2    4f3-       0.0000   -0.0000    0.0000   -0.0000   -0.0000   -0.0000   -0.0000   -0.0000   -0.0000   -0.0000
       43 FE2    4f2-       0.0000   -0.0000   -0.0000    0.0000   -0.0000    0.0000   -0.0000    0.0000   -0.0000    0.0000
       44 FE2    4f1-       0.0000   -0.0000    0.0000    0.0000    0.0000   -0.0000   -0.0000    0.0000   -0.0000   -0.0000
       45 FE2    4f0        0.0000   -0.0000    0.0000   -0.0000   -0.0000   -0.0000    0.0000   -0.0000    0.0000    0.0000
       46 FE2    4f1+       0.0000    0.0000    0.0000   -0.0000    0.0000    0.0000    0.0000   -0.0000    0.0000   -0.0000
       47 FE2    4f2+      -0.0000    0.0000    0.0000    0.0000    0.0000   -0.0000    0.0000   -0.0000   -0.0000    0.0000
       48 FE2    4f3+       0.0000    0.0000   -0.0000    0.0000    0.0000    0.0000    0.0000    0.0000   -0.0000   -0.0000
 
          Orbital           11        12        13        14        15        16        17        18        19        20    
          Energy           -0.7920   -1.4545   -0.7780   -0.7780   -1.0838   -1.0839   -1.0839   -0.7593   -0.7779   -0.7779
          Occ. No.          1.9981    1.9974    1.0001    1.0001    1.0000    1.0000    1.0000    1.0000    0.9999    0.9999
 
        1 O1     1s        -0.0069    0.0329    0.0000   -0.0000   -0.0000   -0.0000   -0.0000    0.0005    0.0000   -0.0000
        2 O1     2s        -0.1792    0.9833    0.0000   -0.0000   -0.0004   -0.0000   -0.0000    0.0053    0.0000   -0.0000
        3 O1     3s         0.0105   -0.0014    0.0000   -0.0000   -0.0005   -0.0000   -0.0000    0.0052    0.0000   -0.0000
        4 O1     2px        0.0000    0.0000   -0.1024    0.6989    0.0000    0.0000   -0.0000    0.0000    0.1023   -0.6988
        5 O1     3px        0.0000    0.0000    0.0048   -0.0330    0.0000   -0.0000    0.0000    0.0000   -0.0049    0.0336
        6 O1     2py       -0.0000   -0.0000    0.6989    0.1024   -0.0000   -0.0000    0.0000   -0.0000   -0.6988   -0.1023
        7 O1     3py       -0.0000   -0.0000   -0.0330   -0.0048   -0.0000    0.0000   -0.0000   -0.0000    0.0336    0.0049
        8 O1     2pz       -0.9830   -0.1790   -0.0000    0.0000   -0.0018   -0.0000   -0.0000    0.0038    0.0000   -0.0000
        9 O1     3pz       -0.0198   -0.0078   -0.0000    0.0000    0.0008    0.0000    0.0000   -0.0059   -0.0000    0.0000
       10 O1     3d2-       0.0000   -0.0000    0.0000   -0.0000    0.0000   -0.0000   -0.0000   -0.0000   -0.0000    0.0000
       11 O1     3d1-       0.0000    0.0000   -0.0033   -0.0005    0.0000    0.0000   -0.0000    0.0000    0.0032    0.0005
       12 O1     3d0        0.0049    0.0051    0.0000   -0.0000   -0.0001   -0.0000   -0.0000    0.0002    0.0000    0.0000
       13 O1     3d1+      -0.0000   -0.0000    0.0005   -0.0033   -0.0000   -0.0000    0.0000   -0.0000   -0.0005    0.0032
       14 O1     3d2+       0.0000    0.0000    0.0000    0.0000    0.0000   -0.0000    0.0000   -0.0000   -0.0000   -0.0000
       15 FE2    1s        -0.0000   -0.0000   -0.0000    0.0000    0.0000    0.0000    0.0000   -0.0000   -0.0000    0.0000
       16 FE2    2s         0.0003    0.0001   -0.0000    0.0000    0.0000    0.0000    0.0000   -0.0003   -0.0000    0.0000
       17 FE2    3s         0.0029    0.0012    0.0000   -0.0000   -0.0000   -0.0000   -0.0000    0.0038    0.0000   -0.0000
       18 FE2    4s         0.0023    0.0001    0.0000   -0.0000    0.0001   -0.0000   -0.0000    0.9281    0.0000   -0.0000
       19 FE2    5s        -0.0003   -0.0007   -0.0000    0.0000    0.0002    0.0000    0.0000   -0.3717   -0.0000    0.0000
       20 FE2    2px        0.0000    0.0000    0.0000   -0.0000   -0.0000   -0.0000    0.0000   -0.0000    0.0000   -0.0000
       21 FE2    3px       -0.0000   -0.0000    0.0000   -0.0001   -0.0000    0.0000   -0.0000   -0.0000    0.0000   -0.0000
       22 FE2    4px       -0.0000    0.0000    0.0000   -0.0003   -0.0000    0.0000   -0.0000   -0.0000   -0.0000    0.0002
       23 FE2    5px       -0.0000   -0.0000    0.0000   -0.0001   -0.0000    0.0000   -0.0000   -0.0000   -0.0000    0.0001
       24 FE2    2py        0.0000    0.0000   -0.0000   -0.0000    0.0000    0.0000    0.0000    0.0000   -0.0000   -0.0000
       25 FE2    3py       -0.0000    0.0000   -0.0001   -0.0000    0.0000    0.0000    0.0000    0.0000   -0.0000   -0.0000
       26 FE2    4py        0.0000   -0.0000   -0.0003   -0.0000    0.0000    0.0000    0.0000    0.0000    0.0002    0.0000
       27 FE2    5py       -0.0000   -0.0000   -0.0001   -0.0000    0.0000    0.0000    0.0000    0.0000    0.0001    0.0000
       28 FE2    2pz       -0.0029   -0.0003    0.0000    0.0000    0.0000   -0.0000    0.0000    0.0000    0.0000   -0.0000
       29 FE2    3pz       -0.0231   -0.0023   -0.0000    0.0000    0.0001    0.0000    0.0000   -0.0001   -0.0000    0.0000
       30 FE2    4pz        0.0078    0.0010   -0.0000    0.0000    0.0003    0.0000    0.0000   -0.0050   -0.0000    0.0000
       31 FE2    5pz        0.0001   -0.0001   -0.0000    0.0000    0.0001    0.0000    0.0000   -0.0004   -0.0000    0.0000
       32 FE2    3d2-      -0.0000   -0.0000   -0.0000    0.0000    0.0000   -0.0786   -0.9875   -0.0000   -0.0000    0.0000
       33 FE2    4d2-       0.0000   -0.0000    0.0000   -0.0000   -0.0000    0.0108    0.1359    0.0000    0.0000   -0.0000
       34 FE2    3d1-      -0.0000   -0.0000    0.6931    0.1015   -0.0000   -0.0000   -0.0000   -0.0000    0.6931    0.1015
       35 FE2    4d1-       0.0000   -0.0000   -0.0955   -0.0140    0.0000    0.0000    0.0000    0.0000   -0.0954   -0.0140
       36 FE2    3d0        0.0020    0.0003   -0.0000    0.0000   -0.9906   -0.0000   -0.0000   -0.0001   -0.0000    0.0000
       37 FE2    4d0        0.0011    0.0001    0.0000   -0.0000    0.1365    0.0000    0.0000   -0.0007    0.0000   -0.0000
       38 FE2    3d1+      -0.0000    0.0000   -0.1015    0.6931    0.0000   -0.0000    0.0000    0.0000   -0.1015    0.6931
       39 FE2    4d1+      -0.0000    0.0000    0.0140   -0.0955   -0.0000    0.0000   -0.0000   -0.0000    0.0140   -0.0954
       40 FE2    3d2+       0.0000    0.0000   -0.0000   -0.0000    0.0000   -0.9875    0.0786   -0.0000   -0.0000   -0.0000
       41 FE2    4d2+      -0.0000   -0.0000    0.0000    0.0000   -0.0000    0.1359   -0.0108    0.0000    0.0000    0.0000
       42 FE2    4f3-       0.0000   -0.0000   -0.0000    0.0000   -0.0000    0.0000   -0.0000    0.0000   -0.0000   -0.0000
       43 FE2    4f2-      -0.0000    0.0000   -0.0000    0.0000    0.0000   -0.0000   -0.0000   -0.0000   -0.0000    0.0000
       44 FE2    4f1-       0.0000   -0.0000    0.0000    0.0000   -0.0000   -0.0000   -0.0000   -0.0000    0.0000    0.0000
       45 FE2    4f0        0.0000    0.0000   -0.0000    0.0000   -0.0000    0.0000   -0.0000   -0.0000   -0.0000    0.0000
       46 FE2    4f1+      -0.0000    0.0000   -0.0000    0.0000    0.0000   -0.0000    0.0000    0.0000   -0.0000    0.0000
       47 FE2    4f2+      -0.0000   -0.0000    0.0000   -0.0000    0.0000   -0.0000    0.0000   -0.0000    0.0000   -0.0000
       48 FE2    4f3+       0.0000   -0.0000    0.0000   -0.0000    0.0000    0.0000   -0.0000   -0.0000   -0.0000   -0.0000
 
          Orbital           21        22        23        24        25        26        27        28        29        30    
          Energy            1.2684    0.3572    0.9465    0.9465    0.9729   -0.2145    0.9208   -0.0410   -0.0410    0.4260
          Occ. No.          0.0026    0.0019    0.0001    0.0001    0.0001    0.0000    0.0000    0.0000    0.0000    0.0000
 
        1 O1     1s         0.0001    0.0003   -0.0000    0.0000   -0.0012    0.0035    0.0018   -0.0000    0.0000    0.0013
        2 O1     2s        -0.0024    0.0075   -0.0000    0.0000   -0.0148    0.0418    0.0195   -0.0000    0.0000    0.0178
        3 O1     3s         0.6961    0.1235   -0.0000    0.0000   -0.0254    0.0950    0.6155    0.0000   -0.0000   -0.3506
        4 O1     2px       -0.0000    0.0000   -0.0001   -0.0031    0.0000    0.0000    0.0000   -0.0003   -0.0069   -0.0000
        5 O1     3px        0.0000   -0.0000   -0.0002   -0.0109    0.0000    0.0000    0.0000   -0.0017   -0.0425    0.0000
        6 O1     2py        0.0000   -0.0000   -0.0031    0.0001   -0.0000   -0.0000   -0.0000   -0.0069    0.0003   -0.0000
        7 O1     3py       -0.0000    0.0000   -0.0109    0.0002   -0.0000   -0.0000   -0.0000   -0.0425    0.0017   -0.0000
        8 O1     2pz        0.0170   -0.0257   -0.0000   -0.0000    0.0100   -0.0437   -0.0197    0.0000   -0.0000   -0.0310
        9 O1     3pz       -0.1769    0.9404   -0.0000    0.0000   -0.0606   -0.1815   -0.1589    0.0000   -0.0000   -0.2659
       10 O1     3d2-       0.0000   -0.0000   -0.0000   -0.0000   -0.0000   -0.0000   -0.0000    0.0000    0.0000   -0.0000
       11 O1     3d1-       0.0000    0.0000    0.0009   -0.0000   -0.0000    0.0000   -0.0000    0.0057   -0.0002    0.0000
       12 O1     3d0        0.6901    0.1514   -0.0000    0.0000   -0.0087    0.0120   -0.5738   -0.0000    0.0000    0.4089
       13 O1     3d1+      -0.0000   -0.0000    0.0000    0.0009    0.0000   -0.0000    0.0000    0.0002    0.0057   -0.0000
       14 O1     3d2+      -0.0000   -0.0000    0.0000    0.0000    0.0000   -0.0000   -0.0000    0.0000    0.0000   -0.0000
       15 FE2    1s        -0.0000    0.0001   -0.0000    0.0000   -0.0000   -0.0000   -0.0000    0.0000   -0.0000   -0.0000
       16 FE2    2s        -0.0002    0.0008   -0.0000    0.0000   -0.0001   -0.0001   -0.0002    0.0000   -0.0000   -0.0002
       17 FE2    3s        -0.0010    0.0046   -0.0000    0.0000   -0.0003    0.0025   -0.0009    0.0000   -0.0000   -0.0012
       18 FE2    4s        -0.0018    0.0217    0.0000   -0.0000   -0.0005   -0.3830   -0.0102   -0.0000    0.0000   -0.0211
       19 FE2    5s         0.0131   -0.0325   -0.0000   -0.0000    0.0114   -0.9435   -0.0076   -0.0000    0.0000   -0.0193
       20 FE2    2px       -0.0000   -0.0000   -0.0000   -0.0002    0.0000    0.0000    0.0000   -0.0000   -0.0000    0.0000
       21 FE2    3px       -0.0000    0.0000   -0.0003   -0.0181   -0.0000   -0.0000   -0.0000    0.0003    0.0070   -0.0000
       22 FE2    4px        0.0000   -0.0000   -0.0091   -0.5160   -0.0000    0.0000   -0.0000    0.0342    0.8561   -0.0000
       23 FE2    5px        0.0000    0.0000    0.0150    0.8563    0.0000    0.0000   -0.0000    0.0207    0.5165   -0.0000
       24 FE2    2py        0.0000    0.0000   -0.0002    0.0000   -0.0000   -0.0000   -0.0000   -0.0000    0.0000   -0.0000
       25 FE2    3py        0.0000   -0.0000   -0.0181    0.0003    0.0000    0.0000    0.0000    0.0070   -0.0003    0.0000
       26 FE2    4py       -0.0000   -0.0000   -0.5160    0.0091    0.0000   -0.0000    0.0000    0.8561   -0.0342    0.0000
       27 FE2    5py       -0.0000    0.0000    0.8563   -0.0150   -0.0000   -0.0000    0.0000    0.5165   -0.0207    0.0000
       28 FE2    2pz       -0.0000    0.0001   -0.0000    0.0000   -0.0002   -0.0000   -0.0000    0.0000    0.0000   -0.0000
       29 FE2    3pz       -0.0002    0.0001   -0.0000    0.0000   -0.0180   -0.0006   -0.0046    0.0000   -0.0000   -0.0065
       30 FE2    4pz        0.0341   -0.1859   -0.0000    0.0000   -0.4962   -0.0003   -0.4867    0.0000   -0.0000   -0.7036
       31 FE2    5pz        0.0035   -0.0026    0.0000   -0.0000    0.8641   -0.0002   -0.2963    0.0000   -0.0000   -0.4237
       32 FE2    3d2-      -0.0000   -0.0000   -0.0000    0.0000   -0.0000    0.0000    0.0000    0.0000   -0.0000    0.0000
       33 FE2    4d2-       0.0000   -0.0000   -0.0000    0.0000   -0.0000    0.0000    0.0000    0.0000   -0.0000    0.0000
       34 FE2    3d1-      -0.0000   -0.0000   -0.0001    0.0000    0.0000    0.0000    0.0000    0.0009   -0.0000   -0.0000
       35 FE2    4d1-      -0.0000    0.0000   -0.0005    0.0000    0.0000   -0.0000    0.0000    0.0058   -0.0002   -0.0000
       36 FE2    3d0        0.0002    0.0010    0.0000   -0.0000    0.0001   -0.0020   -0.0110   -0.0000    0.0000    0.0034
       37 FE2    4d0        0.0053   -0.0123   -0.0000   -0.0000    0.0029   -0.0103   -0.0756   -0.0000    0.0000    0.0306
       38 FE2    3d1+       0.0000    0.0000   -0.0000   -0.0001   -0.0000    0.0000   -0.0000    0.0000    0.0009    0.0000
       39 FE2    4d1+       0.0000   -0.0000   -0.0000   -0.0005   -0.0000    0.0000   -0.0000    0.0002    0.0058    0.0000
       40 FE2    3d2+      -0.0000    0.0000    0.0000   -0.0000    0.0000   -0.0000   -0.0000   -0.0000    0.0000   -0.0000
       41 FE2    4d2+      -0.0000    0.0000    0.0000   -0.0000    0.0000   -0.0000   -0.0000   -0.0000    0.0000   -0.0000
       42 FE2    4f3-       0.0000   -0.0000   -0.0000    0.0000    0.0000   -0.0000   -0.0000    0.0000   -0.0000   -0.0000
       43 FE2    4f2-       0.0000   -0.0000    0.0000    0.0000    0.0000   -0.0000   -0.0000    0.0000   -0.0000   -0.0000
       44 FE2    4f1-      -0.0000    0.0000   -0.0001    0.0000   -0.0000    0.0000    0.0000    0.0005   -0.0000    0.0000
       45 FE2    4f0        0.0002   -0.0004   -0.0000   -0.0000    0.0001   -0.0004   -0.0032   -0.0000    0.0000    0.0006
       46 FE2    4f1+       0.0000   -0.0000   -0.0000   -0.0001    0.0000   -0.0000   -0.0000    0.0000    0.0005   -0.0000
       47 FE2    4f2+      -0.0000    0.0000   -0.0000    0.0000   -0.0000   -0.0000    0.0000   -0.0000   -0.0000   -0.0000
       48 FE2    4f3+      -0.0000   -0.0000   -0.0000    0.0000    0.0000   -0.0000   -0.0000    0.0000    0.0000   -0.0000
 
          Orbital           31        32        33        34        35        36        37        38        39        40    
          Energy            0.2835    0.3652    0.2835    0.3646    0.2845    0.2690    0.2692    1.9156    2.2176    2.6961
          Occ. No.          0.0000    0.0000    0.0000    0.0000    0.0000    0.0000    0.0000    0.0000    0.0000    0.0000
 
        1 O1     1s         0.0005    0.0000   -0.0000    0.0000   -0.0000   -0.0000    0.0000   -0.0000    0.0000   -0.0000
        2 O1     2s         0.0085    0.0000   -0.0000    0.0000   -0.0000   -0.0000    0.0000   -0.0000    0.0000   -0.0000
        3 O1     3s        -0.0305   -0.0000    0.0000   -0.0000    0.0000    0.0000   -0.0000    0.0000   -0.0000    0.0000
        4 O1     2px        0.0000   -0.0059    0.0024   -0.0446    0.0158   -0.0001   -0.0001    0.0050   -0.0016   -0.0009
        5 O1     3px        0.0000   -0.1236    0.0547   -0.9539    0.2636   -0.0017   -0.0007    0.0141   -0.0030   -0.0019
        6 O1     2py        0.0000   -0.0448    0.0151    0.0064   -0.0009    0.0000   -0.0000   -0.0020   -0.0042   -0.0027
        7 O1     3py        0.0000   -0.9577    0.2497    0.1326   -0.0206    0.0001   -0.0002   -0.0065   -0.0131   -0.0082
        8 O1     2pz       -0.0180   -0.0000    0.0000   -0.0000    0.0000    0.0000   -0.0000    0.0000   -0.0000    0.0000
        9 O1     3pz       -0.0782   -0.0000    0.0000   -0.0000    0.0000    0.0000   -0.0000    0.0000   -0.0000    0.0000
       10 O1     3d2-      -0.0000   -0.0000   -0.0000   -0.0000   -0.0002   -0.0031    0.0028   -0.0339    0.1390   -0.1014
       11 O1     3d1-      -0.0000    0.0160   -0.0046   -0.0046   -0.0017    0.0002   -0.0041   -0.3685   -0.7923   -0.4715
       12 O1     3d0        0.0660    0.0000   -0.0000    0.0000   -0.0000   -0.0000    0.0000   -0.0000    0.0000   -0.0000
       13 O1     3d1+      -0.0000    0.0015   -0.0008    0.0136   -0.0057    0.0004   -0.0068    0.9261   -0.3045   -0.1796
       14 O1     3d2+      -0.0000   -0.0000    0.0000    0.0000    0.0000   -0.0053   -0.0019    0.0442    0.0632   -0.2788
       15 FE2    1s        -0.0000   -0.0000    0.0000   -0.0000    0.0000    0.0000   -0.0000    0.0000   -0.0000    0.0000
       16 FE2    2s        -0.0001   -0.0000    0.0000   -0.0000    0.0000    0.0000   -0.0000    0.0000   -0.0000    0.0000
       17 FE2    3s        -0.0004   -0.0000    0.0000   -0.0000    0.0000    0.0000   -0.0000    0.0000   -0.0000    0.0000
       18 FE2    4s        -0.0041   -0.0000    0.0000   -0.0000    0.0000    0.0000   -0.0000    0.0000   -0.0000    0.0000
       19 FE2    5s        -0.0024   -0.0000    0.0000   -0.0000    0.0000    0.0000   -0.0000    0.0000   -0.0000    0.0000
       20 FE2    2px       -0.0000    0.0000   -0.0000    0.0000   -0.0000    0.0000    0.0000   -0.0000    0.0000    0.0000
       21 FE2    3px       -0.0000    0.0000   -0.0000    0.0004   -0.0001    0.0000    0.0000   -0.0000    0.0000    0.0000
       22 FE2    4px        0.0000   -0.0008    0.0001   -0.0052    0.0061   -0.0000    0.0000   -0.0020    0.0006    0.0005
       23 FE2    5px        0.0000   -0.0003    0.0001   -0.0021    0.0024   -0.0000    0.0000   -0.0006    0.0002    0.0001
       24 FE2    2py       -0.0000    0.0000   -0.0000   -0.0000    0.0000   -0.0000    0.0000    0.0000    0.0000    0.0000
       25 FE2    3py       -0.0000    0.0004   -0.0000   -0.0000    0.0000    0.0000    0.0000    0.0000    0.0000    0.0000
       26 FE2    4py        0.0000   -0.0052    0.0060    0.0010    0.0001    0.0000    0.0000    0.0008    0.0018    0.0007
       27 FE2    5py        0.0000   -0.0021    0.0024    0.0004    0.0000    0.0000    0.0000    0.0002    0.0006    0.0002
       28 FE2    2pz       -0.0000   -0.0000    0.0000   -0.0000    0.0000    0.0000   -0.0000    0.0000   -0.0000    0.0000
       29 FE2    3pz       -0.0002   -0.0000    0.0000   -0.0000    0.0000    0.0000   -0.0000    0.0000   -0.0000    0.0000
       30 FE2    4pz        0.0074    0.0000   -0.0000    0.0000   -0.0000   -0.0000    0.0000   -0.0000    0.0000   -0.0000
       31 FE2    5pz        0.0031    0.0000   -0.0000    0.0000   -0.0000   -0.0000    0.0000   -0.0000    0.0000   -0.0000
       32 FE2    3d2-       0.0000   -0.0000   -0.0002    0.0001    0.0000    0.0024   -0.1363   -0.0007    0.0013   -0.0003
       33 FE2    4d2-       0.0000   -0.0002   -0.0015    0.0006    0.0001    0.0173   -0.9904   -0.0052    0.0096   -0.0023
       34 FE2    3d1-      -0.0000   -0.0310   -0.1327   -0.0051   -0.0055   -0.0006    0.0002   -0.0001   -0.0001   -0.0001
       35 FE2    4d1-       0.0000   -0.2299   -0.9624   -0.0364   -0.0400   -0.0045    0.0014   -0.0009   -0.0014   -0.0012
       36 FE2    3d0       -0.1365   -0.0000    0.0000   -0.0000    0.0000    0.0000   -0.0000    0.0000   -0.0000    0.0000
       37 FE2    4d0       -0.9900   -0.0000    0.0000   -0.0000    0.0000    0.0000   -0.0000    0.0000   -0.0000    0.0000
       38 FE2    3d1+      -0.0000    0.0002    0.0067   -0.0320   -0.1325    0.0009   -0.0000    0.0002    0.0002    0.0002
       39 FE2    4d1+      -0.0000    0.0005    0.0488   -0.2375   -0.9608    0.0067   -0.0002    0.0017    0.0016    0.0011
       40 FE2    3d2+      -0.0000    0.0002    0.0006    0.0000   -0.0009   -0.1363   -0.0024    0.0000   -0.0001    0.0002
       41 FE2    4d2+      -0.0000    0.0013    0.0046    0.0000   -0.0067   -0.9904   -0.0173    0.0001   -0.0010    0.0015
       42 FE2    4f3-      -0.0000    0.0000    0.0000    0.0000    0.0000    0.0005    0.0006    0.0052    0.0639   -0.1268
       43 FE2    4f2-      -0.0000    0.0001   -0.0000   -0.0001    0.0000   -0.0032   -0.0004    0.0040    0.0559   -0.1099
       44 FE2    4f1-       0.0000    0.0010   -0.0006   -0.0003    0.0001   -0.0001   -0.0081    0.0184   -0.4986    0.7615
       45 FE2    4f0        0.0010   -0.0001    0.0000   -0.0001    0.0000    0.0000   -0.0000    0.0000   -0.0000    0.0000
       46 FE2    4f1+      -0.0000    0.0001    0.0000    0.0010   -0.0004    0.0020   -0.0022    0.0519    0.0114   -0.2209
       47 FE2    4f2+       0.0000    0.0017   -0.0003   -0.0006    0.0006    0.0009   -0.0007   -0.0003   -0.0050    0.0098
       48 FE2    4f3+      -0.0000   -0.0000   -0.0000   -0.0000   -0.0001   -0.0035   -0.0007    0.0003    0.0102   -0.0191
 
          Orbital           41        42        43        44        45        46        47    
          Energy            1.9068    2.3973    2.9848    3.0341    3.0211    3.1060    2.9935
          Occ. No.          0.0000    0.0000    0.0000    0.0000    0.0000    0.0000    0.0000
 
        1 O1     1s        -0.0000    0.0000    0.0000    0.0000    0.0000    0.0000    0.0000
        2 O1     2s        -0.0000    0.0000    0.0000    0.0000    0.0000    0.0000    0.0000
        3 O1     3s         0.0000    0.0000   -0.0000   -0.0000   -0.0000   -0.0000    0.0000
        4 O1     2px        0.0005   -0.0000   -0.0000   -0.0007   -0.0000    0.0000   -0.0000
        5 O1     3px        0.0011   -0.0001   -0.0001   -0.0017   -0.0001    0.0005   -0.0001
        6 O1     2py        0.0004   -0.0001   -0.0000   -0.0005   -0.0000   -0.0001   -0.0000
        7 O1     3py        0.0013   -0.0003   -0.0001   -0.0016   -0.0001   -0.0018   -0.0001
        8 O1     2pz        0.0000   -0.0000   -0.0000   -0.0000   -0.0000   -0.0000   -0.0000
        9 O1     3pz        0.0000   -0.0000   -0.0000   -0.0000   -0.0000   -0.0000   -0.0000
       10 O1     3d2-       0.8585    0.3881    0.1605    0.1172    0.1344   -0.0003    0.1548
       11 O1     3d1-       0.0777   -0.0117   -0.0048   -0.0873   -0.0043    0.0000   -0.0050
       12 O1     3d0       -0.0000    0.0000    0.0000    0.0000    0.0000    0.0000    0.0000
       13 O1     3d1+       0.0862   -0.0125   -0.0048   -0.0966   -0.0049    0.0001   -0.0056
       14 O1     3d2+      -0.4994    0.6633    0.2743    0.1710    0.2295   -0.0005    0.2642
       15 FE2    1s         0.0000    0.0000    0.0000   -0.0000   -0.0000   -0.0000    0.0000
       16 FE2    2s         0.0000   -0.0000   -0.0000   -0.0000   -0.0000   -0.0000   -0.0000
       17 FE2    3s         0.0000   -0.0000   -0.0000   -0.0000   -0.0000   -0.0000   -0.0000
       18 FE2    4s         0.0000   -0.0000   -0.0000   -0.0000   -0.0000   -0.0000   -0.0000
       19 FE2    5s        -0.0000    0.0000   -0.0000   -0.0000   -0.0000    0.0000   -0.0000
       20 FE2    2px       -0.0000   -0.0000    0.0000    0.0000    0.0000   -0.0000    0.0000
       21 FE2    3px       -0.0000    0.0000    0.0000    0.0000    0.0000   -0.0000    0.0000
       22 FE2    4px       -0.0002    0.0002    0.0000   -0.0002    0.0000    0.0000    0.0000
       23 FE2    5px       -0.0001    0.0001    0.0000   -0.0001    0.0000    0.0000    0.0000
       24 FE2    2py       -0.0000    0.0000    0.0000    0.0000    0.0000    0.0000    0.0000
       25 FE2    3py       -0.0000   -0.0000    0.0000    0.0000    0.0000    0.0000    0.0000
       26 FE2    4py       -0.0002   -0.0001    0.0000    0.0001    0.0000   -0.0000    0.0000
       27 FE2    5py       -0.0000   -0.0000    0.0000    0.0000    0.0000   -0.0000    0.0000
       28 FE2    2pz        0.0000    0.0000    0.0000    0.0000    0.0000   -0.0000    0.0000
       29 FE2    3pz       -0.0000   -0.0000   -0.0000   -0.0000   -0.0000   -0.0000   -0.0000
       30 FE2    4pz       -0.0000    0.0000    0.0000    0.0000    0.0000    0.0000    0.0000
       31 FE2    5pz       -0.0000    0.0000    0.0000    0.0000    0.0000    0.0000    0.0000
       32 FE2    3d2-       0.0003   -0.0002   -0.0001   -0.0005    0.0000    0.0001    0.0001
       33 FE2    4d2-       0.0021   -0.0016   -0.0008   -0.0034    0.0002    0.0007    0.0003
       34 FE2    3d1-       0.0000   -0.0000   -0.0000   -0.0000    0.0000   -0.0000    0.0000
       35 FE2    4d1-       0.0001   -0.0002   -0.0000   -0.0002    0.0000   -0.0001   -0.0000
       36 FE2    3d0        0.0000   -0.0000   -0.0000   -0.0000   -0.0000   -0.0000   -0.0000
       37 FE2    4d0        0.0000   -0.0000   -0.0000   -0.0000   -0.0000   -0.0000   -0.0000
       38 FE2    3d1+      -0.0001    0.0000   -0.0000   -0.0000    0.0000   -0.0001    0.0000
       39 FE2    4d1+      -0.0003    0.0001   -0.0001    0.0001    0.0000   -0.0005    0.0000
       40 FE2    3d2+       0.0000   -0.0009   -0.0006    0.0000    0.0001   -0.0001    0.0002
       41 FE2    4d2+       0.0002   -0.0066   -0.0043    0.0001    0.0010   -0.0006    0.0011
       42 FE2    4f3-       0.0000    0.3461   -0.7868    0.0944   -0.4616   -0.0003    0.1379
       43 FE2    4f2-       0.0000    0.3007    0.0000    0.0821    0.0000   -0.0875   -0.9381
       44 FE2    4f1-      -0.0000    0.2904    0.0000    0.2948    0.0000   -0.0000    0.0000
       45 FE2    4f0       -0.0000    0.0000   -0.0000   -0.0000   -0.0000   -0.0000   -0.0000
       46 FE2    4f1+      -0.0000   -0.3334    0.0000    0.9150    0.0000    0.0000    0.0000
       47 FE2    4f2+      -0.0000   -0.0270    0.0000   -0.0074    0.0000   -0.9962    0.0822
       48 FE2    4f3+      -0.0000    0.0528    0.5291    0.0145   -0.8463   -0.0000    0.0211
--
 
 
++    Molecular properties:
      ---------------------
 
      Charge (e):
                      =    2.0000
      Dipole Moment (Debye):
      Origin of the operator (Ang)=    0.0000    0.0000    0.0000
                   X=  2.2298E-12               Y= -1.8922E-12               Z= -1.7033E+01           Total=  1.7033E+01
      Center of Charge (Ang)
                     X=    0.00000000               Y=   -0.00000000               Z=   -1.77308511
      Quadrupole Moment (Debye*Ang):
      Origin of the operator (Ang)=    0.0000    0.0000   -0.6389
                  XX= -1.4217E+01              XY= -1.1738E-13              XZ=  3.8284E-11              YY= -1.4217E+01
                  YZ= -7.7313E-11              ZZ= -1.8771E+00
      In traceless form (Debye*Ang)
                  XX= -6.1700E+00              XY= -1.7608E-13              XZ=  5.7426E-11              YY= -6.1700E+00
                  YZ= -1.1597E-10              ZZ=  1.2340E+01
--
 
 
  Input file to MOLDEN was generated!
 
 ###############################################################################
 ###############################################################################
 ###                                                                         ###
 ###                                                                         ###
 ###    RunFile label nBas                                                   ###
 ###    was used       86 times                                              ###
 ###                                                                         ###
 ###                                                                         ###
 ###############################################################################
 ###############################################################################
--- Stop Module: scf at Sun Dec 22 16:41:58 2024 /rc=_RC_ALL_IS_WELL_ ---
*** files: 5.18.LprOrb 5.18.LoProp.molden 5.18.scf.molden 5.18.scf.h5 5.18.UhfOrb 5.18.UnaOrb xmldump
    saved to directory /home/grierjones/DDCASPT2/iron_oxo_DDCASPT2/cluster/5.18

>>> COPY /tmp/5.18/5.18.scf.h5 /home/grierjones/DDCASPT2/iron_oxo_DDCASPT2/cluster/5.18/

*** symbolic link created: INPORB -> 5.18.UnaOrb
--- Start Module: rasscf at Sun Dec 22 16:41:58 2024 ---
 
()()()()()()()()()()()()()()()()()()()()()()()()()()()()()()()()()()()()()()()()()()()()()()()()()()

                                              &RASSCF

                                   only a single process is used
                       available to each process: 2.0 GB of memory, 1 thread?
()()()()()()()()()()()()()()()()()()()()()()()()()()()()()()()()()()()()()()()()()()()()()()()()()()
 
 ###############################################################################
 ###############################################################################
 ###                                                                         ###
 ###                                                                         ###
 ###    LUMORB input error.                                                  ###
 ###                                                                         ###
 ###                                                                         ###
 ###############################################################################
 ###############################################################################
  Keyword LUMORB used with file name StartOrbFile=
 /home/grierjones/DDCASPT2/iron_oxo_DDCASPT2/cluster/5.17/5.17.RasOrb           
                                                  
  but that file cannot be used. Perhaps it does
  not exist?
 
 *************** WARNING ****************
 ###############################################################################
 ###############################################################################
 ###                                                                         ###
 ###                                                                         ###
 ###    Too many macro-iterations.                                           ###
 ###                                                                         ###
 ###                                                                         ###
 ###############################################################################
 ###############################################################################
 Too many macro-iterations requested.
 Reset to maximum, new MAXIT=     200
 ****************************************
 
 *************** WARNING ****************
 ###############################################################################
 ###############################################################################
 ###                                                                         ###
 ###                                                                         ###
 ###    Too many SX-iterations.                                              ###
 ###                                                                         ###
 ###                                                                         ###
 ###############################################################################
 ###############################################################################
 Too many SX-iterations requested.
 Reset to maximum, new ITMAX=     100
 ****************************************
 
      Header of the ONEINT file:
      --------------------------
      
      Integrals generated by seward 4.2.0  , Sun Dec 22 16:41:57 2024
 
 
      OrdInt status: non-squared
 
 
      Cartesian coordinates in Angstrom:
      -----------------------------------------------------
      No.  Label        X            Y            Z        
      -----------------------------------------------------
       1   O1         0.00000000   0.00000000   3.39138000
       2   FE2        0.00000000   0.00000000  -1.79138000
      -----------------------------------------------------
      Nuclear repulsion energy =   21.23749890
 
++    Wave function specifications:
      -----------------------------
 
      Number of closed shell electrons          22
      Number of electrons in active shells      10
      Max number of holes in RAS1 space          0
      Max nr of electrons in RAS3 space          0
      Number of inactive orbitals               11
      Number of active orbitals                 14
      Number of secondary orbitals              23
      Spin quantum number                      2.0
      State symmetry                             1
--
 
++    Orbital specifications:
      -----------------------
 
      Symmetry species                           1
                                                 a
      Frozen orbitals                            0
      Inactive orbitals                         11
      Active orbitals                           14
      RAS1 orbitals                              0
      RAS2 orbitals                             14
      RAS3 orbitals                              0
      Secondary orbitals                        23
      Deleted orbitals                           0
      Number of basis functions                 48
--
 
++    CI expansion specifications:
      ----------------------------
 
      Number of CSFs                        975975
      Number of determinants               1249248
      Number of root(s) required                 1
      Root chosen for geometry opt.              1
      CI root used                               1
         
      highest root included in the CI            1
      max. size of the explicit Hamiltonian    200
--
 
++    Optimization specifications:
      ----------------------------
 
      RASSCF algorithm: Conventional
      Maximum number of macro iterations       200
      Maximum number of SX iterations          100
      Threshold for RASSCF energy            0.100E-07
      Threshold for max MO rotation          0.100E+00
      Threshold for max BLB element          0.100E-03
      Level shift parameter                  0.500E+00
      Make Quasi-Newton update
--
 
 RdVec: File 
 /home/grierjones/DDCASPT2/iron_oxo_DDCASPT2/cluster/5.17/5.17.RasOrb 
  not found!
[ process      0]: xquit (rc =    128): _INTERNAL_ERROR_
abort: 
--- Stop Module: rasscf at Sun Dec 22 16:41:58 2024 /rc=_RC_FLOATING_EXCEPTION_ ---
*** files: xmldump
    saved to directory /home/grierjones/DDCASPT2/iron_oxo_DDCASPT2/cluster/5.18

.########################.
.# Non-zero return code #.
.########################.

    Timing: Wall=1.69 User=1.45 System=0.23
************************************
*** WorkDir at /tmp/5.18 cleaned ***
************************************
