   This run of MOLCAS is using the pymolcas driver

                             OPE
                             OPE          NMOL  CASOP  ENMOLC A   SO
                 OPE        NMOLC        AS  OP EN  MO LC     AS  OP
                OPENM       OL CA        SO  PE NM  OL CA     SOP EN
                OP EN      MO   LC       AS  OP ENMOL  CASO   PENMOL
                OP  EN     MO   LC       AS  OP EN     MO     LC ASO
               OP   E  NMOL  C  AS       OP  EN MO     LC     AS  OP
               OP  E   NMO   LC AS        OPEN  MO     LCASOP EN   M
               O  PEN   MO  LCA  SO
            OPE   NMO   L   CAS    OP
        OPENMOL  CASOP     ENMOL   CASOPE
     OPENMOLCA   SOPENMOLCASOPEN   MOLCASOPE
    OPENMOLCAS   OP           EN   MOL    CAS
    OPENMOLCAS       OP  ENM        O     LCA
    OPENMOLCAS    OPEN  MOLCASO     P  E  NMO
    OPENMOLCAS     OP               E  N  MOL
    OPENMOLCA   SO           PENM   O  L  CAS    OPEN    MO    LCAS
    OPENMOLCA   SOP           ENM   O  L  CAS   OP  EN  MOLC  AS   O
    OPENMOLCA   SOPE           NM      O  LCA   S      OP  EN MO
    OPENMOLC                AS         O  PEN   M      OL  CA  SOPE
    OPENMO        LCASOPE  NMOL        C  ASO   P      ENMOLC     AS
    OPE     NMO      LCA  SO     P     E   NM   OL  CA SO  PE N   MO
          OPENMOLCA            SOPE   NMO        LCAS  O    P  ENMO
     OPENMOLCASOPENMOLCASOPENMOLCASOPENMOLCA
        OPENMOLCASOPENMOLCASOPENMOLCASOPE
            OPENMOLCASOPENMOLCASOPENM
               OPENMOLCASOPENMOLCA        version: ea724fe96-dirty
                   OPENMOLCASO
                       OPE                tag:

 OpenMolcas is free software; you can redistribute it and/or modify it
 under the terms of the GNU Lesser General Public License version 2.1.
 OpenMolcas is distributed in the hope that it will be useful, but it
 is provided "as is" and without any express or implied warranties.
 For more details see the full text of the license in the file
 LICENSE or in <http://www.gnu.org/licenses/>.

                 Copyright (C) The OpenMolcas Authors
           For the author list and the recommended citation,
                   consult the file CONTRIBUTORS.md

           *************************************************
           * pymolcas version py2.28                       *
           *   build c4a6d18ded8cb6cad61d2372a9abd97c      *
           *   (after the EMIL interpreter by V. Veryazov) *
           *************************************************

configuration info
------------------
C Compiler ID: Intel
C flags: -std=gnu99
Fortran Compiler ID: Intel
Fortran flags: -fpp -i8 -r8 -heap-arrays
Definitions: _MOLCAS_;_I8_;_LINUX_
Parallel: OFF (GA=OFF)


   -------------------------------------------------------------------------------
  |
  |              Project: 5.18
  |       Submitted from: /home/grierjones/DDCASPT2/iron_oxo_DDCASPT2/cluster/5.18
  |         Scratch area: /tmp/5.18
  |      Save outputs to: /home/grierjones/DDCASPT2/iron_oxo_DDCASPT2/cluster/5.18
  |               Molcas: /home/grierjones/Test/build
  |
  | Scratch area is empty
  |
  |       MOLCAS_DRIVER = /usr/local/pymolcas
  | MOLCAS_KEEP_WORKDIR = NO
  |  MOLCAS_NEW_WORKDIR = YES
  |       MOLCAS_NPROCS = 1
  |        MOLCAS_PRINT = NORMAL
  |       MOLCAS_SOURCE = /home/grierjones/Test/build
  |    MOLCAS_STRUCTURE = 0
  |
   -------------------------------------------------------------------------------

++ ---------   Input file   ---------

&GATEWAY
coord=5.18.xyz
Basis = ANO-RCC-VDZP
Group = nosymm
Expert
End of Input

&SEWARD
End of Input

&SCF
UHF
charge
2
spin
5
FileOrb
/home/grierjones/DDCASPT2/iron_oxo_DDCASPT2/cluster/5.17/5.17.UhfOrb

>>> COPY $WorkDir/5.18.scf.h5 $CurrDir/

&RASSCF
Title= RASSCF
FileOrb
/home/grierjones/DDCASPT2/iron_oxo_DDCASPT2/cluster/5.17/5.17.RasOrb
NACTEL
10 0 0
RAS2
14
Symmetry
1
Spin
5
charge
2
orblisting
all
ITERation
300 200

>>> COPY $WorkDir/5.18.rasscf.h5 $CurrDir/

>>> COPY $WorkDir/GMJ_Fock_MO.csv $CurrDir/5.18.GMJ_Fock_MO.csv

>>> COPY $WorkDir/GMJ_PT2_Fock_MO.csv $CurrDir/5.18.GMJ_PT2_Fock_MO.csv

&MOTRA
Frozen=0
LUMORB

>>> COPY $WorkDir/GMJ_one_int_indx.csv $CurrDir/5.18.GMJ_one_int_indx.csv

>>> COPY $WorkDir/GMJ_one_int.csv $CurrDir/5.18.GMJ_one_int.csv

>>> COPY $WorkDir/GMJ_two_int_indx.csv $CurrDir/5.18.GMJ_two_int_indx.csv

>>> COPY $WorkDir/GMJ_two_int.csv $CurrDir/5.18.GMJ_two_int.csv

&CASPT2
Frozen
0
MAXITER
50

>>> FOREACH i IN (B,E,F,G,H)

  >>> FOREACH j IN (P,M)

    >>> IF (-FILE GMJ_e2_${i}_${j}.csv)

      >>> COPY $WorkDir/GMJ_RHS_${i}_${j}.csv $CurrDir/GMJ_RHS_${i}_${j}.csv

      >>> COPY $WorkDir/GMJ_IVECW_${i}_${j}.csv $CurrDir/GMJ_IVECW_${i}_${j}.csv

      >>> COPY $WorkDir/GMJ_IVECX_${i}_${j}.csv $CurrDir/GMJ_IVECX_${i}_${j}.csv

      >>> COPY $WorkDir/GMJ_IVECC2_${i}_${j}.csv $CurrDir/GMJ_IVECC2_${i}_${j}.csv

      >>> COPY $WorkDir/GMJ_e2_${i}_${j}.csv $CurrDir/GMJ_e2_${i}_${j}.csv

    >>> END IF

  >>> END FOREACH

>>> END FOREACH

>>> FOREACH i IN (A,C,D)

  >>> IF (-FILE GMJ_e2_$i.csv)

    >>> COPY $WorkDir/GMJ_RHS_$i.csv $CurrDir/GMJ_RHS_$i.csv

    >>> COPY $WorkDir/GMJ_IVECW_$i.csv $CurrDir/GMJ_IVECW_$i.csv

    >>> COPY $WorkDir/GMJ_IVECX_$i.csv $CurrDir/GMJ_IVECX_$i.csv

    >>> COPY $WorkDir/GMJ_IVECC2_$i.csv $CurrDir/GMJ_IVECC2_$i.csv

    >>> COPY $WorkDir/GMJ_e2_$i.csv $CurrDir/GMJ_e2_$i.csv

  >>> END IF

>>> END FOREACH

-- ----------------------------------

--- Start Module: gateway at Wed Dec 25 05:44:43 2024 ---
 
()()()()()()()()()()()()()()()()()()()()()()()()()()()()()()()()()()()()()()()()()()()()()()()()()()

                                              &GATEWAY

                                   only a single process is used
                       available to each process: 2.0 GB of memory, 1 thread?
()()()()()()()()()()()()()()()()()()()()()()()()()()()()()()()()()()()()()()()()()()()()()()()()()()
 
 ###############################################################################
 ###############################################################################
 ###                                                                         ###
 ###                                                                         ###
 ###                                                                         ###
 ###    WARNING: EXPERT option is ON!                                        ###
 ###                                                                         ###
 ###                                                                         ###
 ###############################################################################
 ###############################################################################
 
++    Symmetry information:
      ---------------------
 
                    Character Table for C1 
 
                             E  
                    a        1  x, y, xy, Rz, z, xz, Ry, yz, Rx, I
--
 
 
++    Basis set information:
      ----------------------
 
 
      Basis set label: O.ANO-RCC...3S2P1D.
 
      Electronic valence basis set:
      ------------------
      Associated Effective Charge   8.000000 au
      Associated Actual Charge      8.000000 au
      Nuclear Model: Point charge
 
      Shell  nPrim  nBasis  Cartesian Spherical Contaminant
         s      14       3        X                  
         p       9       2        X                  
         d       4       1                 X         
 
 
      Basis set label: FE.ANO-RCC...5S4P2D1F.
 
      Electronic valence basis set:
      ------------------
      Associated Effective Charge  26.000000 au
      Associated Actual Charge     26.000000 au
      Nuclear Model: Point charge
 
      Shell  nPrim  nBasis  Cartesian Spherical Contaminant
         s      21       5        X                  
         p      15       4        X                  
         d      10       2                 X         
         f       6       1                 X         
--
 
 
++    Molecular structure info:
      -------------------------
 
                    ************************************************ 
                    **** Cartesian Coordinates / Bohr, Angstrom **** 
                    ************************************************ 
 
     Center  Label                x              y              z                     x              y              z
        1      O1               0.000000       0.000000       6.408779              0.000000       0.000000       3.391380
        2      FE2              0.000000       0.000000      -3.385218              0.000000       0.000000      -1.791380
--
 
 
            Nuclear Potential Energy             21.23749890 au
 
 ###############################################################################
 ###############################################################################
 ###                                                                         ###
 ###                                                                         ###
 ###    There were warnings during the execution                             ###
 ###    Please, check the output with care!                                  ###
 ###                                                                         ###
 ###                                                                         ###
 ###############################################################################
 ###############################################################################
--- Stop Module: gateway at Wed Dec 25 05:44:44 2024 /rc=_RC_ALL_IS_WELL_ ---
*** files: xmldump
    saved to directory /home/grierjones/DDCASPT2/iron_oxo_DDCASPT2/cluster/5.18

--- Start Module: seward at Wed Dec 25 05:44:44 2024 ---
 
()()()()()()()()()()()()()()()()()()()()()()()()()()()()()()()()()()()()()()()()()()()()()()()()()()

                                              &SEWARD

                                   only a single process is used
                       available to each process: 2.0 GB of memory, 1 thread?
()()()()()()()()()()()()()()()()()()()()()()()()()()()()()()()()()()()()()()()()()()()()()()()()()()
 
 ###############################################################################
 ###############################################################################
 ###                                                                         ###
 ###                                                                         ###
 ###                                                                         ###
 ###    WARNING: EXPERT option is ON!                                        ###
 ###                                                                         ###
 ###                                                                         ###
 ###############################################################################
 ###############################################################################
               SEWARD will generate:
                  Multipole Moment integrals up to order  2
                  Kinetic Energy integrals
                  Nuclear Attraction integrals (point charge)
                  One-Electron Hamiltonian integrals
                  Velocity integrals
                  Relativistic Douglas-Kroll-Hess integrals:
                    - Parametrization         : EXP
                    - DKH order of Hamiltonian: 2
                    - DKH order of Properties : 0
                         - multipole moment operators
                         - electric potential operators
                         - contact operators
                  Atomic mean-field integrals
                  Two-Electron Repulsion integrals
 
                   Integrals are discarded if absolute value <: 0.10E-13
                   Integral cutoff threshold is set to       <: 0.10E-15
 
            Nuclear Potential Energy             21.23749890 au
 
 
      Basis set specifications :
      Symmetry species         a  
      Basis functions           48
 
 
  Input file to MOLDEN was generated!
 
 ###############################################################################
 ###############################################################################
 ###                                                                         ###
 ###                                                                         ###
 ###    There were warnings during the execution                             ###
 ###    Please, check the output with care!                                  ###
 ###                                                                         ###
 ###                                                                         ###
 ###############################################################################
 ###############################################################################
--- Stop Module: seward at Wed Dec 25 05:44:44 2024 /rc=_RC_ALL_IS_WELL_ ---
*** files: 5.18.GssOrb 5.18.guessorb.h5 5.18.guessorb.molden xmldump
    saved to directory /home/grierjones/DDCASPT2/iron_oxo_DDCASPT2/cluster/5.18

*** symbolic link created: INPORB -> 5.18.GssOrb
--- Start Module: scf at Wed Dec 25 05:44:45 2024 ---
 
()()()()()()()()()()()()()()()()()()()()()()()()()()()()()()()()()()()()()()()()()()()()()()()()()()

                                                &SCF

                                   only a single process is used
                       available to each process: 2.0 GB of memory, 1 thread?
()()()()()()()()()()()()()()()()()()()()()()()()()()()()()()()()()()()()()()()()()()()()()()()()()()
 
 *** Possible bug in opening file
 *** isFreeUnit resets the unit number
++    Input section:
      --------------
 
      Header of the integral files:
      
       Integrals generated by seward 4.2.0  , Wed Dec 25 05:44:44 2024
 
 
      Cartesian coordinates in Angstrom:
      -----------------------------------------------------
      No.  Label        X            Y            Z        
      -----------------------------------------------------
       1   O1         0.00000000   0.00000000   3.39138000
       2   FE2        0.00000000   0.00000000  -1.79138000
      -----------------------------------------------------
      Nuclear repulsion energy =   21.23749890
--
 
++    Orbital specifications:
      -----------------------
 
      Symmetry species               1
                                     a
      Frozen orbitals                0
      Occupied orbitals alpha       18
      Occupied orbitals beta        14
      Secondary orbitals alpha      30
      Secondary orbitals beta       34
      Deleted orbitals               0
      Total number of orbitals      48
      Number of basis functions     48
--
 
      Molecular charge                           2.000
 
++    Optimization specifications:
      ----------------------------
 
      SCF Algorithm: Conventional USCF
      D(i)-D(i-1) density differences are used
      Number of density matrices in core                5
      Maximum number of NDDO SCF iterations           400
      Maximum number of HF SCF iterations             400
      Threshold for SCF energy change            0.10E-08
      Threshold for density matrix               0.10E-03
      Threshold for Fock matrix                  0.15E-03
      Threshold for linear dependence            0.10E-08
      Threshold at which DIIS is turned on       0.15E+00
      Threshold at which QNR/C2DIIS is turned on 0.75E-01
      Threshold for Norm(delta) (QNR/C2DIIS)     0.20E-04
      DIIS extrapolation of the SCF procedure
      All orbitals punched on: UHFORB
--
 
      Input vectors read from INPORB
      Orbital file label: * UHF orbitals
 
 
++ Convergence information
                               UHF SCF        iterations: Energy and convergence statistics
 
Iter     Tot. SCF        One-elec.       Two-elec.     Energy      Max Dij or  Max Fij      DNorm      TNorm      AccCon     Time
         Energy          Energy          Energy        Change      Delta Norm                                                in Sec.
 
 The total and one-electron energies are shifted by a value of      1000. a.u.
 
   1  -345.257024324  -890.627357240   524.132834012   0.00E+00    0.81E-04    0.33E-04     0.80E+01   0.18E+03   None         0.
   2  -345.257024337  -890.627579084   524.133055843  -0.13E-07*   0.43E-04    0.11E-04     0.31E-03   0.18E+03   EDIIS        0.
   3  -345.257024339  -890.627344339   524.132821096  -0.21E-08*   0.15E-04    0.19E-04     0.13E-03   0.18E+03   c2DIIS       0.
   4  -345.257024340  -890.627908587   524.133385343  -0.65E-09    0.38E-04*   0.94E-05     0.72E-04   0.18E+03   QNRc2DIIS    0.
   5  -345.257024340  -890.627015806   524.132492562  -0.12E-09    0.17E-04    0.86E-05     0.54E-04   0.18E+03   QNRc2DIIS    0.
 
       Convergence after  5 Macro Iterations
--
 
 *****************************************************************************************************************************
 *                                                                                                                           *
 *                                             SCF/KS-DFT Program, Final results                                             *
 *                                                                                                                           *
 *                                                                                                                           *
 *                                                                                                                           *
 *                                                       Final Results                                                       *
 *                                                                                                                           *
 *****************************************************************************************************************************
 
::    Total SCF energy                              -1345.2570243400
      One-electron energy                           -1890.6270158063
      Two-electron energy                             524.1324925624
      Nuclear repulsion energy                         21.2374989039
      Kinetic energy (interpolated)                  1399.3955195726
      Virial theorem                                    0.9613129423
      Total spin, S(S+1)                                7.0175774463
      Total spin, S                                     2.1958444774
      Max non-diagonal density matrix element           0.0000057964
      Max non-diagonal Fock matrix element              0.0000044003
 
 
      All orbitals with orbital energies smaller than  E(LUMO)+0.5 are printed
 
++    Molecular orbitals:
      -------------------
 
      Title: UHF orbitals (alpha)

      Molecular orbitals for symmetry species 1: a  
 
          Orbital            1         2         3         4         5         6         7         8         9        10    
          Energy         -263.8781  -32.6546  -27.7381  -27.7381  -27.7073  -21.5002   -4.5686   -3.1459   -3.1459   -3.0743
          Occ. No.          1.0000    1.0000    1.0000    1.0000    1.0000    1.0000    1.0000    1.0000    1.0000    1.0000
 
        1 O1     1s        -0.0000   -0.0000    0.0000    0.0000   -0.0000    1.0000    0.0000   -0.0000   -0.0000    0.0000
        2 O1     2s        -0.0000   -0.0000    0.0000    0.0000   -0.0000    0.0003    0.0001   -0.0000   -0.0000    0.0001
        3 O1     3s        -0.0000   -0.0000    0.0000    0.0000   -0.0000   -0.0010    0.0001   -0.0000   -0.0000    0.0001
        4 O1     2px        0.0000    0.0000    0.0000   -0.0000    0.0000   -0.0000    0.0000   -0.0000    0.0000   -0.0000
        5 O1     3px        0.0000    0.0000    0.0000   -0.0000    0.0000    0.0000    0.0000   -0.0001    0.0000   -0.0000
        6 O1     2py       -0.0000   -0.0000   -0.0000   -0.0000   -0.0000    0.0000   -0.0000    0.0000    0.0000    0.0000
        7 O1     3py       -0.0000   -0.0000   -0.0000   -0.0000   -0.0000   -0.0000   -0.0000    0.0000    0.0001    0.0000
        8 O1     2pz        0.0000    0.0000   -0.0000   -0.0000    0.0000   -0.0000   -0.0000    0.0000    0.0000   -0.0000
        9 O1     3pz        0.0000    0.0000   -0.0000   -0.0000    0.0000    0.0000   -0.0001    0.0000    0.0000   -0.0000
       10 O1     3d2-      -0.0000    0.0000   -0.0000    0.0000   -0.0000    0.0000    0.0000    0.0000    0.0000    0.0000
       11 O1     3d1-       0.0000    0.0000    0.0000    0.0000    0.0000    0.0000    0.0000   -0.0000   -0.0000   -0.0000
       12 O1     3d0       -0.0000   -0.0000    0.0000    0.0000   -0.0000   -0.0015    0.0000   -0.0000   -0.0000   -0.0000
       13 O1     3d1+      -0.0000   -0.0000   -0.0000    0.0000   -0.0000   -0.0000   -0.0000    0.0000   -0.0000    0.0000
       14 O1     3d2+      -0.0000   -0.0000   -0.0000   -0.0000    0.0000    0.0000    0.0000   -0.0000   -0.0000    0.0000
       15 FE2    1s         1.0000    0.0000    0.0000    0.0000   -0.0000    0.0000   -0.0000   -0.0000   -0.0000    0.0000
       16 FE2    2s        -0.0000    1.0000    0.0000    0.0000   -0.0004   -0.0000   -0.0023    0.0000    0.0000   -0.0000
       17 FE2    3s         0.0000    0.0023    0.0000    0.0000   -0.0000    0.0000    0.9999    0.0000    0.0000   -0.0017
       18 FE2    4s        -0.0000   -0.0001   -0.0000   -0.0000    0.0000    0.0000    0.0063   -0.0000   -0.0000    0.0008
       19 FE2    5s         0.0000    0.0001   -0.0000   -0.0000    0.0000    0.0000   -0.0044    0.0000    0.0000   -0.0005
       20 FE2    2px       -0.0000   -0.0000   -0.7164    0.6977   -0.0000   -0.0000   -0.0000    0.0015   -0.0013    0.0000
       21 FE2    3px        0.0000   -0.0000   -0.0015    0.0014   -0.0000   -0.0000   -0.0000   -0.7497    0.6616   -0.0000
       22 FE2    4px       -0.0000   -0.0000    0.0002   -0.0002    0.0000   -0.0000   -0.0000   -0.0024    0.0022   -0.0000
       23 FE2    5px        0.0000   -0.0000   -0.0005    0.0004   -0.0000   -0.0000   -0.0000    0.0032   -0.0028    0.0000
       24 FE2    2py        0.0000    0.0000    0.6977    0.7164    0.0001    0.0000    0.0000   -0.0013   -0.0015   -0.0000
       25 FE2    3py       -0.0000    0.0000    0.0014    0.0015    0.0000    0.0000    0.0000    0.6616    0.7497    0.0001
       26 FE2    4py        0.0000    0.0000   -0.0002   -0.0002   -0.0000    0.0000    0.0000    0.0022    0.0024    0.0000
       27 FE2    5py       -0.0000    0.0000    0.0004    0.0005    0.0000    0.0000    0.0000   -0.0028   -0.0032   -0.0000
       28 FE2    2pz        0.0000    0.0004   -0.0001   -0.0000    1.0000   -0.0000   -0.0000    0.0000    0.0000   -0.0016
       29 FE2    3pz       -0.0000    0.0000   -0.0000   -0.0000    0.0016    0.0000    0.0017   -0.0001   -0.0000    1.0000
       30 FE2    4pz        0.0000    0.0000    0.0000    0.0000   -0.0001    0.0000    0.0002   -0.0000   -0.0000    0.0058
       31 FE2    5pz       -0.0000    0.0000   -0.0000   -0.0000    0.0003    0.0000   -0.0001    0.0000    0.0000   -0.0057
       32 FE2    3d2-       0.0000    0.0000   -0.0000    0.0000   -0.0000   -0.0000    0.0000   -0.0000    0.0000   -0.0000
       33 FE2    4d2-      -0.0000   -0.0000    0.0000   -0.0000    0.0000   -0.0000   -0.0000    0.0000   -0.0000    0.0000
       34 FE2    3d1-      -0.0000   -0.0000    0.0000    0.0000    0.0000    0.0000   -0.0000    0.0006    0.0007    0.0000
       35 FE2    4d1-       0.0000    0.0000   -0.0000   -0.0000   -0.0000    0.0000    0.0000    0.0001    0.0001    0.0000
       36 FE2    3d0       -0.0000   -0.0005   -0.0000   -0.0000    0.0000    0.0000   -0.0124   -0.0000   -0.0000    0.0009
       37 FE2    4d0        0.0000    0.0004    0.0000    0.0000   -0.0000    0.0000    0.0042   -0.0000   -0.0000    0.0003
       38 FE2    3d1+       0.0000    0.0000   -0.0000    0.0000   -0.0000   -0.0000    0.0000   -0.0007    0.0006   -0.0000
       39 FE2    4d1+      -0.0000   -0.0000    0.0000   -0.0000    0.0000   -0.0000   -0.0000   -0.0001    0.0001   -0.0000
       40 FE2    3d2+       0.0000    0.0000   -0.0000   -0.0000    0.0000   -0.0000    0.0000   -0.0000   -0.0000    0.0000
       41 FE2    4d2+      -0.0000   -0.0000    0.0000    0.0000   -0.0000   -0.0000   -0.0000    0.0000    0.0000   -0.0000
       42 FE2    4f3-      -0.0000   -0.0000    0.0000    0.0000    0.0000   -0.0000   -0.0000    0.0000    0.0000    0.0000
       43 FE2    4f2-       0.0000    0.0000    0.0000   -0.0000    0.0000   -0.0000    0.0000    0.0000   -0.0000    0.0000
       44 FE2    4f1-      -0.0000   -0.0000   -0.0002   -0.0002   -0.0000    0.0000   -0.0000   -0.0053   -0.0060   -0.0000
       45 FE2    4f0        0.0000   -0.0000    0.0000    0.0000   -0.0001    0.0000   -0.0000    0.0000    0.0000   -0.0018
       46 FE2    4f1+       0.0000    0.0000    0.0002   -0.0002    0.0000   -0.0000    0.0000    0.0060   -0.0053    0.0000
       47 FE2    4f2+      -0.0000    0.0000    0.0000    0.0000    0.0000   -0.0000    0.0000    0.0000    0.0000    0.0000
       48 FE2    4f3+      -0.0000   -0.0000   -0.0000    0.0000    0.0000   -0.0000   -0.0000   -0.0000    0.0000    0.0000
 
          Orbital           11        12        13        14        15        16        17        18        19        20    
          Energy           -2.0119   -1.3972   -1.3972   -0.8798   -0.8798   -0.8409   -0.8060   -0.8060   -0.5569   -0.3327
          Occ. No.          1.0000    1.0000    1.0000    1.0000    1.0000    1.0000    1.0000    1.0000    0.0000    0.0000
 
        1 O1     1s        -0.0004    0.0000   -0.0000    0.0000    0.0000   -0.0001    0.0000    0.0000   -0.0000   -0.0011
        2 O1     2s         0.9962    0.0000   -0.0000    0.0000    0.0000   -0.0011    0.0000    0.0000    0.0064   -0.0117
        3 O1     3s        -0.0712   -0.0000    0.0000    0.0000    0.0000   -0.0005    0.0000    0.0000   -0.0061    0.0057
        4 O1     2px       -0.0000   -0.2630    0.9541    0.0000   -0.0000   -0.0000    0.0002   -0.0003    0.0000    0.0000
        5 O1     3px        0.0000    0.0380   -0.1379    0.0000   -0.0000    0.0000    0.0003   -0.0005    0.0000    0.0000
        6 O1     2py        0.0000    0.9541    0.2630   -0.0000   -0.0000    0.0000   -0.0003   -0.0002   -0.0001   -0.0000
        7 O1     3py       -0.0000   -0.1379   -0.0380   -0.0000   -0.0000   -0.0000   -0.0005   -0.0003   -0.0000   -0.0000
        8 O1     2pz       -0.0072    0.0001   -0.0000   -0.0000   -0.0000    0.0001    0.0000    0.0000    0.9944    0.0348
        9 O1     3pz       -0.0003   -0.0000    0.0000   -0.0000   -0.0000    0.0018   -0.0000   -0.0000    0.1063   -0.0081
       10 O1     3d2-       0.0000   -0.0000    0.0000   -0.0000    0.0000   -0.0000    0.0000   -0.0000    0.0000   -0.0000
       11 O1     3d1-       0.0000   -0.0020   -0.0006    0.0000    0.0000   -0.0000   -0.0000   -0.0000    0.0000   -0.0000
       12 O1     3d0       -0.0508   -0.0000    0.0000    0.0000    0.0000    0.0000   -0.0000   -0.0000   -0.0034    0.0012
       13 O1     3d1+      -0.0000    0.0006   -0.0020   -0.0000    0.0000    0.0000    0.0000   -0.0000   -0.0000    0.0000
       14 O1     3d2+       0.0000   -0.0000   -0.0000   -0.0000   -0.0000   -0.0000    0.0000    0.0000    0.0000   -0.0000
       15 FE2    1s        -0.0000   -0.0000    0.0000    0.0000   -0.0000    0.0000   -0.0000   -0.0000    0.0000   -0.0000
       16 FE2    2s        -0.0000   -0.0000    0.0000    0.0000   -0.0000    0.0004   -0.0000   -0.0000    0.0002    0.0001
       17 FE2    3s        -0.0000   -0.0000    0.0000    0.0000   -0.0000    0.0125   -0.0000   -0.0000    0.0010   -0.0059
       18 FE2    4s        -0.0002   -0.0000    0.0000   -0.0000   -0.0000   -0.0094    0.0000    0.0000    0.0001    0.9897
       19 FE2    5s        -0.0007   -0.0000    0.0000    0.0000    0.0000    0.0069   -0.0000   -0.0000    0.0024    0.0696
       20 FE2    2px        0.0000   -0.0000    0.0000    0.0000   -0.0000    0.0000    0.0000   -0.0000   -0.0000    0.0000
       21 FE2    3px       -0.0000   -0.0000    0.0000    0.0000   -0.0000    0.0000    0.0005   -0.0007   -0.0000    0.0000
       22 FE2    4px       -0.0000   -0.0002    0.0007   -0.0000    0.0000   -0.0000   -0.0066    0.0091   -0.0000    0.0000
       23 FE2    5px       -0.0000   -0.0001    0.0003   -0.0000    0.0000   -0.0000   -0.0003    0.0004   -0.0000    0.0000
       24 FE2    2py       -0.0000    0.0000    0.0000   -0.0000   -0.0000   -0.0000   -0.0000   -0.0000    0.0000   -0.0000
       25 FE2    3py        0.0000    0.0000    0.0000   -0.0000   -0.0000   -0.0000   -0.0007   -0.0005    0.0000   -0.0000
       26 FE2    4py        0.0000    0.0007    0.0002    0.0000    0.0000    0.0000    0.0091    0.0066    0.0000   -0.0000
       27 FE2    5py        0.0000    0.0003    0.0001    0.0000    0.0000    0.0000    0.0004    0.0003    0.0000   -0.0000
       28 FE2    2pz       -0.0000   -0.0000    0.0000    0.0000    0.0000   -0.0000    0.0000    0.0000    0.0000    0.0000
       29 FE2    3pz       -0.0000   -0.0000    0.0000    0.0000    0.0000   -0.0009    0.0000    0.0000    0.0007   -0.0014
       30 FE2    4pz       -0.0003   -0.0000    0.0000   -0.0000   -0.0000    0.0136   -0.0000   -0.0000    0.0003    0.1165
       31 FE2    5pz       -0.0002   -0.0000    0.0000   -0.0000   -0.0000    0.0006   -0.0000   -0.0000    0.0003    0.0167
       32 FE2    3d2-       0.0000    0.0000   -0.0000    0.9618   -0.2738   -0.0000   -0.0000    0.0001    0.0000   -0.0000
       33 FE2    4d2-      -0.0000    0.0000   -0.0000    0.0027   -0.0008   -0.0000   -0.0000    0.0000    0.0000    0.0000
       34 FE2    3d1-       0.0000    0.0002    0.0000    0.0000    0.0001    0.0002    0.8113    0.5839   -0.0000    0.0000
       35 FE2    4d1-       0.0000    0.0004    0.0001    0.0000    0.0000    0.0000    0.0220    0.0159    0.0000   -0.0000
       36 FE2    3d0       -0.0000   -0.0000    0.0000   -0.0000   -0.0000    0.9997   -0.0002   -0.0001    0.0040    0.0076
       37 FE2    4d0       -0.0001   -0.0000    0.0000    0.0000   -0.0000    0.0158   -0.0000   -0.0000    0.0000   -0.0052
       38 FE2    3d1+      -0.0000   -0.0000    0.0002   -0.0001    0.0001   -0.0000   -0.5839    0.8113    0.0000   -0.0000
       39 FE2    4d1+      -0.0000   -0.0001    0.0004   -0.0000    0.0000   -0.0000   -0.0159    0.0220   -0.0000    0.0000
       40 FE2    3d2+       0.0000    0.0000    0.0000    0.2738    0.9618   -0.0000   -0.0001   -0.0001    0.0000    0.0000
       41 FE2    4d2+       0.0000    0.0000    0.0000    0.0008    0.0027   -0.0000   -0.0000   -0.0000    0.0000    0.0000
       42 FE2    4f3-       0.0000   -0.0000   -0.0000    0.0000    0.0000    0.0000   -0.0000   -0.0000    0.0000    0.0000
       43 FE2    4f2-       0.0000   -0.0000    0.0000    0.0007   -0.0002   -0.0000   -0.0000    0.0000   -0.0000    0.0000
       44 FE2    4f1-       0.0000    0.0000    0.0000    0.0000    0.0000    0.0000    0.0008    0.0006   -0.0000    0.0000
       45 FE2    4f0        0.0000   -0.0000    0.0000   -0.0000   -0.0000    0.0010   -0.0000   -0.0000   -0.0000    0.0001
       46 FE2    4f1+      -0.0000   -0.0000    0.0000   -0.0000    0.0000   -0.0000   -0.0006    0.0008    0.0000   -0.0000
       47 FE2    4f2+      -0.0000   -0.0000   -0.0000    0.0002    0.0007   -0.0000   -0.0000   -0.0000   -0.0000   -0.0000
       48 FE2    4f3+       0.0000    0.0000   -0.0000   -0.0000    0.0000    0.0000    0.0000    0.0000    0.0000    0.0000
 
          Orbital           21        22        23        24    
          Energy           -0.1837   -0.1837   -0.1790   -0.0953
          Occ. No.          0.0000    0.0000    0.0000    0.0000
 
        1 O1     1s         0.0000   -0.0000   -0.0014   -0.0030
        2 O1     2s         0.0000   -0.0000   -0.0139   -0.0278
        3 O1     3s        -0.0000    0.0000    0.0223    0.0425
        4 O1     2px       -0.0003    0.0014    0.0000    0.0000
        5 O1     3px       -0.0049    0.0224   -0.0000    0.0000
        6 O1     2py        0.0014    0.0003   -0.0000   -0.0000
        7 O1     3py        0.0224    0.0049    0.0000   -0.0000
        8 O1     2pz       -0.0000    0.0000    0.0445    0.0523
        9 O1     3pz        0.0000   -0.0000   -0.0551   -0.0613
       10 O1     3d2-       0.0000   -0.0000   -0.0000   -0.0000
       11 O1     3d1-      -0.0007   -0.0002   -0.0000   -0.0000
       12 O1     3d0       -0.0000    0.0000    0.0028    0.0034
       13 O1     3d1+       0.0002   -0.0007    0.0000    0.0000
       14 O1     3d2+       0.0000    0.0000   -0.0000   -0.0000
       15 FE2    1s         0.0000   -0.0000   -0.0000   -0.0000
       16 FE2    2s         0.0000   -0.0000   -0.0001   -0.0002
       17 FE2    3s        -0.0000    0.0000    0.0005    0.0042
       18 FE2    4s         0.0000   -0.0000   -0.1303   -0.0641
       19 FE2    5s        -0.0000    0.0000    0.0877    0.9789
       20 FE2    2px       -0.0000    0.0001   -0.0000   -0.0000
       21 FE2    3px        0.0006   -0.0027    0.0000   -0.0000
       22 FE2    4px       -0.2113    0.9697   -0.0001    0.0000
       23 FE2    5px       -0.0243    0.1114   -0.0000    0.0000
       24 FE2    2py        0.0001    0.0000    0.0000    0.0000
       25 FE2    3py       -0.0027   -0.0006   -0.0000    0.0000
       26 FE2    4py        0.9697    0.2113    0.0002   -0.0000
       27 FE2    5py        0.1114    0.0243    0.0000   -0.0000
       28 FE2    2pz       -0.0000    0.0000    0.0001   -0.0000
       29 FE2    3pz        0.0000   -0.0000   -0.0050    0.0010
       30 FE2    4pz       -0.0002    0.0000    0.9710   -0.1171
       31 FE2    5pz       -0.0000    0.0000    0.1189   -0.0076
       32 FE2    3d2-       0.0000   -0.0000    0.0000    0.0000
       33 FE2    4d2-       0.0000   -0.0000   -0.0000   -0.0000
       34 FE2    3d1-      -0.0113   -0.0025   -0.0000   -0.0000
       35 FE2    4d1-       0.0104    0.0023    0.0000    0.0000
       36 FE2    3d0        0.0000   -0.0000   -0.0158   -0.0065
       37 FE2    4d0       -0.0000    0.0000    0.0186    0.0157
       38 FE2    3d1+       0.0025   -0.0113    0.0000    0.0000
       39 FE2    4d1+      -0.0023    0.0104   -0.0000   -0.0000
       40 FE2    3d2+       0.0000    0.0000    0.0000   -0.0000
       41 FE2    4d2+       0.0000    0.0000   -0.0000   -0.0000
       42 FE2    4f3-      -0.0000   -0.0000   -0.0000   -0.0000
       43 FE2    4f2-       0.0000    0.0000    0.0000   -0.0000
       44 FE2    4f1-       0.0001    0.0000   -0.0000   -0.0000
       45 FE2    4f0        0.0000   -0.0000   -0.0002    0.0000
       46 FE2    4f1+      -0.0000    0.0001    0.0000    0.0000
       47 FE2    4f2+      -0.0000   -0.0000    0.0000    0.0000
       48 FE2    4f3+       0.0000   -0.0000   -0.0000   -0.0000
--
 
 
  Input file to MOLDEN was generated!
 
 
++    Static properties:
      ------------------
 
 
      LoProp Charges per center
 

                   O1       FE2   
      Nuclear      8.0000  26.0000
      Electronic  -6.9998 -25.0002
 
      Total        1.0002   0.9998
--
 
 
      All orbitals with orbital energies smaller than  E(LUMO)+0.5 are printed
 
++    Molecular orbitals:
      -------------------
 
      Title: UHF orbitals (beta)

      Molecular orbitals for symmetry species 1: a  
 
          Orbital            1         2         3         4         5         6         7         8         9        10    
          Energy         -263.8767  -32.5698  -27.6436  -27.6436  -27.6432  -21.4532   -4.3170   -2.8506   -2.8009   -2.8009
          Occ. No.          1.0000    1.0000    1.0000    1.0000    1.0000    1.0000    1.0000    1.0000    1.0000    1.0000
 
        1 O1     1s        -0.0000    0.0000   -0.0000   -0.0000    0.0000    1.0000    0.0000    0.0000   -0.0000    0.0000
        2 O1     2s        -0.0000    0.0000   -0.0000   -0.0000    0.0000   -0.0019    0.0002    0.0001   -0.0000    0.0000
        3 O1     3s        -0.0000    0.0000   -0.0000   -0.0000    0.0000    0.0002    0.0003    0.0002   -0.0000    0.0000
        4 O1     2px        0.0000    0.0000   -0.0000    0.0000   -0.0000    0.0000    0.0000   -0.0000    0.0000    0.0000
        5 O1     3px        0.0000    0.0000   -0.0000    0.0000   -0.0000   -0.0000    0.0000   -0.0000    0.0000    0.0001
        6 O1     2py       -0.0000   -0.0000    0.0000    0.0000    0.0000   -0.0000   -0.0000    0.0000    0.0000   -0.0000
        7 O1     3py       -0.0000   -0.0000    0.0000    0.0000    0.0000    0.0000   -0.0000    0.0000    0.0001   -0.0000
        8 O1     2pz        0.0000   -0.0000    0.0000    0.0000   -0.0000   -0.0000   -0.0001   -0.0000    0.0000   -0.0000
        9 O1     3pz        0.0000   -0.0000    0.0000    0.0000   -0.0000   -0.0000   -0.0003   -0.0000    0.0000   -0.0000
       10 O1     3d2-      -0.0000    0.0000   -0.0000   -0.0000   -0.0000   -0.0000    0.0000   -0.0000    0.0000    0.0000
       11 O1     3d1-       0.0000    0.0000   -0.0000   -0.0000   -0.0000   -0.0000    0.0000   -0.0000   -0.0000    0.0000
       12 O1     3d0       -0.0000    0.0000   -0.0000   -0.0000    0.0000    0.0015    0.0000   -0.0000    0.0000   -0.0000
       13 O1     3d1+      -0.0000   -0.0000    0.0000   -0.0000    0.0000    0.0000   -0.0000    0.0000   -0.0000   -0.0000
       14 O1     3d2+      -0.0000   -0.0000    0.0000    0.0000   -0.0000   -0.0000   -0.0000   -0.0000   -0.0000    0.0000
       15 FE2    1s         1.0000    0.0000    0.0000    0.0000   -0.0000   -0.0000   -0.0000    0.0000   -0.0000    0.0000
       16 FE2    2s        -0.0000    1.0000    0.0000    0.0000   -0.0004   -0.0000    0.0002   -0.0000    0.0000   -0.0000
       17 FE2    3s         0.0000   -0.0002   -0.0000   -0.0000    0.0000   -0.0000    1.0000   -0.0019    0.0000   -0.0000
       18 FE2    4s        -0.0000    0.0001    0.0000    0.0000   -0.0000   -0.0000    0.0076    0.0009   -0.0000    0.0000
       19 FE2    5s         0.0000   -0.0002    0.0000    0.0000   -0.0000   -0.0001   -0.0057   -0.0005    0.0000   -0.0000
       20 FE2    2px       -0.0000   -0.0000   -0.4003    0.9164   -0.0001    0.0000    0.0000   -0.0000    0.0010    0.0016
       21 FE2    3px        0.0000   -0.0000    0.0008   -0.0018    0.0000   -0.0000   -0.0000   -0.0000    0.5436    0.8392
       22 FE2    4px       -0.0000    0.0000   -0.0001    0.0003   -0.0000    0.0000   -0.0000   -0.0000    0.0044    0.0067
       23 FE2    5px        0.0000   -0.0000    0.0003   -0.0007    0.0000    0.0000   -0.0000    0.0000   -0.0048   -0.0075
       24 FE2    2py        0.0000    0.0000    0.9164    0.4003    0.0002   -0.0000   -0.0000    0.0000    0.0016   -0.0010
       25 FE2    3py       -0.0000    0.0000   -0.0018   -0.0008   -0.0000    0.0000    0.0000    0.0001    0.8392   -0.5436
       26 FE2    4py        0.0000   -0.0000    0.0003    0.0001    0.0000   -0.0000    0.0000    0.0000    0.0067   -0.0044
       27 FE2    5py       -0.0000    0.0000   -0.0007   -0.0003   -0.0000   -0.0000    0.0000   -0.0000   -0.0075    0.0048
       28 FE2    2pz        0.0000    0.0004   -0.0002   -0.0000    1.0000   -0.0000   -0.0000    0.0010   -0.0000    0.0000
       29 FE2    3pz       -0.0000    0.0000    0.0000    0.0000   -0.0010   -0.0000    0.0019    0.9997   -0.0001    0.0001
       30 FE2    4pz        0.0000   -0.0000   -0.0000   -0.0000    0.0003   -0.0000    0.0001    0.0107   -0.0000    0.0000
       31 FE2    5pz       -0.0000    0.0000    0.0000    0.0000   -0.0007   -0.0000   -0.0001   -0.0099    0.0000   -0.0000
       32 FE2    3d2-      -0.0000   -0.0000   -0.0000    0.0000   -0.0000    0.0000   -0.0000   -0.0000   -0.0000   -0.0000
       33 FE2    4d2-      -0.0000   -0.0000    0.0000   -0.0000    0.0000    0.0000    0.0000    0.0000    0.0000    0.0000
       34 FE2    3d1-       0.0000    0.0000    0.0000    0.0000    0.0000   -0.0000    0.0000    0.0000    0.0005   -0.0003
       35 FE2    4d1-       0.0000    0.0000   -0.0000   -0.0000   -0.0000   -0.0000   -0.0000   -0.0000    0.0003   -0.0002
       36 FE2    3d0        0.0000    0.0000   -0.0000   -0.0000    0.0000   -0.0000    0.0011    0.0016   -0.0000    0.0000
       37 FE2    4d0        0.0000    0.0000    0.0000    0.0000   -0.0000   -0.0000    0.0004   -0.0002   -0.0000    0.0000
       38 FE2    3d1+      -0.0000   -0.0000   -0.0000    0.0000   -0.0000    0.0000   -0.0000   -0.0000    0.0003    0.0005
       39 FE2    4d1+      -0.0000   -0.0000    0.0000   -0.0000    0.0000    0.0000    0.0000    0.0000    0.0002    0.0003
       40 FE2    3d2+      -0.0000   -0.0000   -0.0000   -0.0000   -0.0000    0.0000   -0.0000   -0.0000    0.0000   -0.0000
       41 FE2    4d2+      -0.0000   -0.0000    0.0000   -0.0000    0.0000    0.0000    0.0000    0.0000   -0.0000    0.0000
       42 FE2    4f3-      -0.0000    0.0000   -0.0000   -0.0000   -0.0000   -0.0000    0.0000   -0.0000   -0.0000    0.0000
       43 FE2    4f2-       0.0000   -0.0000   -0.0000    0.0000    0.0000    0.0000   -0.0000    0.0000    0.0000    0.0000
       44 FE2    4f1-      -0.0000    0.0000    0.0007    0.0003   -0.0000   -0.0000    0.0000   -0.0000    0.0108   -0.0070
       45 FE2    4f0       -0.0000    0.0000   -0.0000   -0.0000   -0.0011   -0.0000    0.0001   -0.0211   -0.0000    0.0000
       46 FE2    4f1+       0.0000   -0.0000   -0.0003    0.0007    0.0000    0.0000   -0.0000    0.0000    0.0070    0.0108
       47 FE2    4f2+       0.0000   -0.0000   -0.0000   -0.0000   -0.0000    0.0000   -0.0000    0.0000   -0.0000    0.0000
       48 FE2    4f3+      -0.0000    0.0000    0.0000    0.0000   -0.0000   -0.0000    0.0000   -0.0000    0.0000    0.0000
 
          Orbital           11        12        13        14        15        16        17        18        19        20    
          Energy           -1.8320   -1.3527   -0.7039   -0.7039   -0.5224   -0.5224   -0.3159   -0.1687   -0.1627   -0.1627
          Occ. No.          1.0000    1.0000    1.0000    1.0000    0.0000    0.0000    0.0000    0.0000    0.0000    0.0000
 
        1 O1     1s         0.0018    0.0000    0.0000    0.0000    0.0000   -0.0000   -0.0014   -0.0014    0.0000   -0.0000
        2 O1     2s         0.9974    0.0049    0.0000    0.0000    0.0000   -0.0000   -0.0163   -0.0159    0.0000   -0.0000
        3 O1     3s        -0.0467   -0.0037    0.0000    0.0000   -0.0000    0.0000    0.0064    0.0209   -0.0000    0.0000
        4 O1     2px        0.0000    0.0000    0.0009   -0.0003   -0.2572    0.9573   -0.0000   -0.0000   -0.0102    0.0020
        5 O1     3px       -0.0000   -0.0000   -0.0002    0.0001   -0.0342    0.1273   -0.0000   -0.0000    0.0141   -0.0028
        6 O1     2py       -0.0000   -0.0001    0.0003    0.0009    0.9573    0.2572    0.0000    0.0000   -0.0020   -0.0102
        7 O1     3py        0.0000    0.0000   -0.0001   -0.0002    0.1273    0.0342    0.0000    0.0000    0.0028    0.0141
        8 O1     2pz       -0.0053    0.9917   -0.0000   -0.0000    0.0001   -0.0000    0.0095   -0.0008    0.0000   -0.0000
        9 O1     3pz       -0.0022   -0.1281   -0.0000   -0.0000    0.0000   -0.0000   -0.0235   -0.1038    0.0000   -0.0000
       10 O1     3d2-      -0.0000   -0.0000    0.0000   -0.0000    0.0000   -0.0000    0.0000    0.0000    0.0000   -0.0000
       11 O1     3d1-      -0.0000    0.0000   -0.0000   -0.0000   -0.0018   -0.0005    0.0000    0.0000   -0.0001   -0.0007
       12 O1     3d0        0.0555   -0.0014   -0.0000   -0.0000   -0.0000    0.0000    0.0007    0.0017   -0.0000    0.0000
       13 O1     3d1+       0.0000   -0.0000   -0.0000    0.0000    0.0005   -0.0018   -0.0000   -0.0000   -0.0007    0.0001
       14 O1     3d2+      -0.0000   -0.0000   -0.0000   -0.0000    0.0000    0.0000    0.0000    0.0000   -0.0000   -0.0000
       15 FE2    1s        -0.0000   -0.0000   -0.0000   -0.0000    0.0000   -0.0000   -0.0000   -0.0000    0.0000   -0.0000
       16 FE2    2s        -0.0000   -0.0000    0.0000    0.0000    0.0000   -0.0000   -0.0001   -0.0001    0.0000   -0.0000
       17 FE2    3s        -0.0000   -0.0002   -0.0000   -0.0000    0.0000   -0.0000   -0.0068    0.0008   -0.0000    0.0000
       18 FE2    4s        -0.0006   -0.0018   -0.0000   -0.0000   -0.0000    0.0000    0.9780   -0.1551    0.0000   -0.0000
       19 FE2    5s        -0.0013   -0.0013    0.0000    0.0000    0.0000   -0.0000    0.1443    0.0619   -0.0000    0.0000
       20 FE2    2px        0.0000    0.0000   -0.0000    0.0000    0.0000   -0.0000   -0.0000   -0.0000   -0.0002    0.0000
       21 FE2    3px       -0.0000    0.0000   -0.0007    0.0003    0.0000   -0.0001    0.0000   -0.0000   -0.0067    0.0013
       22 FE2    4px        0.0000    0.0000    0.0172   -0.0064    0.0001   -0.0004    0.0000    0.0000    0.9714   -0.1954
       23 FE2    5px        0.0000    0.0000    0.0010   -0.0004    0.0000   -0.0002    0.0000    0.0000    0.1268   -0.0255
       24 FE2    2py       -0.0000   -0.0000   -0.0000   -0.0000   -0.0000   -0.0000    0.0000    0.0000   -0.0000   -0.0002
       25 FE2    3py        0.0000   -0.0000   -0.0003   -0.0007   -0.0001   -0.0000   -0.0000    0.0000   -0.0013   -0.0067
       26 FE2    4py       -0.0000   -0.0000    0.0064    0.0172   -0.0004   -0.0001   -0.0000   -0.0001    0.1954    0.9714
       27 FE2    5py       -0.0000   -0.0000    0.0004    0.0010   -0.0002   -0.0000   -0.0000   -0.0000    0.0255    0.1268
       28 FE2    2pz       -0.0000   -0.0000    0.0000    0.0000    0.0000   -0.0000   -0.0000   -0.0002    0.0000   -0.0000
       29 FE2    3pz       -0.0000   -0.0001    0.0000    0.0000    0.0000   -0.0000   -0.0021   -0.0093    0.0000   -0.0000
       30 FE2    4pz       -0.0008   -0.0018   -0.0000   -0.0000   -0.0000    0.0000    0.1270    0.9581   -0.0000    0.0001
       31 FE2    5pz       -0.0005   -0.0005   -0.0000   -0.0000   -0.0000    0.0000    0.0196    0.1269   -0.0000    0.0000
       32 FE2    3d2-       0.0000   -0.0000    0.0001   -0.0000    0.0000   -0.0000   -0.0000   -0.0000   -0.0000    0.0000
       33 FE2    4d2-       0.0000   -0.0000    0.0000   -0.0000    0.0000   -0.0000    0.0000   -0.0000   -0.0000    0.0000
       34 FE2    3d1-      -0.0000    0.0000    0.3460    0.9352   -0.0026   -0.0007    0.0000    0.0000   -0.0038   -0.0187
       35 FE2    4d1-      -0.0000   -0.0000    0.0253    0.0684   -0.0003   -0.0001    0.0000    0.0000    0.0018    0.0090
       36 FE2    3d0       -0.0001   -0.0002   -0.0000   -0.0002    0.0000   -0.0000    0.0068    0.0387   -0.0000    0.0000
       37 FE2    4d0       -0.0003   -0.0004   -0.0000   -0.0000   -0.0000    0.0000    0.0031    0.0261   -0.0000    0.0000
       38 FE2    3d1+       0.0000   -0.0000    0.9352   -0.3460    0.0007   -0.0026   -0.0000   -0.0000   -0.0187    0.0038
       39 FE2    4d1+       0.0000    0.0000    0.0684   -0.0253    0.0001   -0.0003   -0.0000   -0.0000    0.0090   -0.0018
       40 FE2    3d2+       0.0000   -0.0000   -0.0001   -0.0001    0.0000    0.0000   -0.0000   -0.0000    0.0000    0.0000
       41 FE2    4d2+      -0.0000   -0.0000   -0.0000   -0.0000    0.0000    0.0000   -0.0000   -0.0000    0.0000    0.0000
       42 FE2    4f3-       0.0000    0.0000   -0.0000    0.0000    0.0000    0.0000   -0.0000   -0.0000   -0.0000   -0.0000
       43 FE2    4f2-      -0.0000   -0.0000    0.0000   -0.0000    0.0000   -0.0000    0.0000   -0.0000    0.0000    0.0000
       44 FE2    4f1-      -0.0000   -0.0000    0.0004    0.0010    0.0000    0.0000   -0.0000   -0.0000    0.0003    0.0014
       45 FE2    4f0       -0.0000   -0.0000   -0.0000   -0.0000   -0.0000    0.0000   -0.0003   -0.0014    0.0000   -0.0000
       46 FE2    4f1+       0.0000    0.0000    0.0010   -0.0004   -0.0000    0.0000    0.0000    0.0000    0.0014   -0.0003
       47 FE2    4f2+      -0.0000   -0.0000   -0.0000   -0.0000    0.0000   -0.0000    0.0000    0.0000   -0.0000   -0.0000
       48 FE2    4f3+       0.0000    0.0000    0.0000    0.0000    0.0000    0.0000   -0.0000   -0.0000    0.0000   -0.0000
 
          Orbital           21        22        23    
          Energy           -0.0776   -0.0234   -0.0234
          Occ. No.          0.0000    0.0000    0.0000
 
        1 O1     1s        -0.0029   -0.0000    0.0000
        2 O1     2s        -0.0301   -0.0000    0.0000
        3 O1     3s         0.0392   -0.0000   -0.0000
        4 O1     2px       -0.0000   -0.0000    0.0000
        5 O1     3px       -0.0000    0.0000   -0.0000
        6 O1     2py        0.0000   -0.0000   -0.0000
        7 O1     3py        0.0000    0.0000    0.0000
        8 O1     2pz        0.0006    0.0000   -0.0000
        9 O1     3pz       -0.1507    0.0000   -0.0000
       10 O1     3d2-       0.0000   -0.0000    0.0001
       11 O1     3d1-       0.0000   -0.0000   -0.0000
       12 O1     3d0        0.0008   -0.0000    0.0000
       13 O1     3d1+      -0.0000   -0.0000    0.0000
       14 O1     3d2+       0.0000    0.0001    0.0000
       15 FE2    1s        -0.0000    0.0000   -0.0000
       16 FE2    2s         0.0000    0.0000   -0.0000
       17 FE2    3s         0.0058    0.0000   -0.0000
       18 FE2    4s        -0.1485    0.0000   -0.0000
       19 FE2    5s         0.9488    0.0000   -0.0000
       20 FE2    2px        0.0000   -0.0000    0.0000
       21 FE2    3px       -0.0000   -0.0000    0.0000
       22 FE2    4px        0.0000   -0.0000    0.0000
       23 FE2    5px        0.0000   -0.0000    0.0000
       24 FE2    2py       -0.0000   -0.0000   -0.0000
       25 FE2    3py        0.0000   -0.0000   -0.0000
       26 FE2    4py       -0.0000   -0.0000   -0.0000
       27 FE2    5py       -0.0000   -0.0000   -0.0000
       28 FE2    2pz        0.0000    0.0000   -0.0000
       29 FE2    3pz        0.0014    0.0000    0.0000
       30 FE2    4pz       -0.1335    0.0000   -0.0000
       31 FE2    5pz       -0.0104    0.0000   -0.0000
       32 FE2    3d2-      -0.0000   -0.2538    0.9194
       33 FE2    4d2-      -0.0000   -0.0800    0.2897
       34 FE2    3d1-       0.0000    0.0001    0.0000
       35 FE2    4d1-       0.0000    0.0000    0.0000
       36 FE2    3d0        0.0211   -0.0000   -0.0000
       37 FE2    4d0        0.0150   -0.0000   -0.0000
       38 FE2    3d1+      -0.0000    0.0001   -0.0000
       39 FE2    4d1+      -0.0000    0.0000   -0.0000
       40 FE2    3d2+       0.0000    0.9194    0.2538
       41 FE2    4d2+      -0.0000    0.2897    0.0800
       42 FE2    4f3-       0.0000    0.0000   -0.0000
       43 FE2    4f2-      -0.0000   -0.0002    0.0008
       44 FE2    4f1-       0.0000    0.0000    0.0000
       45 FE2    4f0        0.0004   -0.0000    0.0000
       46 FE2    4f1+      -0.0000    0.0000   -0.0000
       47 FE2    4f2+      -0.0000    0.0008    0.0002
       48 FE2    4f3+       0.0000   -0.0000   -0.0000
--
 
 
++    Molecular charges:
      ------------------
 
      Mulliken charges per centre and basis function type
      ---------------------------------------------------
 
                            O1                      FE2   
                     alpha        beta       alpha        beta
      1s           1.0000      1.0000      1.0000      1.0000
      2s           0.9923      0.9948      1.0000      1.0000
      2px          0.9795      0.0000      1.0000      1.0000
      2pz          0.0001      0.9836      1.0000      1.0000
      2py          0.9795      0.0000      1.0000      1.0000
      3s           0.0051      0.0022      0.9999      0.9999
      3px          0.0205     -0.0000      0.9999      0.9997
      3pz         -0.0000      0.0163      0.9999      0.9993
      3py          0.0205     -0.0000      0.9999      0.9997
      4s           0.0000      0.0000      0.0001      0.0001
      3d2+        -0.0000      0.0000      1.0000      0.0000
      3d1+         0.0000      0.0000      0.9991      0.9944
      3d0          0.0026      0.0031      0.9995      0.0000
      3d1-         0.0000      0.0000      0.9991      0.9944
      3d2-        -0.0000      0.0000      1.0000      0.0000
      4px          0.0000      0.0000      0.0001      0.0004
      4pz          0.0000      0.0000      0.0002      0.0001
      4py          0.0000      0.0000      0.0001      0.0004
      5s           0.0000      0.0000      0.0000      0.0000
      4d2+         0.0000      0.0000      0.0000      0.0000
      4d1+         0.0000      0.0000      0.0007      0.0053
      4d0          0.0000      0.0000      0.0003      0.0000
      4d1-         0.0000      0.0000      0.0007      0.0053
      4d2-         0.0000      0.0000      0.0000      0.0000
      5px          0.0000      0.0000      0.0000      0.0001
      5pz          0.0000      0.0000      0.0000      0.0001
      5py          0.0000      0.0000      0.0000      0.0001
      4f3+         0.0000      0.0000      0.0000      0.0000
      4f2+         0.0000      0.0000      0.0000      0.0000
      4f1+         0.0000      0.0000      0.0001      0.0002
      4f0          0.0000      0.0000      0.0000      0.0004
      4f1-         0.0000      0.0000      0.0001      0.0002
      4f2-         0.0000      0.0000      0.0000      0.0000
      4f3-         0.0000      0.0000      0.0000      0.0000
      Total        4.0000      3.0000     14.0000     11.0000
      Total              7.0000                 25.0000
 
      Charge            1.0000                  1.0000
 
      Total electronic charge=   32.000000
 
      Total            charge=    2.000000
--
 
 
  Input file to MOLDEN was generated!
 
 
++    Static properties:
      ------------------
 
 
      LoProp Charges per center
 

                   O1       FE2   
      Nuclear      8.0000  26.0000
      Electronic  -6.9998 -25.0002
 
      Total        1.0002   0.9998
--
 
 
++    Natural Bond Order analysis
      ---------------------------
      Based on LoProp computed density
      -------------------------------------------------------------------------------------
      Atom A       Atom B       Bond Order
      -------------------------------------------------------------------------------------
      NBO located     19.999 core electrons.
      NBO located      5.992 lone pair electrons.
      NBO located      1.000 non-bonded electrons on atom O1        
      NBO located      1.000 non-bonded electrons on atom O1        
      NBO located      1.000 non-bonded electrons on atom O1        
      NBO located      1.000 non-bonded electrons on atom FE2       
      NBO located      1.000 non-bonded electrons on atom FE2       
      NBO located      1.000 non-bonded electrons on atom FE2       
      The remaining    0.009 electrons are to be considered as diffuse
--
 
 
++    Molecular orbitals:
      -------------------
 
      Title: Natural orbitals

      Molecular orbitals for symmetry species 1: a  
 
          Orbital            1         2         3         4         5         6         7         8         9        10    
          Energy         -263.8774  -32.2907  -21.4938  -27.5385  -27.5880  -27.5879   -4.7654   -3.0630   -3.0735   -3.0736
          Occ. No.          2.0000    2.0000    2.0000    2.0000    2.0000    2.0000    2.0000    1.9998    1.9998    1.9998
 
        1 O1     1s         0.0000   -0.0057   -0.9966    0.0758   -0.0000   -0.0000    0.0081    0.0001   -0.0000   -0.0000
        2 O1     2s        -0.0000    0.0001    0.0300   -0.0023    0.0000    0.0000    0.0001    0.0003   -0.0000   -0.0000
        3 O1     3s        -0.0000   -0.0000   -0.0013    0.0001   -0.0000   -0.0000    0.0002    0.0001   -0.0000   -0.0000
        4 O1     2px        0.0000   -0.0000    0.0000   -0.0000    0.0000   -0.0000   -0.0000   -0.0000   -0.0000    0.0000
        5 O1     3px       -0.0000    0.0000   -0.0000   -0.0000    0.0000   -0.0000    0.0000   -0.0000   -0.0001    0.0001
        6 O1     2py       -0.0000    0.0000   -0.0000    0.0000   -0.0000   -0.0000    0.0000    0.0000    0.0000    0.0000
        7 O1     3py        0.0000   -0.0000    0.0000    0.0000   -0.0000   -0.0000   -0.0000    0.0000    0.0001    0.0001
        8 O1     2pz        0.0000    0.0000   -0.0002    0.0000   -0.0000   -0.0000   -0.0001   -0.0000    0.0000    0.0000
        9 O1     3pz        0.0000    0.0000   -0.0000   -0.0000   -0.0000   -0.0000   -0.0002   -0.0000    0.0000    0.0000
       10 O1     3d2-      -0.0000    0.0000   -0.0000    0.0000   -0.0000   -0.0000   -0.0000   -0.0000    0.0000   -0.0000
       11 O1     3d1-       0.0000    0.0000   -0.0000    0.0000    0.0000    0.0000    0.0000   -0.0000   -0.0000   -0.0000
       12 O1     3d0       -0.0000   -0.0000    0.0000    0.0000   -0.0000   -0.0000    0.0000   -0.0000    0.0000    0.0000
       13 O1     3d1+      -0.0000   -0.0000    0.0000   -0.0000   -0.0000    0.0000   -0.0000    0.0000    0.0000   -0.0000
       14 O1     3d2+       0.0000    0.0000   -0.0000    0.0000    0.0000    0.0000   -0.0000   -0.0000    0.0000    0.0000
       15 FE2    1s         1.0000   -0.0001    0.0000   -0.0000    0.0000    0.0000    0.0002    0.0000   -0.0000   -0.0000
       16 FE2    2s         0.0001    0.9944   -0.0046    0.0038    0.0000    0.0000    0.1057    0.0000    0.0000    0.0000
       17 FE2    3s        -0.0002   -0.1057    0.0090    0.0043    0.0000    0.0000    0.9943   -0.0028    0.0000    0.0000
       18 FE2    4s        -0.0000   -0.0007    0.0001   -0.0000    0.0000    0.0000    0.0068    0.0009    0.0000    0.0000
       19 FE2    5s         0.0000    0.0005   -0.0001    0.0000   -0.0000   -0.0000   -0.0050   -0.0005    0.0000    0.0000
       20 FE2    2px        0.0000    0.0000   -0.0000   -0.0000   -0.7149    0.6962    0.0000   -0.0000   -0.0480    0.0429
       21 FE2    3px       -0.0000    0.0000    0.0000    0.0000    0.0462   -0.0450    0.0000   -0.0000   -0.7439    0.6646
       22 FE2    4px        0.0000   -0.0000   -0.0000    0.0000    0.0002   -0.0002   -0.0000   -0.0000   -0.0039    0.0035
       23 FE2    5px        0.0000   -0.0000   -0.0000   -0.0000   -0.0003    0.0002   -0.0000    0.0000    0.0049   -0.0044
       24 FE2    2py        0.0000   -0.0000    0.0000    0.0001    0.6962    0.7149   -0.0000    0.0000    0.0429    0.0480
       25 FE2    3py        0.0000   -0.0000   -0.0000   -0.0000   -0.0449   -0.0462   -0.0000    0.0001    0.6646    0.7439
       26 FE2    4py       -0.0000    0.0000    0.0000   -0.0000   -0.0002   -0.0002    0.0000    0.0000    0.0035    0.0039
       27 FE2    5py       -0.0000    0.0000    0.0000    0.0000    0.0002    0.0003    0.0000   -0.0000   -0.0044   -0.0049
       28 FE2    2pz        0.0000   -0.0029    0.0757    0.9951   -0.0001   -0.0000   -0.0051    0.0637   -0.0000   -0.0000
       29 FE2    3pz       -0.0000   -0.0001   -0.0047   -0.0635    0.0000    0.0000    0.0031    0.9978   -0.0001   -0.0001
       30 FE2    4pz        0.0000   -0.0000   -0.0000   -0.0004    0.0000    0.0000    0.0002    0.0082   -0.0000   -0.0000
       31 FE2    5pz       -0.0000    0.0000    0.0000    0.0003   -0.0000   -0.0000   -0.0001   -0.0078    0.0000    0.0000
       32 FE2    3d2-       0.0000   -0.0000   -0.0000    0.0000    0.0000   -0.0000   -0.0000   -0.0000    0.0000   -0.0000
       33 FE2    4d2-       0.0000   -0.0000   -0.0000   -0.0000    0.0000   -0.0000   -0.0000   -0.0000    0.0000   -0.0000
       34 FE2    3d1-      -0.0000    0.0000    0.0000   -0.0000   -0.0001   -0.0001    0.0000    0.0000   -0.0187   -0.0209
       35 FE2    4d1-      -0.0000    0.0000    0.0000    0.0000   -0.0000   -0.0000    0.0000    0.0000   -0.0008   -0.0009
       36 FE2    3d0       -0.0000   -0.0001    0.0000   -0.0001    0.0000    0.0000    0.0011    0.0016    0.0000    0.0000
       37 FE2    4d0        0.0000   -0.0000    0.0000   -0.0000    0.0000    0.0000    0.0024    0.0000    0.0000    0.0000
       38 FE2    3d1+       0.0000   -0.0000   -0.0000    0.0000    0.0001   -0.0001   -0.0000   -0.0000    0.0209   -0.0187
       39 FE2    4d1+       0.0000   -0.0000   -0.0000   -0.0000    0.0000   -0.0000   -0.0000   -0.0000    0.0009   -0.0008
       40 FE2    3d2+       0.0000   -0.0000   -0.0000    0.0000    0.0000    0.0000   -0.0000   -0.0000    0.0000    0.0000
       41 FE2    4d2+       0.0000   -0.0000   -0.0000   -0.0000    0.0000    0.0000   -0.0000   -0.0000    0.0000    0.0000
       42 FE2    4f3-      -0.0000    0.0000   -0.0000    0.0000   -0.0000   -0.0000    0.0000   -0.0000   -0.0000   -0.0000
       43 FE2    4f2-       0.0000   -0.0000   -0.0000   -0.0000   -0.0000    0.0000   -0.0000    0.0000    0.0000    0.0000
       44 FE2    4f1-      -0.0000    0.0000    0.0000    0.0000    0.0001    0.0001    0.0000   -0.0000    0.0016    0.0018
       45 FE2    4f0        0.0000    0.0000    0.0000    0.0001   -0.0000   -0.0000    0.0000   -0.0114    0.0000    0.0000
       46 FE2    4f1+       0.0000   -0.0000   -0.0000   -0.0000   -0.0001    0.0001   -0.0000    0.0000   -0.0018    0.0016
       47 FE2    4f2+       0.0000   -0.0000   -0.0000   -0.0000   -0.0000   -0.0000   -0.0000    0.0000   -0.0000   -0.0000
       48 FE2    4f3+      -0.0000    0.0000   -0.0000    0.0000    0.0000   -0.0000    0.0000   -0.0000   -0.0000    0.0000
 
          Orbital           11        12        13        14        15        16        17        18        19        20    
          Energy           -0.7561   -0.7561   -1.9288   -0.6519   -0.9339   -0.9339   -0.4113   -0.4113   -0.6506    1.4247
          Occ. No.          1.9989    1.9989    1.9940    1.0014    1.0000    1.0000    1.0000    1.0000    0.9986    0.0060
 
        1 O1     1s        -0.0000   -0.0000    0.0302   -0.0001   -0.0000    0.0000    0.0000   -0.0000    0.0000    0.0001
        2 O1     2s        -0.0000   -0.0000    0.9978   -0.0057    0.0000   -0.0000    0.0000   -0.0000   -0.0040    0.0114
        3 O1     3s         0.0000    0.0000   -0.0590    0.0023   -0.0000    0.0000    0.0000   -0.0000    0.0031    0.2244
        4 O1     2px        0.0010    0.0002    0.0000    0.0001   -0.2630    0.9541   -0.0000   -0.0000   -0.0001   -0.0000
        5 O1     3px       -0.0005   -0.0001   -0.0000   -0.0000    0.0380   -0.1379    0.0000   -0.0000    0.0000   -0.0000
        6 O1     2py        0.0002   -0.0010   -0.0000   -0.0003    0.9541    0.2630   -0.0000   -0.0000    0.0005    0.0000
        7 O1     3py       -0.0001    0.0005    0.0000    0.0001   -0.1379   -0.0380   -0.0000   -0.0000   -0.0001    0.0000
        8 O1     2pz       -0.0000   -0.0000   -0.0072   -0.7006    0.0001   -0.0000   -0.0000   -0.0000   -0.7018    0.0001
        9 O1     3pz        0.0000    0.0000   -0.0011    0.0918   -0.0000    0.0000   -0.0000   -0.0000    0.0894   -0.0144
       10 O1     3d2-       0.0000    0.0000   -0.0000    0.0000   -0.0000    0.0000   -0.0000    0.0000   -0.0000   -0.0000
       11 O1     3d1-      -0.0000    0.0000   -0.0000    0.0000   -0.0020   -0.0006    0.0000    0.0000   -0.0000   -0.0002
       12 O1     3d0        0.0000    0.0000    0.0023    0.0010   -0.0000    0.0000    0.0000    0.0000    0.0009    0.9747
       13 O1     3d1+      -0.0000   -0.0000    0.0000   -0.0000    0.0006   -0.0020   -0.0000    0.0000    0.0000    0.0000
       14 O1     3d2+      -0.0000    0.0000   -0.0000    0.0000   -0.0000   -0.0000   -0.0000   -0.0000   -0.0000   -0.0000
       15 FE2    1s        -0.0000   -0.0000   -0.0000    0.0000   -0.0000    0.0000   -0.0000   -0.0000    0.0000   -0.0000
       16 FE2    2s         0.0000    0.0000    0.0000    0.0000   -0.0000    0.0000   -0.0000   -0.0000    0.0001   -0.0000
       17 FE2    3s         0.0000    0.0000   -0.0003   -0.0006   -0.0000    0.0000    0.0000   -0.0000    0.0008   -0.0001
       18 FE2    4s         0.0000    0.0000   -0.0004   -0.0053   -0.0000    0.0000   -0.0000   -0.0000    0.0080   -0.0039
       19 FE2    5s        -0.0000   -0.0000   -0.0010    0.0058    0.0000   -0.0000    0.0000    0.0000   -0.0040   -0.0058
       20 FE2    2px        0.0019    0.0004    0.0000    0.0000   -0.0000    0.0000    0.0000   -0.0000   -0.0000    0.0000
       21 FE2    3px        0.0273    0.0061    0.0000    0.0000   -0.0000    0.0000    0.0000   -0.0000   -0.0000   -0.0000
       22 FE2    4px        0.0146    0.0033    0.0000   -0.0000   -0.0002    0.0007   -0.0000    0.0000    0.0000    0.0000
       23 FE2    5px        0.0006    0.0001    0.0000    0.0000   -0.0001    0.0003   -0.0000    0.0000   -0.0000    0.0000
       24 FE2    2py        0.0004   -0.0019   -0.0000   -0.0000    0.0000    0.0000   -0.0000   -0.0000    0.0000   -0.0000
       25 FE2    3py        0.0061   -0.0273   -0.0000   -0.0000    0.0000    0.0000   -0.0000   -0.0000    0.0000    0.0000
       26 FE2    4py        0.0033   -0.0146   -0.0000    0.0000    0.0007    0.0002    0.0000    0.0000   -0.0000   -0.0000
       27 FE2    5py        0.0001   -0.0006   -0.0000   -0.0000    0.0003    0.0001    0.0000    0.0000    0.0000   -0.0000
       28 FE2    2pz        0.0000    0.0000   -0.0000   -0.0000   -0.0000    0.0000    0.0000    0.0000    0.0000   -0.0000
       29 FE2    3pz        0.0000    0.0000   -0.0002   -0.0011   -0.0000    0.0000    0.0000    0.0000    0.0013   -0.0001
       30 FE2    4pz        0.0000    0.0000   -0.0005    0.0110    0.0000   -0.0000   -0.0000   -0.0000   -0.0084   -0.0050
       31 FE2    5pz        0.0000    0.0000   -0.0003    0.0008    0.0000   -0.0000   -0.0000   -0.0000   -0.0000   -0.0023
       32 FE2    3d2-       0.0001    0.0000    0.0000   -0.0000    0.0000    0.0000    0.9618   -0.2738    0.0000   -0.0000
       33 FE2    4d2-       0.0000    0.0000    0.0000   -0.0000    0.0000   -0.0000    0.0027   -0.0008    0.0000    0.0000
       34 FE2    3d1-       0.2175   -0.9743   -0.0000    0.0001   -0.0011   -0.0003    0.0000    0.0001   -0.0001    0.0000
       35 FE2    4d1-       0.0109   -0.0488   -0.0000    0.0000    0.0003    0.0001   -0.0000    0.0000   -0.0000   -0.0000
       36 FE2    3d0        0.0000    0.0002    0.0000    0.7066    0.0006   -0.0000   -0.0000   -0.0000   -0.7073   -0.0020
       37 FE2    4d0        0.0000    0.0000   -0.0002    0.0114    0.0000   -0.0000    0.0000    0.0000   -0.0108   -0.0022
       38 FE2    3d1+       0.9743    0.2175    0.0000   -0.0000    0.0003   -0.0011   -0.0001    0.0001    0.0000   -0.0000
       39 FE2    4d1+       0.0488    0.0109    0.0000   -0.0000   -0.0001    0.0003    0.0000    0.0000    0.0000    0.0000
       40 FE2    3d2+      -0.0001    0.0001    0.0000   -0.0000    0.0000    0.0000    0.2738    0.9618    0.0000   -0.0000
       41 FE2    4d2+      -0.0000    0.0000    0.0000   -0.0000    0.0000    0.0000    0.0008    0.0027    0.0000    0.0000
       42 FE2    4f3-      -0.0000   -0.0000    0.0000    0.0000    0.0000   -0.0000    0.0000    0.0000   -0.0000    0.0000
       43 FE2    4f2-       0.0000    0.0000    0.0000   -0.0000    0.0000    0.0000    0.0007   -0.0002    0.0000   -0.0000
       44 FE2    4f1-       0.0002   -0.0011   -0.0000    0.0000    0.0000    0.0000    0.0000    0.0000   -0.0000    0.0000
       45 FE2    4f0        0.0000    0.0000   -0.0000    0.0007    0.0000   -0.0000   -0.0000   -0.0000   -0.0007   -0.0000
       46 FE2    4f1+       0.0011    0.0002    0.0000   -0.0000   -0.0000    0.0000   -0.0000    0.0000    0.0000   -0.0000
       47 FE2    4f2+      -0.0000    0.0000    0.0000   -0.0000    0.0000    0.0000    0.0002    0.0007    0.0000   -0.0000
       48 FE2    4f3+       0.0000   -0.0000    0.0000    0.0000    0.0000   -0.0000   -0.0000    0.0000   -0.0000    0.0000
 
          Orbital           21        22        23        24        25        26        27        28        29        30    
          Energy            0.6762    0.6762    3.5092    3.5092    3.4754    0.5527    1.9917    1.9917    2.0385    0.4262
          Occ. No.          0.0011    0.0011    0.0002    0.0002    0.0002    0.0000    0.0000    0.0000    0.0000    0.0000
 
        1 O1     1s         0.0000    0.0000    0.0000   -0.0000   -0.0002    0.0014    0.0000    0.0000   -0.0020   -0.0011
        2 O1     2s         0.0000    0.0000    0.0000   -0.0000   -0.0020    0.0180    0.0000    0.0000   -0.0255   -0.0652
        3 O1     3s        -0.0000   -0.0000    0.0000   -0.0000   -0.0024    0.0286    0.0000    0.0000   -0.0772   -0.9653
        4 O1     2px       -0.0000    0.0001    0.0001    0.0001    0.0000   -0.0000    0.0035   -0.0037    0.0000   -0.0000
        5 O1     3px       -0.0037    0.0120   -0.0003   -0.0003    0.0000   -0.0000    0.0149   -0.0160    0.0000   -0.0000
        6 O1     2py        0.0001    0.0000   -0.0001    0.0001   -0.0000    0.0000   -0.0037   -0.0035   -0.0000    0.0000
        7 O1     3py        0.0120    0.0037    0.0003   -0.0003   -0.0000    0.0000   -0.0160   -0.0149   -0.0000    0.0000
        8 O1     2pz       -0.0000   -0.0000   -0.0000    0.0000    0.0008   -0.0201   -0.0000   -0.0000    0.0241   -0.0031
        9 O1     3pz        0.0000    0.0000    0.0000   -0.0000    0.0007   -0.0496   -0.0000   -0.0000    0.0875   -0.0399
       10 O1     3d2-      -0.0000    0.0000   -0.0000   -0.0000    0.0000   -0.0000   -0.0000    0.0000   -0.0000   -0.0000
       11 O1     3d1-      -0.0006   -0.0002   -0.0000    0.0000    0.0000   -0.0000    0.0017    0.0015   -0.0000   -0.0000
       12 O1     3d0        0.0000    0.0000    0.0000   -0.0000   -0.0012    0.0096    0.0000    0.0000    0.0012    0.2159
       13 O1     3d1+       0.0002   -0.0006    0.0000    0.0000   -0.0000    0.0000   -0.0015    0.0017    0.0000    0.0000
       14 O1     3d2+      -0.0000   -0.0000   -0.0000    0.0000    0.0000   -0.0000   -0.0000   -0.0000   -0.0000   -0.0000
       15 FE2    1s         0.0000    0.0000    0.0000   -0.0000    0.0000   -0.0000   -0.0000   -0.0000    0.0000   -0.0000
       16 FE2    2s         0.0000    0.0000    0.0000   -0.0000   -0.0000    0.0001   -0.0000   -0.0000    0.0001   -0.0000
       17 FE2    3s         0.0000    0.0000    0.0000   -0.0000    0.0000   -0.0019   -0.0000   -0.0000    0.0007    0.0003
       18 FE2    4s        -0.0002   -0.0000   -0.0000    0.0000   -0.0030    0.3153   -0.0000   -0.0000    0.0054    0.0725
       19 FE2    5s         0.0001    0.0000    0.0000   -0.0000    0.0010   -0.3353   -0.0000   -0.0000    0.0338    0.1694
       20 FE2    2px       -0.0000    0.0000   -0.0002   -0.0002   -0.0000   -0.0000   -0.0000    0.0000   -0.0000   -0.0000
       21 FE2    3px        0.0003   -0.0010   -0.0035   -0.0034   -0.0000    0.0000   -0.0046    0.0050   -0.0000    0.0000
       22 FE2    4px       -0.0461    0.1488    0.1494    0.1467    0.0000   -0.0000    0.1414   -0.1523    0.0000   -0.0000
       23 FE2    5px       -0.0031    0.0101   -0.1533   -0.1505   -0.0000   -0.0000   -0.6419    0.6911   -0.0000    0.0000
       24 FE2    2py        0.0000    0.0000    0.0002   -0.0002    0.0000    0.0000    0.0000    0.0000    0.0000    0.0000
       25 FE2    3py       -0.0010   -0.0003    0.0034   -0.0035    0.0000   -0.0000    0.0050    0.0046    0.0000   -0.0000
       26 FE2    4py        0.1488    0.0461   -0.1467    0.1494   -0.0000    0.0000   -0.1523   -0.1414   -0.0000    0.0000
       27 FE2    5py        0.0101    0.0031    0.1505   -0.1533    0.0000    0.0000    0.6911    0.6419    0.0001   -0.0000
       28 FE2    2pz        0.0000    0.0000   -0.0000    0.0000    0.0006   -0.0000    0.0000    0.0000    0.0000    0.0000
       29 FE2    3pz        0.0000    0.0000   -0.0000    0.0000    0.0144   -0.0001   -0.0000   -0.0000    0.0060   -0.0006
       30 FE2    4pz       -0.0001   -0.0000    0.0000   -0.0000   -0.2409   -0.0455    0.0000    0.0000   -0.0937    0.1068
       31 FE2    5pz       -0.0000   -0.0000   -0.0000    0.0000    0.2079   -0.0041   -0.0001   -0.0000    0.9718   -0.0138
       32 FE2    3d2-       0.0000   -0.0000    0.0000   -0.0000   -0.0000    0.0000    0.0000   -0.0000   -0.0000    0.0000
       33 FE2    4d2-      -0.0000    0.0001   -0.0000   -0.0000    0.0000    0.0000   -0.0000    0.0000    0.0000    0.0000
       34 FE2    3d1-      -0.0495   -0.0153    0.0012   -0.0012    0.0000    0.0000    0.0009    0.0008    0.0000   -0.0000
       35 FE2    4d1-       0.9417    0.2918    0.0316   -0.0322   -0.0000   -0.0001    0.0143    0.0133   -0.0000   -0.0000
       36 FE2    3d0        0.0000    0.0000   -0.0000    0.0000    0.0018    0.0190   -0.0000   -0.0000    0.0024    0.0012
       37 FE2    4d0       -0.0002   -0.0000   -0.0000    0.0000    0.0252   -0.8909   -0.0000   -0.0000   -0.0022   -0.0271
       38 FE2    3d1+       0.0153   -0.0495   -0.0012   -0.0012   -0.0000   -0.0000   -0.0008    0.0009   -0.0000    0.0000
       39 FE2    4d1+      -0.2918    0.9417   -0.0322   -0.0316    0.0000    0.0000   -0.0133    0.0143    0.0000    0.0000
       40 FE2    3d2+       0.0000    0.0000   -0.0000    0.0000   -0.0000    0.0000    0.0000    0.0000   -0.0000    0.0000
       41 FE2    4d2+      -0.0001   -0.0001   -0.0000    0.0000    0.0000   -0.0000   -0.0000   -0.0000    0.0000   -0.0000
       42 FE2    4f3-      -0.0000   -0.0000    0.0000   -0.0000    0.0000    0.0000   -0.0000   -0.0000   -0.0000    0.0000
       43 FE2    4f2-      -0.0000    0.0000    0.0001    0.0001   -0.0000    0.0000   -0.0000    0.0000    0.0000   -0.0000
       44 FE2    4f1-       0.0141    0.0044   -0.6675    0.6799    0.0002   -0.0000    0.1900    0.1765   -0.0001    0.0000
       45 FE2    4f0        0.0000    0.0000    0.0001   -0.0001    0.9476    0.0142   -0.0001   -0.0000   -0.2369    0.0322
       46 FE2    4f1+      -0.0044    0.0141    0.6799    0.6675   -0.0000    0.0000   -0.1765    0.1900    0.0000   -0.0000
       47 FE2    4f2+      -0.0000   -0.0000    0.0001   -0.0002   -0.0000    0.0000   -0.0000   -0.0000    0.0000   -0.0000
       48 FE2    4f3+       0.0000   -0.0000   -0.0000    0.0000    0.0000    0.0000    0.0000   -0.0000   -0.0000    0.0000
 
          Orbital           31        32        33        34        35        36        37        38        39        40    
          Energy            0.0368   -0.2368   -0.0144   -0.0144    0.0214    0.1014    0.0888    0.0888    0.7237    0.7266
          Occ. No.          0.0000    0.0000    0.0000    0.0000    0.0000    0.0000    0.0000    0.0000    0.0000    0.0000
 
        1 O1     1s        -0.0015    0.0028    0.0000   -0.0000    0.0004    0.0010    0.0000    0.0000   -0.0000    0.0000
        2 O1     2s        -0.0119    0.0250    0.0000   -0.0000    0.0013    0.0107    0.0000    0.0000   -0.0000    0.0000
        3 O1     3s         0.0508   -0.1007   -0.0000   -0.0000   -0.0842    0.0058   -0.0000   -0.0000    0.0000   -0.0000
        4 O1     2px       -0.0000    0.0000    0.0002   -0.0008    0.0000    0.0000    0.1378   -0.0391    0.0000   -0.0000
        5 O1     3px        0.0000    0.0000    0.0041   -0.0184    0.0000    0.0001    0.9527   -0.2702   -0.0001   -0.0002
        6 O1     2py        0.0000   -0.0000   -0.0009   -0.0002   -0.0000   -0.0001    0.0391    0.1378    0.0000   -0.0002
        7 O1     3py       -0.0000   -0.0000   -0.0190   -0.0040   -0.0002   -0.0003    0.2702    0.9526   -0.0001   -0.0011
        8 O1     2pz        0.0179   -0.0280    0.0000    0.0000    0.0819   -0.1062   -0.0000   -0.0000    0.0000   -0.0000
        9 O1     3pz        0.0814   -0.0406    0.0000    0.0000    0.6722   -0.7525   -0.0000   -0.0002    0.0000   -0.0000
       10 O1     3d2-       0.0000    0.0000   -0.0000    0.0000   -0.0000   -0.0000   -0.0001    0.0002    0.0189    0.0241
       11 O1     3d1-       0.0000   -0.0000    0.0004    0.0001    0.0001    0.0003   -0.0006   -0.0022    0.0065   -0.0057
       12 O1     3d0       -0.0169    0.0469    0.0000    0.0000    0.0334    0.0007    0.0000    0.0000    0.0000   -0.0000
       13 O1     3d1+      -0.0000    0.0000   -0.0001    0.0004   -0.0000   -0.0001   -0.0021    0.0004    0.0114    0.0095
       14 O1     3d2+       0.0000   -0.0000    0.0000   -0.0000    0.0000    0.0000   -0.0001   -0.0003    0.0052   -0.0601
       15 FE2    1s         0.0000   -0.0000    0.0000    0.0000    0.0001   -0.0001   -0.0000   -0.0000    0.0000   -0.0000
       16 FE2    2s         0.0002   -0.0000    0.0000    0.0000    0.0006   -0.0007   -0.0000   -0.0000    0.0000   -0.0000
       17 FE2    3s         0.0087    0.0020    0.0000    0.0000    0.0025   -0.0035   -0.0000   -0.0000    0.0000   -0.0000
       18 FE2    4s        -0.5522   -0.7549   -0.0001    0.0000    0.1716   -0.0120    0.0000   -0.0000   -0.0000    0.0000
       19 FE2    5s         0.6927   -0.6340   -0.0001    0.0000    0.0777    0.0013    0.0000   -0.0000   -0.0000    0.0000
       20 FE2    2px        0.0000    0.0000    0.0000   -0.0000    0.0000    0.0000   -0.0000    0.0000    0.0000    0.0000
       21 FE2    3px       -0.0000    0.0000   -0.0007    0.0032   -0.0000   -0.0000   -0.0003    0.0001    0.0000   -0.0000
       22 FE2    4px        0.0000   -0.0000    0.2005   -0.9201    0.0000    0.0000   -0.0468    0.0134   -0.0000    0.0001
       23 FE2    5px        0.0000   -0.0000    0.0541   -0.2485    0.0000    0.0000   -0.0126    0.0036   -0.0000    0.0000
       24 FE2    2py       -0.0000   -0.0000   -0.0000   -0.0000   -0.0000    0.0000   -0.0000   -0.0000    0.0000    0.0000
       25 FE2    3py        0.0000   -0.0000    0.0032    0.0007    0.0000    0.0000   -0.0001   -0.0003    0.0000    0.0000
       26 FE2    4py       -0.0000    0.0001   -0.9200   -0.2005   -0.0001   -0.0001   -0.0133   -0.0473   -0.0000    0.0000
       27 FE2    5py       -0.0000    0.0000   -0.2485   -0.0542   -0.0000   -0.0000   -0.0036   -0.0128   -0.0000    0.0000
       28 FE2    2pz        0.0000   -0.0000    0.0000    0.0000    0.0001   -0.0002   -0.0000   -0.0000    0.0000   -0.0000
       29 FE2    3pz        0.0014    0.0007   -0.0000    0.0000    0.0051    0.0005    0.0000    0.0000   -0.0000    0.0000
       30 FE2    4pz       -0.0504   -0.1181    0.0001   -0.0000   -0.6278   -0.7233   -0.0000   -0.0004    0.0000   -0.0000
       31 FE2    5pz       -0.0212   -0.0184    0.0000   -0.0000   -0.1060   -0.1200   -0.0000   -0.0001    0.0000   -0.0000
       32 FE2    3d2-      -0.0000   -0.0000    0.0000   -0.0000    0.0000    0.0000   -0.0000   -0.0000   -0.0006   -0.0027
       33 FE2    4d2-       0.0000    0.0000   -0.0000    0.0001   -0.0000   -0.0000    0.0005    0.0010    0.2156    0.9743
       34 FE2    3d1-       0.0000    0.0000    0.0064    0.0014    0.0000    0.0000   -0.0007   -0.0025    0.0000    0.0000
       35 FE2    4d1-      -0.0002   -0.0001    0.1472    0.0321    0.0000    0.0000   -0.0092   -0.0324   -0.0001    0.0000
       36 FE2    3d0       -0.0013   -0.0011   -0.0000    0.0000    0.0171    0.0005    0.0000    0.0000   -0.0000    0.0000
       37 FE2    4d0       -0.4492   -0.0367   -0.0000    0.0000    0.0848   -0.0045    0.0000    0.0000   -0.0000    0.0000
       38 FE2    3d1+      -0.0000   -0.0000   -0.0014    0.0064   -0.0000   -0.0000   -0.0025    0.0007    0.0000    0.0000
       39 FE2    4d1+       0.0001    0.0000   -0.0321    0.1471   -0.0000    0.0000   -0.0325    0.0092   -0.0000   -0.0000
       40 FE2    3d2+      -0.0000   -0.0000    0.0000   -0.0000    0.0000    0.0000    0.0000   -0.0000    0.0027   -0.0006
       41 FE2    4d2+       0.0000    0.0000   -0.0000    0.0001   -0.0000   -0.0000   -0.0001    0.0002   -0.9762    0.2154
       42 FE2    4f3-      -0.0000   -0.0000   -0.0000   -0.0001   -0.0000    0.0000    0.0009    0.0009    0.0004   -0.0012
[...]
ATVX     1  Mu1.0014  Se1.026                       0.13612622     -0.00000000      0.00000000     -0.00000000
ATVX     1  Mu1.0015  Se1.026                       0.13612622     -0.00000000      0.00000000     -0.00000000
ATVX     1  Mu1.0016  Se1.026                       0.13616643     -0.00000003      0.00000004     -0.00000000
ATVX     1  Mu1.0017  Se1.026                       0.14942845      0.00000203     -0.00001304     -0.00000000
ATVX     1  Mu1.0018  Se1.026                       0.14944066     -0.00000114      0.00000734     -0.00000000
ATVX     1  Mu1.0019  Se1.026                       0.15096264     -0.00000000      0.00000000     -0.00000000
ATVX     1  Mu1.0020  Se1.026                       0.15098512      0.00000000     -0.00000000     -0.00000000
ATVX     1  Mu1.0021  Se1.026                       0.15112901     -0.00000000      0.00000000     -0.00000000
ATVX     1  Mu1.0022  Se1.026                       0.15112907      0.00000000     -0.00000000     -0.00000000
ATVX     1  Mu1.0023  Se1.026                       0.15172828     -0.00000000      0.00000000     -0.00000000
ATVX     1  Mu1.0024  Se1.026                       0.15173206      0.00000000     -0.00000000     -0.00000000
ATVX     1  Mu1.0025  Se1.026                       0.15587272     -0.00000000      0.00000000     -0.00000000
ATVX     1  Mu1.0026  Se1.026                       0.15588373      0.00000000     -0.00000000     -0.00000000
ATVX     1  Mu1.0027  Se1.026                       0.17038994     -0.00000000      0.00000000     -0.00000000
ATVX     1  Mu1.0028  Se1.026                       0.17046763     -0.00000000      0.00000000     -0.00000000
ATVX     1  Mu1.0029  Se1.026                       0.19122240      0.00000000     -0.00000000     -0.00000000
ATVX     1  Mu1.0030  Se1.026                       0.19124217     -0.00000000      0.00000000     -0.00000000
ATVX     1  Mu1.0031  Se1.026                       0.19418433     -0.00000000      0.00000000     -0.00000000
ATVX     1  Mu1.0032  Se1.026                       0.19422871      0.00000000     -0.00000000     -0.00000000
ATVX     1  Mu1.0033  Se1.026                       0.19781139      0.00000000     -0.00000000     -0.00000000
ATVX     1  Mu1.0034  Se1.026                       0.19782169      0.00000000     -0.00000000     -0.00000000
ATVX     1  Mu1.0035  Se1.026                       0.20385472     -0.00000413      0.00001737     -0.00000000
ATVX     1  Mu1.0036  Se1.026                       0.20386279     -0.00000303      0.00001273     -0.00000000
ATVX     1  Mu1.0037  Se1.026                       0.20715971      0.00000000     -0.00000000     -0.00000000
ATVX     1  Mu1.0038  Se1.026                       0.22956928      0.00000133     -0.00000563     -0.00000000
ATVX     1  Mu1.0039  Se1.026                       0.22965725     -0.00000007      0.00000031     -0.00000000
ATVX     1  Mu1.0040  Se1.026                       0.24167631      0.00000000     -0.00000000     -0.00000000
ATVX     1  Mu1.0041  Se1.026                       0.24167635      0.00000000     -0.00000000     -0.00000000
ATVX     1  Mu1.0042  Se1.026                       0.24410099      0.00000000     -0.00000000     -0.00000000
ATVX     1  Mu1.0043  Se1.026                       0.24410229     -0.00000000      0.00000000     -0.00000000
ATVX     1  Mu1.0044  Se1.026                       0.25592468     -0.00095156      0.00359666     -0.00000342
ATVX     1  Mu1.0045  Se1.026                       0.28387467     -0.00007333     -0.00107723      0.00000008
ATVX     1  Mu1.0046  Se1.026                       0.29221059     -0.00000052     -0.00000913      0.00000000
ATVX     1  Mu1.0047  Se1.026                       0.29223402      0.00000076      0.00001332      0.00000000
ATVX     1  Mu1.0001  Se1.027                      -0.12352088      0.00000000      0.00000000      0.00000000
ATVX     1  Mu1.0002  Se1.027                      -0.11028440      0.00000000      0.00000000      0.00000000
ATVX     1  Mu1.0003  Se1.027                      -0.11027409      0.00000000     -0.00000000     -0.00000000
ATVX     1  Mu1.0004  Se1.027                      -0.06920656      0.00000000      0.00000000      0.00000000
ATVX     1  Mu1.0005  Se1.027                       0.02862916      0.00000000     -0.00000000     -0.00000000
ATVX     1  Mu1.0006  Se1.027                       0.02862920      0.00000000      0.00000000      0.00000000
ATVX     1  Mu1.0007  Se1.027                       0.26415693     -0.00000000      0.00000000     -0.00000000
ATVX     1  Mu1.0008  Se1.027                       0.26415694      0.00000000      0.00000000      0.00000000
ATVX     1  Mu1.0009  Se1.027                       0.27702514      0.00000000     -0.00000001     -0.00000000
ATVX     1  Mu1.0010  Se1.027                       0.27703585     -0.00000000      0.00000000     -0.00000000
ATVX     1  Mu1.0011  Se1.027                       0.27773461     -0.00000139      0.00000809     -0.00000000
ATVX     1  Mu1.0012  Se1.027                       0.27774657      0.00000267     -0.00001559     -0.00000000
ATVX     1  Mu1.0001  Se1.028                      -0.12166668      0.00000000      0.00000000      0.00000000
ATVX     1  Mu1.0002  Se1.028                      -0.10843020     -0.00000000     -0.00000000      0.00000000
ATVX     1  Mu1.0003  Se1.028                      -0.10841989      0.00000043     -0.00000060     -0.00000000
ATVX     1  Mu1.0004  Se1.028                      -0.06735236     -0.00000000     -0.00000000      0.00000000
ATVX     1  Mu1.0005  Se1.028                       0.03048336      0.00000024      0.00001498      0.00000000
ATVX     1  Mu1.0006  Se1.028                       0.03048340     -0.00001352     -0.00085080      0.00000001
ATVX     1  Mu1.0007  Se1.028                       0.26601113      0.00000000     -0.00000002     -0.00000000
ATVX     1  Mu1.0008  Se1.028                       0.26601114      0.00000407     -0.00003515     -0.00000000
ATVX     1  Mu1.0009  Se1.028                       0.27887934      0.00000000     -0.00000000     -0.00000000
ATVX     1  Mu1.0010  Se1.028                       0.27889005      0.00000000     -0.00000000     -0.00000000
ATVX     1  Mu1.0011  Se1.028                       0.27958881     -0.00000000      0.00000000     -0.00000000
ATVX     1  Mu1.0012  Se1.028                       0.27960077     -0.00000000      0.00000000     -0.00000000
ATVX     1  Mu1.0001  Se1.029                      -0.12166444     -0.00000000     -0.00000000      0.00000000
ATVX     1  Mu1.0002  Se1.029                      -0.10842796      0.00000043     -0.00000060     -0.00000000
ATVX     1  Mu1.0003  Se1.029                      -0.10841765      0.00000000      0.00000000      0.00000000
ATVX     1  Mu1.0004  Se1.029                      -0.06735012     -0.00000000      0.00000000     -0.00000000
ATVX     1  Mu1.0005  Se1.029                       0.03048560     -0.00001352     -0.00085072      0.00000001
ATVX     1  Mu1.0006  Se1.029                       0.03048564     -0.00000024     -0.00001498      0.00000000
ATVX     1  Mu1.0007  Se1.029                       0.26601337      0.00000407     -0.00003515     -0.00000000
ATVX     1  Mu1.0008  Se1.029                       0.26601338     -0.00000000      0.00000002     -0.00000000
ATVX     1  Mu1.0009  Se1.029                       0.27888158      0.00000000     -0.00000000     -0.00000000
ATVX     1  Mu1.0010  Se1.029                       0.27889229      0.00000000     -0.00000000     -0.00000000
ATVX     1  Mu1.0011  Se1.029                       0.27959105      0.00000000     -0.00000000     -0.00000000
ATVX     1  Mu1.0012  Se1.029                       0.27960301      0.00000000     -0.00000000     -0.00000000
ATVX     1  Mu1.0001  Se1.030                       0.04733430      0.00000000     -0.00000000     -0.00000000
ATVX     1  Mu1.0002  Se1.030                       0.06057079      0.00000000     -0.00000000     -0.00000000
ATVX     1  Mu1.0003  Se1.030                       0.06058110     -0.00000000     -0.00000000      0.00000000
ATVX     1  Mu1.0004  Se1.030                       0.10164862      0.00000000     -0.00000000     -0.00000000
ATVX     1  Mu1.0005  Se1.030                       0.19948434      0.00000000     -0.00000000     -0.00000000
ATVX     1  Mu1.0006  Se1.030                       0.19948438     -0.00000000      0.00000000     -0.00000000
ATVX     1  Mu1.0279  Se1.031                       2.30610768      0.09254492     -0.04123734     -0.00381631
ATVX     1  Mu1.0278  Se1.032                       2.30610758      0.09254492     -0.04123734     -0.00381631
AIVX     1  Mu1.0141  In1.011 Se1.033               3.35702969     -0.09875587      0.02971720     -0.00293475
AIVX     1  Mu1.0130  In1.008 Se1.034               6.30426958     -0.16002084      0.02538288     -0.00406179
AIVX     1  Mu1.0130  In1.009 Se1.035               6.29583620      0.15970841     -0.02536678     -0.00405129
AIVX     1  Mu1.0169  In1.009 Se1.035               6.56179497      0.17758527     -0.02706359     -0.00480610
AIVX     1  Mu1.0130  In1.010 Se1.036               6.29583999      0.15973332     -0.02537075     -0.00405255
AIVX     1  Mu1.0169  In1.010 Se1.036               6.56179877      0.17759209     -0.02706462     -0.00480646
AIVX     1  Mu1.0029  In1.011 Se1.037               3.46872331     -0.10644239      0.02938757     -0.00312808
AIVX     1  Mu1.0030  In1.011 Se1.037               3.46872331      0.10131841     -0.02797289     -0.00283417
AIVX     1  Mu1.0051  In1.011 Se1.038               3.71831057      0.13024714     -0.03362431     -0.00437947
AIVX     1  Mu1.0038  In1.011 Se1.041               3.51641843      0.10136429     -0.02755198     -0.00279279
BVATM    1  Mu1.0001  Se1.027 Se1.026               0.28045864      0.00000000     -0.00000000     -0.00000000
BVATM    1  Mu1.0001  Se1.028 Se1.026               0.28231284      0.00000000      0.00000000      0.00000000
BVATM    1  Mu1.0001  Se1.029 Se1.026               0.28231508     -0.00000000     -0.00000000      0.00000000
BVATM    1  Mu1.0001  Se1.032 Se1.031               1.95991685     -0.07182583      0.03696287     -0.00265489
BVATM    1  Mu1.0001  Se1.038 Se1.037               5.01019075     -0.12962465      0.02587220     -0.00335367
BJATP    1  Mu1.0002  In1.011 Se1.033 Se1.031       2.94647611     -0.08240141      0.02784074     -0.00229412
BJATP    1  Mu1.0001  In1.011 Se1.033 Se1.032       2.94647613      0.08240141     -0.02784074     -0.00229412
BJATM    1  Mu1.0002  In1.011 Se1.033 Se1.031       2.94647611      0.07843540     -0.02853265     -0.00223797
BJATM    1  Mu1.0001  In1.011 Se1.033 Se1.032       2.94647613     -0.07843540      0.02853265     -0.00223797
BJAIP    1  Se1.033 In1.011 Se1.033 In1.011         3.93301255      0.12199611     -0.03316516     -0.00404602
--
 
   (Skipping property calculation,
    use PROP keyword to activate)
--
 
  Total CASPT2 energies:
::    CASPT2 Root  1     Total energy:  -1345.82684661
 
  A NEW JOBIPH FILE NAMED 'JOBMIX' IS PREPARED.
********************************************************************************
--- Stop Module: caspt2 at Wed Dec 25 05:51:25 2024 /rc=_RC_ALL_IS_WELL_ ---
*** files: xmldump
    saved to directory /home/grierjones/DDCASPT2/iron_oxo_DDCASPT2/cluster/5.18
--- Module caspt2 spent 5 minutes 30 seconds ---

>>> EXPORT i = B

>>> EXPORT j = P

>>> IF (-FILE GMJ_e2_${i}_${j}.csv)

>>> COPY /tmp/5.18/GMJ_RHS_B_P.csv /home/grierjones/DDCASPT2/iron_oxo_DDCASPT2/cluster/5.18/GMJ_RHS_B_P.csv

>>> COPY /tmp/5.18/GMJ_IVECW_B_P.csv /home/grierjones/DDCASPT2/iron_oxo_DDCASPT2/cluster/5.18/GMJ_IVECW_B_P.csv

>>> COPY /tmp/5.18/GMJ_IVECX_B_P.csv /home/grierjones/DDCASPT2/iron_oxo_DDCASPT2/cluster/5.18/GMJ_IVECX_B_P.csv

>>> COPY /tmp/5.18/GMJ_IVECC2_B_P.csv /home/grierjones/DDCASPT2/iron_oxo_DDCASPT2/cluster/5.18/GMJ_IVECC2_B_P.csv

>>> COPY /tmp/5.18/GMJ_e2_B_P.csv /home/grierjones/DDCASPT2/iron_oxo_DDCASPT2/cluster/5.18/GMJ_e2_B_P.csv

>>> END FOREACH

>>> EXPORT j = M

>>> IF (-FILE GMJ_e2_${i}_${j}.csv)

>>> COPY /tmp/5.18/GMJ_RHS_B_M.csv /home/grierjones/DDCASPT2/iron_oxo_DDCASPT2/cluster/5.18/GMJ_RHS_B_M.csv

>>> COPY /tmp/5.18/GMJ_IVECW_B_M.csv /home/grierjones/DDCASPT2/iron_oxo_DDCASPT2/cluster/5.18/GMJ_IVECW_B_M.csv

>>> COPY /tmp/5.18/GMJ_IVECX_B_M.csv /home/grierjones/DDCASPT2/iron_oxo_DDCASPT2/cluster/5.18/GMJ_IVECX_B_M.csv

>>> COPY /tmp/5.18/GMJ_IVECC2_B_M.csv /home/grierjones/DDCASPT2/iron_oxo_DDCASPT2/cluster/5.18/GMJ_IVECC2_B_M.csv

>>> COPY /tmp/5.18/GMJ_e2_B_M.csv /home/grierjones/DDCASPT2/iron_oxo_DDCASPT2/cluster/5.18/GMJ_e2_B_M.csv

>>> END FOREACH

>>> END FOREACH

>>> EXPORT i = E

>>> EXPORT j = P

>>> IF (-FILE GMJ_e2_${i}_${j}.csv)

>>> COPY /tmp/5.18/GMJ_RHS_E_P.csv /home/grierjones/DDCASPT2/iron_oxo_DDCASPT2/cluster/5.18/GMJ_RHS_E_P.csv

>>> COPY /tmp/5.18/GMJ_IVECW_E_P.csv /home/grierjones/DDCASPT2/iron_oxo_DDCASPT2/cluster/5.18/GMJ_IVECW_E_P.csv

>>> COPY /tmp/5.18/GMJ_IVECX_E_P.csv /home/grierjones/DDCASPT2/iron_oxo_DDCASPT2/cluster/5.18/GMJ_IVECX_E_P.csv

>>> COPY /tmp/5.18/GMJ_IVECC2_E_P.csv /home/grierjones/DDCASPT2/iron_oxo_DDCASPT2/cluster/5.18/GMJ_IVECC2_E_P.csv

>>> COPY /tmp/5.18/GMJ_e2_E_P.csv /home/grierjones/DDCASPT2/iron_oxo_DDCASPT2/cluster/5.18/GMJ_e2_E_P.csv

>>> END FOREACH

>>> EXPORT j = M

>>> IF (-FILE GMJ_e2_${i}_${j}.csv)

>>> COPY /tmp/5.18/GMJ_RHS_E_M.csv /home/grierjones/DDCASPT2/iron_oxo_DDCASPT2/cluster/5.18/GMJ_RHS_E_M.csv

>>> COPY /tmp/5.18/GMJ_IVECW_E_M.csv /home/grierjones/DDCASPT2/iron_oxo_DDCASPT2/cluster/5.18/GMJ_IVECW_E_M.csv

>>> COPY /tmp/5.18/GMJ_IVECX_E_M.csv /home/grierjones/DDCASPT2/iron_oxo_DDCASPT2/cluster/5.18/GMJ_IVECX_E_M.csv

>>> COPY /tmp/5.18/GMJ_IVECC2_E_M.csv /home/grierjones/DDCASPT2/iron_oxo_DDCASPT2/cluster/5.18/GMJ_IVECC2_E_M.csv

>>> COPY /tmp/5.18/GMJ_e2_E_M.csv /home/grierjones/DDCASPT2/iron_oxo_DDCASPT2/cluster/5.18/GMJ_e2_E_M.csv

>>> END FOREACH

>>> END FOREACH

>>> EXPORT i = F

>>> EXPORT j = P

>>> IF (-FILE GMJ_e2_${i}_${j}.csv)

>>> COPY /tmp/5.18/GMJ_RHS_F_P.csv /home/grierjones/DDCASPT2/iron_oxo_DDCASPT2/cluster/5.18/GMJ_RHS_F_P.csv

>>> COPY /tmp/5.18/GMJ_IVECW_F_P.csv /home/grierjones/DDCASPT2/iron_oxo_DDCASPT2/cluster/5.18/GMJ_IVECW_F_P.csv

>>> COPY /tmp/5.18/GMJ_IVECX_F_P.csv /home/grierjones/DDCASPT2/iron_oxo_DDCASPT2/cluster/5.18/GMJ_IVECX_F_P.csv

>>> COPY /tmp/5.18/GMJ_IVECC2_F_P.csv /home/grierjones/DDCASPT2/iron_oxo_DDCASPT2/cluster/5.18/GMJ_IVECC2_F_P.csv

>>> COPY /tmp/5.18/GMJ_e2_F_P.csv /home/grierjones/DDCASPT2/iron_oxo_DDCASPT2/cluster/5.18/GMJ_e2_F_P.csv

>>> END FOREACH

>>> EXPORT j = M

>>> IF (-FILE GMJ_e2_${i}_${j}.csv)

>>> COPY /tmp/5.18/GMJ_RHS_F_M.csv /home/grierjones/DDCASPT2/iron_oxo_DDCASPT2/cluster/5.18/GMJ_RHS_F_M.csv

>>> COPY /tmp/5.18/GMJ_IVECW_F_M.csv /home/grierjones/DDCASPT2/iron_oxo_DDCASPT2/cluster/5.18/GMJ_IVECW_F_M.csv

>>> COPY /tmp/5.18/GMJ_IVECX_F_M.csv /home/grierjones/DDCASPT2/iron_oxo_DDCASPT2/cluster/5.18/GMJ_IVECX_F_M.csv

>>> COPY /tmp/5.18/GMJ_IVECC2_F_M.csv /home/grierjones/DDCASPT2/iron_oxo_DDCASPT2/cluster/5.18/GMJ_IVECC2_F_M.csv

>>> COPY /tmp/5.18/GMJ_e2_F_M.csv /home/grierjones/DDCASPT2/iron_oxo_DDCASPT2/cluster/5.18/GMJ_e2_F_M.csv

>>> END FOREACH

>>> END FOREACH

>>> EXPORT i = G

>>> EXPORT j = P

>>> IF (-FILE GMJ_e2_${i}_${j}.csv)

>>> COPY /tmp/5.18/GMJ_RHS_G_P.csv /home/grierjones/DDCASPT2/iron_oxo_DDCASPT2/cluster/5.18/GMJ_RHS_G_P.csv

>>> COPY /tmp/5.18/GMJ_IVECW_G_P.csv /home/grierjones/DDCASPT2/iron_oxo_DDCASPT2/cluster/5.18/GMJ_IVECW_G_P.csv

>>> COPY /tmp/5.18/GMJ_IVECX_G_P.csv /home/grierjones/DDCASPT2/iron_oxo_DDCASPT2/cluster/5.18/GMJ_IVECX_G_P.csv

>>> COPY /tmp/5.18/GMJ_IVECC2_G_P.csv /home/grierjones/DDCASPT2/iron_oxo_DDCASPT2/cluster/5.18/GMJ_IVECC2_G_P.csv

>>> COPY /tmp/5.18/GMJ_e2_G_P.csv /home/grierjones/DDCASPT2/iron_oxo_DDCASPT2/cluster/5.18/GMJ_e2_G_P.csv

>>> END FOREACH

>>> EXPORT j = M

>>> IF (-FILE GMJ_e2_${i}_${j}.csv)

>>> COPY /tmp/5.18/GMJ_RHS_G_M.csv /home/grierjones/DDCASPT2/iron_oxo_DDCASPT2/cluster/5.18/GMJ_RHS_G_M.csv

>>> COPY /tmp/5.18/GMJ_IVECW_G_M.csv /home/grierjones/DDCASPT2/iron_oxo_DDCASPT2/cluster/5.18/GMJ_IVECW_G_M.csv

>>> COPY /tmp/5.18/GMJ_IVECX_G_M.csv /home/grierjones/DDCASPT2/iron_oxo_DDCASPT2/cluster/5.18/GMJ_IVECX_G_M.csv

>>> COPY /tmp/5.18/GMJ_IVECC2_G_M.csv /home/grierjones/DDCASPT2/iron_oxo_DDCASPT2/cluster/5.18/GMJ_IVECC2_G_M.csv

>>> COPY /tmp/5.18/GMJ_e2_G_M.csv /home/grierjones/DDCASPT2/iron_oxo_DDCASPT2/cluster/5.18/GMJ_e2_G_M.csv

>>> END FOREACH

>>> END FOREACH

>>> EXPORT i = H

>>> EXPORT j = P

>>> IF (-FILE GMJ_e2_${i}_${j}.csv)

>>> COPY /tmp/5.18/GMJ_RHS_H_P.csv /home/grierjones/DDCASPT2/iron_oxo_DDCASPT2/cluster/5.18/GMJ_RHS_H_P.csv

>>> COPY /tmp/5.18/GMJ_IVECW_H_P.csv /home/grierjones/DDCASPT2/iron_oxo_DDCASPT2/cluster/5.18/GMJ_IVECW_H_P.csv

>>> COPY /tmp/5.18/GMJ_IVECX_H_P.csv /home/grierjones/DDCASPT2/iron_oxo_DDCASPT2/cluster/5.18/GMJ_IVECX_H_P.csv

>>> COPY /tmp/5.18/GMJ_IVECC2_H_P.csv /home/grierjones/DDCASPT2/iron_oxo_DDCASPT2/cluster/5.18/GMJ_IVECC2_H_P.csv

>>> COPY /tmp/5.18/GMJ_e2_H_P.csv /home/grierjones/DDCASPT2/iron_oxo_DDCASPT2/cluster/5.18/GMJ_e2_H_P.csv

>>> END FOREACH

>>> EXPORT j = M

>>> IF (-FILE GMJ_e2_${i}_${j}.csv)

>>> COPY /tmp/5.18/GMJ_RHS_H_M.csv /home/grierjones/DDCASPT2/iron_oxo_DDCASPT2/cluster/5.18/GMJ_RHS_H_M.csv

>>> COPY /tmp/5.18/GMJ_IVECW_H_M.csv /home/grierjones/DDCASPT2/iron_oxo_DDCASPT2/cluster/5.18/GMJ_IVECW_H_M.csv

>>> COPY /tmp/5.18/GMJ_IVECX_H_M.csv /home/grierjones/DDCASPT2/iron_oxo_DDCASPT2/cluster/5.18/GMJ_IVECX_H_M.csv

>>> COPY /tmp/5.18/GMJ_IVECC2_H_M.csv /home/grierjones/DDCASPT2/iron_oxo_DDCASPT2/cluster/5.18/GMJ_IVECC2_H_M.csv

>>> COPY /tmp/5.18/GMJ_e2_H_M.csv /home/grierjones/DDCASPT2/iron_oxo_DDCASPT2/cluster/5.18/GMJ_e2_H_M.csv

>>> END FOREACH

>>> END FOREACH

>>> EXPORT i = A

>>> IF (-FILE GMJ_e2_$i.csv)

>>> COPY /tmp/5.18/GMJ_RHS_A.csv /home/grierjones/DDCASPT2/iron_oxo_DDCASPT2/cluster/5.18/GMJ_RHS_A.csv

>>> COPY /tmp/5.18/GMJ_IVECW_A.csv /home/grierjones/DDCASPT2/iron_oxo_DDCASPT2/cluster/5.18/GMJ_IVECW_A.csv

>>> COPY /tmp/5.18/GMJ_IVECX_A.csv /home/grierjones/DDCASPT2/iron_oxo_DDCASPT2/cluster/5.18/GMJ_IVECX_A.csv

>>> COPY /tmp/5.18/GMJ_IVECC2_A.csv /home/grierjones/DDCASPT2/iron_oxo_DDCASPT2/cluster/5.18/GMJ_IVECC2_A.csv

>>> COPY /tmp/5.18/GMJ_e2_A.csv /home/grierjones/DDCASPT2/iron_oxo_DDCASPT2/cluster/5.18/GMJ_e2_A.csv

>>> END FOREACH

>>> EXPORT i = C

>>> IF (-FILE GMJ_e2_$i.csv)

>>> COPY /tmp/5.18/GMJ_RHS_C.csv /home/grierjones/DDCASPT2/iron_oxo_DDCASPT2/cluster/5.18/GMJ_RHS_C.csv

>>> COPY /tmp/5.18/GMJ_IVECW_C.csv /home/grierjones/DDCASPT2/iron_oxo_DDCASPT2/cluster/5.18/GMJ_IVECW_C.csv

>>> COPY /tmp/5.18/GMJ_IVECX_C.csv /home/grierjones/DDCASPT2/iron_oxo_DDCASPT2/cluster/5.18/GMJ_IVECX_C.csv

>>> COPY /tmp/5.18/GMJ_IVECC2_C.csv /home/grierjones/DDCASPT2/iron_oxo_DDCASPT2/cluster/5.18/GMJ_IVECC2_C.csv

>>> COPY /tmp/5.18/GMJ_e2_C.csv /home/grierjones/DDCASPT2/iron_oxo_DDCASPT2/cluster/5.18/GMJ_e2_C.csv

>>> END FOREACH

>>> EXPORT i = D

>>> IF (-FILE GMJ_e2_$i.csv)

>>> COPY /tmp/5.18/GMJ_RHS_D.csv /home/grierjones/DDCASPT2/iron_oxo_DDCASPT2/cluster/5.18/GMJ_RHS_D.csv

>>> COPY /tmp/5.18/GMJ_IVECW_D.csv /home/grierjones/DDCASPT2/iron_oxo_DDCASPT2/cluster/5.18/GMJ_IVECW_D.csv

>>> COPY /tmp/5.18/GMJ_IVECX_D.csv /home/grierjones/DDCASPT2/iron_oxo_DDCASPT2/cluster/5.18/GMJ_IVECX_D.csv

>>> COPY /tmp/5.18/GMJ_IVECC2_D.csv /home/grierjones/DDCASPT2/iron_oxo_DDCASPT2/cluster/5.18/GMJ_IVECC2_D.csv

>>> COPY /tmp/5.18/GMJ_e2_D.csv /home/grierjones/DDCASPT2/iron_oxo_DDCASPT2/cluster/5.18/GMJ_e2_D.csv

>>> END FOREACH

.########################.
.# Non-zero return code #.
.########################.

    Timing: Wall=401.58 User=398.35 System=3.11
************************************
*** WorkDir at /tmp/5.18 cleaned ***
************************************
