[Molden Format]
[N_Atoms]
                     2
[Atoms] (AU)
F1          1      9           0.00000000      0.00000000      0.00000000
LI2         2      3           0.00000000      0.00000000      1.70075351
[Charge] (Mulliken)
  0.765151245251916     
   1.23484875474805     
[GTO] (AU)
   1
   s  14
  1.031094600E+05  1.713099991E-04
  1.528100700E+04  7.123999962E-04
  3.441539200E+03  2.990479984E-03
  9.670948300E+02  1.164036994E-02
  3.140353400E+02  3.968642979E-02
  1.134423000E+02  1.128546094E-01
  4.464472700E+01  2.473650687E-01
  1.894287400E+01  3.672702681E-01
  8.532743000E+00  2.896286985E-01
  3.919401000E+00  7.786681959E-02
  1.568157000E+00  4.562139976E-03
  6.232900000E-01  2.468879987E-03
  2.408610000E-01  1.106309994E-03
  8.430100000E-02  1.739699991E-04
   s  14
  1.031094600E+05 -4.044999995E-05
  1.528100700E+04 -1.682299998E-04
  3.441539200E+03 -7.084299991E-04
  9.670948300E+02 -2.767999996E-03
  3.140353400E+02 -9.611379987E-03
  1.134423000E+02 -2.833957996E-02
  4.464472700E+01 -6.839343991E-02
  1.894287400E+01 -1.237379298E-01
  8.532743000E+00 -1.512859698E-01
  3.919401000E+00 -9.099909988E-03
  1.568157000E+00  3.716257695E-01
  6.232900000E-01  5.500214393E-01
  2.408610000E-01  2.092318697E-01
  8.430100000E-02  8.074639989E-03
   p   9
  2.453302900E+02  1.024860004E-03
  5.691900500E+01  8.344290032E-03
  1.760456800E+01  4.078927016E-02
  6.274995000E+00  1.351370605E-01
  2.447030000E+00  2.798830811E-01
  9.950600000E-01  3.597966414E-01
  4.039730000E-01  3.055347412E-01
  1.548100000E-01  1.354703905E-01
  5.418400000E-02  2.804449011E-02
 
   2
   s  14
  9.497934400E+03  9.668999974E-05
  1.416811200E+03  6.087099984E-04
  3.214599400E+02  3.101519992E-03
  9.112416300E+01  1.266904997E-02
  2.999989100E+01  4.248012989E-02
  1.101763100E+01  1.150183297E-01
  4.372801000E+00  2.398650094E-01
  1.831256000E+00  3.584300090E-01
  8.022610000E-01  3.048527792E-01
  3.626480000E-01  8.824261976E-02
  1.139950000E-01 -8.445899977E-04
  5.123700000E-02 -7.943959979E-03
  2.246800000E-02 -3.764419990E-03
  7.860000000E-03 -8.868999976E-05
   s  14
  9.497934400E+03 -1.244999993E-05
  1.416811200E+03 -7.838999954E-05
  3.214599400E+02 -4.007099976E-04
  9.112416300E+01 -1.645249990E-03
  2.999989100E+01 -5.634599967E-03
  1.101763100E+01 -1.590780991E-02
  4.372801000E+00 -3.612581979E-02
  1.831256000E+00 -6.459927962E-02
  8.022610000E-01 -1.008321794E-01
  3.626480000E-01 -9.757613942E-02
  1.139950000E-01  2.301215886E-01
  5.123700000E-02  6.102389764E-01
  2.246800000E-02  2.849406083E-01
  7.860000000E-03  4.026899976E-03
   p   9
  1.311950400E+01  1.524940000E-03
  3.077424200E+00  8.314830000E-03
  1.098800500E+00  1.933203000E-02
  4.357784000E-01  4.934293000E-02
  1.802432000E-01  1.623554000E-01
  7.613330000E-02  3.847505400E-01
  3.254650000E-02  4.336100400E-01
  1.401820000E-02  1.287005900E-01
  4.906400000E-03 -1.018520000E-03
 
[MO]
Sym=     1a  
Ene=   -28.0370
Spin= Alpha
Occup=    2.00000
   1         0.99998691
   2        -0.00442947
   3         0.00000011
   4         0.00000057
   5         0.00093639
   6        -0.00023727
   7        -0.00004118
   8        -0.00000001
   9        -0.00000005
  10        -0.00017920
Sym=     2a  
Ene=    -3.7877
Spin= Alpha
Occup=    2.00000
   1        -0.01483056
   2         0.26571216
   3        -0.00000083
   4        -0.00000434
   5         0.11789031
   6         0.85476391
   7        -0.02689565
   8         0.00000008
   9         0.00000040
  10        -0.00751014
Sym=     3a  
Ene=    -2.6963
Spin= Alpha
Occup=    2.00000
   1        -0.01723539
   2        -1.02795432
   3        -0.00001454
   4        -0.00007643
   5         0.00425207
   6         0.50151035
   7         0.05382039
   8         0.00000134
   9         0.00000704
  10        -0.02600970
Sym=     4a  
Ene=    -1.9824
Spin= Alpha
Occup=    2.00000
   1        -0.00000000
   2         0.00000000
   3         1.00655647
   4        -0.19148751
   5         0.00000000
   6        -0.00000000
   7         0.00000000
   8        -0.09286276
   9         0.01766623
  10        -0.00000000
Sym=     5a  
Ene=    -1.9712
Spin= Alpha
Occup=    1.96822
   1        -0.00000195
   2        -0.00007696
   3         0.19150573
   4         1.00665229
   5         0.00000079
   6         0.00004180
   7         0.00000403
   8        -0.01775025
   9        -0.09330443
  10        -0.00000209
Sym=     6a  
Ene=     0.0028
Spin= Alpha
Occup=    0.03178
   1        -0.00547321
   2        -0.05621454
   3        -0.00000016
   4        -0.00000083
   5        -1.08048949
   6         0.50893858
   7         0.04851416
   8         0.00000070
   9         0.00000365
  10         0.10702907
Sym=     7a  
Ene=    -0.4423
Spin= Alpha
Occup=    0.00000
   1        -0.03471882
   2        -0.26931706
   3         0.00000006
   4         0.00000031
   5         0.03215287
   6         0.06513931
   7         1.04539167
   8        -0.00000031
   9        -0.00000161
  10         0.03781337
Sym=     8a  
Ene=    -0.3453
Spin= Alpha
Occup=    0.00000
   1         0.00000011
   2         0.00000070
   3        -0.04233510
   4        -0.22253498
   5         0.00000378
   6        -0.00000189
   7         0.00000108
   8         0.19532444
   9         1.02672535
  10         0.00000219
Sym=     9a  
Ene=    -0.3452
Spin= Alpha
Occup=    0.00000
   1         0.00000000
   2         0.00000000
   3         0.22296798
   4        -0.04241747
   5         0.00000000
   6        -0.00000000
   7         0.00000000
   8        -1.02676539
   9         0.19533205
  10         0.00000000
Sym=    10a  
Ene=    -0.3137
Spin= Alpha
Occup=    0.00000
   1         0.06228906
   2         0.41767139
   3         0.00000011
   4         0.00000060
   5        -0.04758381
   6        -0.08834969
   7        -0.17170779
   8        -0.00000045
   9        -0.00000239
  10         1.08287224
