   This run of MOLCAS is using the pymolcas driver

                             OPE
                             OPE          NMOL  CASOP  ENMOLC A   SO
                 OPE        NMOLC        AS  OP EN  MO LC     AS  OP
                OPENM       OL CA        SO  PE NM  OL CA     SOP EN
                OP EN      MO   LC       AS  OP ENMOL  CASO   PENMOL
                OP  EN     MO   LC       AS  OP EN     MO     LC ASO
               OP   E  NMOL  C  AS       OP  EN MO     LC     AS  OP
               OP  E   NMO   LC AS        OPEN  MO     LCASOP EN   M
               O  PEN   MO  LCA  SO
            OPE   NMO   L   CAS    OP
        OPENMOL  CASOP     ENMOL   CASOPE
     OPENMOLCA   SOPENMOLCASOPEN   MOLCASOPE
    OPENMOLCAS   OP           EN   MOL    CAS
    OPENMOLCAS       OP  ENM        O     LCA
    OPENMOLCAS    OPEN  MOLCASO     P  E  NMO
    OPENMOLCAS     OP               E  N  MOL
    OPENMOLCA   SO           PENM   O  L  CAS    OPEN    MO    LCAS
    OPENMOLCA   SOP           ENM   O  L  CAS   OP  EN  MOLC  AS   O
    OPENMOLCA   SOPE           NM      O  LCA   S      OP  EN MO
    OPENMOLC                AS         O  PEN   M      OL  CA  SOPE
    OPENMO        LCASOPE  NMOL        C  ASO   P      ENMOLC     AS
    OPE     NMO      LCA  SO     P     E   NM   OL  CA SO  PE N   MO
          OPENMOLCA            SOPE   NMO        LCAS  O    P  ENMO
     OPENMOLCASOPENMOLCASOPENMOLCASOPENMOLCA
        OPENMOLCASOPENMOLCASOPENMOLCASOPE
            OPENMOLCASOPENMOLCASOPENM
               OPENMOLCASOPENMOLCA        version: 44d3b5344-dirty
                   OPENMOLCASO
                       OPE                tag:

 OpenMolcas is free software; you can redistribute it and/or modify it
 under the terms of the GNU Lesser General Public License version 2.1.
 OpenMolcas is distributed in the hope that it will be useful, but it
 is provided "as is" and without any express or implied warranties.
 For more details see the full text of the license in the file
 LICENSE or in <http://www.gnu.org/licenses/>.

                 Copyright (C) The OpenMolcas Authors
           For the author list and the recommended citation,
                   consult the file CONTRIBUTORS.md

           *************************************************
           * pymolcas version py2.28                       *
           *   build c4a6d18ded8cb6cad61d2372a9abd97c      *
           *   (after the EMIL interpreter by V. Veryazov) *
           *************************************************

configuration info
------------------
C Compiler ID: Intel
C flags: -std=gnu99
Fortran Compiler ID: Intel
Fortran flags: -fpp -i8 -r8 -heap-arrays
Definitions: _MOLCAS_;_I8_;_LINUX_
Parallel: OFF (GA=OFF)


   ----------------------------------------------------------------------------------------------------------
  |
  |              Project: H6_1.86
  |       Submitted from: /home/grierjones/DDCASPT2/hydrogen_comps/minimal_2e_2o/chains/even/H6_chain/H6_1.86
  |         Scratch area: /tmp/H6_1.86
  |      Save outputs to: /home/grierjones/DDCASPT2/hydrogen_comps/minimal_2e_2o/chains/even/H6_chain/H6_1.86
  |               Molcas: /home/grierjones/Test/build
  |
  | Scratch area is empty
  |
  |       MOLCAS_DRIVER = /usr/local/pymolcas
  | MOLCAS_KEEP_WORKDIR = NO
  |  MOLCAS_NEW_WORKDIR = YES
  |       MOLCAS_NPROCS = 1
  |       MOLCAS_SOURCE = /home/grierjones/Test/build
  |    MOLCAS_STRUCTURE = 0
  |
   ----------------------------------------------------------------------------------------------------------

++ ---------   Input file   ---------

&GATEWAY
coord=H6_1.86.xyz
Basis = ANO-RCC-VDZP
Group = nosymm
Expert
End of Input

&SEWARD
End of Input

&MOTRA
Frozen=0

>>> COPY $WorkDir/GMJ_one_int_indx.csv $CurrDir/H6_1.86.GMJ_one_int_indx.csv

>>> COPY $WorkDir/GMJ_one_int.csv $CurrDir/H6_1.86.GMJ_one_int.csv

>>> COPY $WorkDir/GMJ_two_int_indx.csv $CurrDir/H6_1.86.GMJ_two_int_indx.csv

>>> COPY $WorkDir/GMJ_two_int.csv $CurrDir/H6_1.86.GMJ_two_int.csv

&SCF

>>> COPY $WorkDir/H6_1.86.scf.h5 $CurrDir/

&RASSCF
Title= RASSCF
FileOrb
/home/grierjones/DDCASPT2/hydrogen_comps/minimal_2e_2o/chains/even/H6_chain/H6_1.84/H6_1.84.RasOrb

NACTEL
6 0 0
Inactive
0
RAS2
6
Symmetry
1
Spin
1
orblisting
all
ITERation
200 100
CIMX
200
SDAV
500

>>> COPY $WorkDir/H6_1.86.rasscf.h5 $CurrDir/

>>> COPY $WorkDir/GMJ_Fock_MO.csv $CurrDir/H6_1.86.GMJ_Fock_MO.csv

&CASPT2
Frozen
0
Imaginary Shift
0.0

>>> FOREACH i IN (B,E,F,G,H)

  >>> FOREACH j IN (P,M)

    >>> IF (-FILE GMJ_e2_${i}_${j}.csv)

      >>> COPY $WorkDir/GMJ_RHS_${i}_${j}.csv $CurrDir/GMJ_RHS_${i}_${j}.csv

      >>> COPY $WorkDir/GMJ_IVECW_${i}_${j}.csv $CurrDir/GMJ_IVECW_${i}_${j}.csv

      >>> COPY $WorkDir/GMJ_e2_${i}_${j}.csv $CurrDir/GMJ_e2_${i}_${j}.csv

    >>> END IF

  >>> END FOREACH

>>> END FOREACH

>>> FOREACH i IN (A,C,D)

  >>> IF (-FILE GMJ_e2_$i.csv)

    >>> COPY $WorkDir/GMJ_RHS_$i.csv $CurrDir/GMJ_RHS_$i.csv

    >>> COPY $WorkDir/GMJ_IVECW_$i.csv $CurrDir/GMJ_IVECW_$i.csv

    >>> COPY $WorkDir/GMJ_e2_$i.csv $CurrDir/GMJ_e2_$i.csv

  >>> END IF

>>> END FOREACH

-- ----------------------------------

--- Start Module: gateway at Tue Oct 29 12:41:24 2024 ---
 
()()()()()()()()()()()()()()()()()()()()()()()()()()()()()()()()()()()()()()()()()()()()()()()()()()

                                              &GATEWAY

                                   only a single process is used
                       available to each process: 2.0 GB of memory, 1 thread?
()()()()()()()()()()()()()()()()()()()()()()()()()()()()()()()()()()()()()()()()()()()()()()()()()()
 
 ###############################################################################
 ###############################################################################
 ###                                                                         ###
 ###                                                                         ###
 ###                                                                         ###
 ###    WARNING: EXPERT option is ON!                                        ###
 ###                                                                         ###
 ###                                                                         ###
 ###############################################################################
 ###############################################################################
 
++    Symmetry information:
      ---------------------
 
                    Character Table for C1 
 
                             E  
                    a        1  x, y, xy, Rz, z, xz, Ry, yz, Rx, I
--
 
 
++    Basis set information:
      ----------------------
 
 
      Basis set label: H.ANO-RCC...2S1P.
 
      Electronic valence basis set:
      ------------------
      Associated Effective Charge   1.000000 au
      Associated Actual Charge      1.000000 au
      Nuclear Model: Point charge
 
      Shell  nPrim  nBasis  Cartesian Spherical Contaminant
         s       8       2        X                  
         p       4       1        X                  
--
 
 
++    Molecular structure info:
      -------------------------
 
                    ************************************************ 
                    **** Cartesian Coordinates / Bohr, Angstrom **** 
                    ************************************************ 
 
     Center  Label                x              y              z                     x              y              z
        1      H1               0.000000       0.000000       0.000000              0.000000       0.000000       0.000000
        2      H2               0.000000       0.000000       3.516036              0.000000       0.000000       1.860606
        3      H3               0.000000       0.000000       7.032072              0.000000       0.000000       3.721212
        4      H4               0.000000       0.000000      10.548107              0.000000       0.000000       5.581818
        5      H5               0.000000       0.000000      14.064143              0.000000       0.000000       7.442424
        6      H6               0.000000       0.000000      17.580179              0.000000       0.000000       9.303030
 
                    *************************************** 
                    *    InterNuclear Distances / Bohr    * 
                    *************************************** 
 
               1 H1            2 H2            3 H3            4 H4            5 H5            6 H6    
    1 H1       0.000000
    2 H2       3.516036        0.000000
    3 H3       7.032072        3.516036        0.000000
    4 H4      10.548107        7.032072        3.516036        0.000000
    5 H5      14.064143       10.548107        7.032072        3.516036        0.000000
    6 H6      17.580179       14.064143       10.548107        7.032072        3.516036        0.000000
 
                    ******************************************* 
                    *    InterNuclear Distances / Angstrom    * 
                    ******************************************* 
 
               1 H1            2 H2            3 H3            4 H4            5 H5            6 H6    
    1 H1       0.000000
    2 H2       1.860606        0.000000
    3 H3       3.721212        1.860606        0.000000
    4 H4       5.581818        3.721212        1.860606        0.000000
    5 H5       7.442424        5.581818        3.721212        1.860606        0.000000
    6 H6       9.303030        7.442424        5.581818        3.721212        1.860606        0.000000
--
 
 
            Nuclear Potential Energy              2.47437756 au
 
 ###############################################################################
 ###############################################################################
 ###                                                                         ###
 ###                                                                         ###
 ###    There were warnings during the execution                             ###
 ###    Please, check the output with care!                                  ###
 ###                                                                         ###
 ###                                                                         ###
 ###############################################################################
 ###############################################################################
--- Stop Module: gateway at Tue Oct 29 12:41:24 2024 /rc=_RC_ALL_IS_WELL_ ---
*** files: xmldump
    saved to directory /home/grierjones/DDCASPT2/hydrogen_comps/minimal_2e_2o/chains/even/H6_chain/H6_1.86

--- Start Module: seward at Tue Oct 29 12:41:24 2024 ---
 
()()()()()()()()()()()()()()()()()()()()()()()()()()()()()()()()()()()()()()()()()()()()()()()()()()

                                              &SEWARD

                                   only a single process is used
                       available to each process: 2.0 GB of memory, 1 thread?
()()()()()()()()()()()()()()()()()()()()()()()()()()()()()()()()()()()()()()()()()()()()()()()()()()
 
 ###############################################################################
 ###############################################################################
 ###                                                                         ###
 ###                                                                         ###
 ###                                                                         ###
 ###    WARNING: EXPERT option is ON!                                        ###
 ###                                                                         ###
 ###                                                                         ###
 ###############################################################################
 ###############################################################################
               SEWARD will generate:
                  Multipole Moment integrals up to order  2
                  Kinetic Energy integrals
                  Nuclear Attraction integrals (point charge)
                  One-Electron Hamiltonian integrals
                  Velocity integrals
                  Relativistic Douglas-Kroll-Hess integrals:
                    - Parametrization         : EXP
                    - DKH order of Hamiltonian: 2
                    - DKH order of Properties : 0
                         - multipole moment operators
                         - electric potential operators
                         - contact operators
                  Atomic mean-field integrals
                  Two-Electron Repulsion integrals
 
                   Integrals are discarded if absolute value <: 0.10E-13
                   Integral cutoff threshold is set to       <: 0.10E-15
 
            Nuclear Potential Energy              2.47437756 au
 
 
      Basis set specifications :
      Symmetry species         a  
      Basis functions           30
 
 
  Input file to MOLDEN was generated!
 
 ###############################################################################
 ###############################################################################
 ###                                                                         ###
 ###                                                                         ###
 ###    There were warnings during the execution                             ###
 ###    Please, check the output with care!                                  ###
 ###                                                                         ###
 ###                                                                         ###
 ###############################################################################
 ###############################################################################
--- Stop Module: seward at Tue Oct 29 12:41:24 2024 /rc=_RC_ALL_IS_WELL_ ---
*** files: H6_1.86.GssOrb H6_1.86.guessorb.h5 H6_1.86.guessorb.molden xmldump
    saved to directory /home/grierjones/DDCASPT2/hydrogen_comps/minimal_2e_2o/chains/even/H6_chain/H6_1.86

*** symbolic link created: INPORB -> H6_1.86.GssOrb
--- Start Module: motra at Tue Oct 29 12:41:24 2024 ---
 
()()()()()()()()()()()()()()()()()()()()()()()()()()()()()()()()()()()()()()()()()()()()()()()()()()

                                               &MOTRA

                                   only a single process is used
                       available to each process: 2.0 GB of memory, 1 thread?
()()()()()()()()()()()()()()()()()()()()()()()()()()()()()()()()()()()()()()()()()()()()()()()()()()
 
 
      *** WARNING: Default frozen orbitals is overwritten by user input.
      *** Default values:   0
 
      Header of the integral files:
      
       Integrals generated by seward 4.2.0  , Tue Oct 29 12:41:24 2024
 
 
      Header of MO coefficients source file:
      *Guess orbitals                                                                 
 
 
      Cartesian coordinates in Angstrom:
      -----------------------------------------------------
      No.  Label        X            Y            Z        
      -----------------------------------------------------
       1   H1         0.00000000   0.00000000   0.00000000
       2   H2         0.00000000   0.00000000   1.86060600
       3   H3         0.00000000   0.00000000   3.72121200
       4   H4         0.00000000   0.00000000   5.58181800
       5   H5         0.00000000   0.00000000   7.44242400
       6   H6         0.00000000   0.00000000   9.30303000
      -----------------------------------------------------
      Nuclear repulsion energy =    2.47437756
 
      Orbital specifications:
      -----------------------
 
      Symmetry species:              1
      Number of basis functions:    30
      Frozen orbitals:               0
      Deleted orbitals:              0
      Number of orbitals used:      30

       SYMMETRY  BASIS FUNCTIONS       ORBITALS      INTEGRALS   CPU(SEC)  I/O(SEC)
 
        1 1 1 1   30  30  30  30    30  30  30  30      108345       0.00      0.00

       TOTAL CPU TIME(SEC)    0.81TOTAL I/O TIME(SEC)    1.47
 
--- Stop Module: motra at Tue Oct 29 12:41:26 2024 /rc=_RC_ALL_IS_WELL_ ---
*** files: xmldump
    saved to directory /home/grierjones/DDCASPT2/hydrogen_comps/minimal_2e_2o/chains/even/H6_chain/H6_1.86
--- Module motra spent 1 second ---

>>> COPY /tmp/H6_1.86/GMJ_one_int_indx.csv /home/grierjones/DDCASPT2/hydrogen_comps/minimal_2e_2o/chains/even/H6_chain/H6_1.86/H6_1.86.GMJ_one_int_indx.csv

>>> COPY /tmp/H6_1.86/GMJ_one_int.csv /home/grierjones/DDCASPT2/hydrogen_comps/minimal_2e_2o/chains/even/H6_chain/H6_1.86/H6_1.86.GMJ_one_int.csv

>>> COPY /tmp/H6_1.86/GMJ_two_int_indx.csv /home/grierjones/DDCASPT2/hydrogen_comps/minimal_2e_2o/chains/even/H6_chain/H6_1.86/H6_1.86.GMJ_two_int_indx.csv

>>> COPY /tmp/H6_1.86/GMJ_two_int.csv /home/grierjones/DDCASPT2/hydrogen_comps/minimal_2e_2o/chains/even/H6_chain/H6_1.86/H6_1.86.GMJ_two_int.csv

*** symbolic link created: INPORB -> H6_1.86.GssOrb
--- Start Module: scf at Tue Oct 29 12:41:26 2024 ---
 
()()()()()()()()()()()()()()()()()()()()()()()()()()()()()()()()()()()()()()()()()()()()()()()()()()

                                                &SCF

                                   only a single process is used
                       available to each process: 2.0 GB of memory, 1 thread?
()()()()()()()()()()()()()()()()()()()()()()()()()()()()()()()()()()()()()()()()()()()()()()()()()()
 
++    Input section:
      --------------
 
      Header of the integral files:
      
       Integrals generated by seward 4.2.0  , Tue Oct 29 12:41:24 2024
 
 
      Cartesian coordinates in Angstrom:
      -----------------------------------------------------
      No.  Label        X            Y            Z        
      -----------------------------------------------------
       1   H1         0.00000000   0.00000000   0.00000000
       2   H2         0.00000000   0.00000000   1.86060600
       3   H3         0.00000000   0.00000000   3.72121200
       4   H4         0.00000000   0.00000000   5.58181800
       5   H5         0.00000000   0.00000000   7.44242400
       6   H6         0.00000000   0.00000000   9.30303000
      -----------------------------------------------------
      Nuclear repulsion energy =    2.47437756
--
 
++    Orbital specifications:
      -----------------------
 
      Symmetry species               1
                                     a
      Frozen orbitals                0
      Occupied orbitals              3
      Secondary orbitals            27
      Deleted orbitals               0
      Total number of orbitals      30
      Number of basis functions     30
--
 
      Molecular charge                           0.000
 
++    Optimization specifications:
      ----------------------------
 
      SCF Algorithm: Conventional
      Minimized density differences are used
      Number of density matrices in core                5
      Maximum number of NDDO SCF iterations           400
      Maximum number of HF SCF iterations             400
      Threshold for SCF energy change            0.10E-08
      Threshold for density matrix               0.10E-03
      Threshold for Fock matrix                  0.15E-03
      Threshold for linear dependence            0.10E-08
      Threshold at which DIIS is turned on       0.15E+00
      Threshold at which QNR/C2DIIS is turned on 0.75E-01
      Threshold for Norm(delta) (QNR/C2DIIS)     0.20E-04
      DIIS extrapolation of the SCF procedure
      All orbitals punched on: SCFORB
--
 
      Input vectors read from INPORB
      Orbital file label: *Guess orbitals
 
 
++ Convergence information
                                   SCF        iterations: Energy and convergence statistics
 
Iter     Tot. SCF        One-elec.       Two-elec.     Energy      Max Dij or  Max Fij      DNorm      TNorm      AccCon     Time
         Energy          Energy          Energy        Change      Delta Norm                                                in Sec.
   1    -2.714619410    -8.182772951     2.993775982   0.00E+00    0.30E+00*   0.92E-01*    0.35E+01   0.71E+01   None         0.
   2    -2.823502817    -8.168243647     2.870363270  -0.11E+00*   0.91E-01*   0.16E-01*    0.10E+01   0.70E+01   EDIIS        0.
   3    -2.828937373    -8.127188518     2.823873586  -0.54E-02*   0.42E-01*   0.72E-02*    0.19E+00   0.69E+01   EDIIS        0.
   4    -2.829675209    -8.127607527     2.823554759  -0.74E-03*   0.19E-01*   0.44E-02*    0.81E-01   0.69E+01   c2DIIS       0.
   5    -2.829893662    -8.123458524     2.819187303  -0.22E-03*   0.41E-02*   0.12E-02*    0.11E-01   0.69E+01   QNRc2DIIS    0.
   6    -2.829910970    -8.124868701     2.820580171  -0.17E-04*   0.38E-02*   0.50E-03*    0.14E-02   0.69E+01   QNRc2DIIS    0.
   7    -2.829916654    -8.124578979     2.820284766  -0.57E-05*   0.29E-03*   0.63E-04     0.29E-03   0.69E+01   QNRc2DIIS    0.
   8    -2.829916705    -8.124427654     2.820133390  -0.50E-07*   0.16E-04    0.63E-05     0.74E-04   0.69E+01   QNRc2DIIS    0.
   9    -2.829916705    -8.124416247     2.820121983  -0.36E-09    0.47E-06    0.18E-06     0.57E-05   0.69E+01   QNRc2DIIS    0.
 
       Convergence after  9 Macro Iterations
--
 
 *****************************************************************************************************************************
 *                                                                                                                           *
 *                                             SCF/KS-DFT Program, Final results                                             *
 *                                                                                                                           *
 *                                                                                                                           *
 *                                                                                                                           *
 *                                                       Final Results                                                       *
 *                                                                                                                           *
 *****************************************************************************************************************************
 
::    Total SCF energy                                 -2.8299167051
      One-electron energy                              -8.1244162469
      Two-electron energy                               2.8201219826
      Nuclear repulsion energy                          2.4743775592
      Kinetic energy (interpolated)                     2.0965480679
      Virial theorem                                    1.3497981508
      Total spin, S(S+1)                                0.0000000000
      Total spin, S                                     0.0000000000
      Max non-diagonal density matrix element           0.0000005249
      Max non-diagonal Fock matrix element              0.0000000345
 
 
      All orbitals with orbital energies smaller than  E(LUMO)+0.5 are printed
 
++    Molecular orbitals:
      -------------------
 
      Title: SCF orbitals

      Molecular orbitals for symmetry species 1: a  
 
          Orbital            1         2         3         4         5         6         7         8    
          Energy           -0.4620   -0.4205   -0.3596   -0.1067   -0.0164    0.0743    0.3096    0.3486
          Occ. No.          2.0000    2.0000    2.0000    0.0000    0.0000    0.0000    0.0000    0.0000
 
        1 H1     1s         0.2109   -0.3781    0.3958   -0.5328    0.6290   -0.4175   -0.1552    0.1772
        2 H1     2s         0.0209   -0.0467    0.0674   -0.1920    0.2765   -0.2155    0.3128   -0.5411
        3 H1     2px       -0.0000    0.0000   -0.0000    0.0000    0.0000   -0.0000    0.0000    0.0000
        4 H1     2py       -0.0000    0.0000   -0.0000   -0.0000    0.0000   -0.0000    0.0000   -0.0000
        5 H1     2pz        0.0126   -0.0176    0.0125    0.0049   -0.0227    0.0335   -0.0421    0.0517
        6 H2     1s         0.3084   -0.4476    0.3184    0.2917   -0.7380    0.7231   -0.1816    0.1233
        7 H2     2s         0.0284   -0.0827    0.1003    0.0980   -0.3119    0.3147    0.2412   -0.2479
        8 H2     2px        0.0000   -0.0000   -0.0000    0.0000    0.0000   -0.0000    0.0000   -0.0000
        9 H2     2py        0.0000   -0.0000    0.0000   -0.0000   -0.0000    0.0000   -0.0000    0.0000
       10 H2     2pz        0.0004    0.0108   -0.0207    0.0276   -0.0135   -0.0194    0.0111   -0.0459
       11 H3     1s         0.4111   -0.0960   -0.4497    0.5290    0.2713   -0.8979   -0.2155    0.1114
       12 H3     2s         0.0444    0.0073   -0.1164    0.1909    0.1185   -0.3859    0.2874   -0.1053
       13 H3     2px       -0.0000   -0.0000    0.0000    0.0000   -0.0000   -0.0000    0.0000   -0.0000
       14 H3     2py        0.0000   -0.0000   -0.0000   -0.0000   -0.0000    0.0000   -0.0000   -0.0000
       15 H3     2pz        0.0072    0.0116   -0.0165   -0.0224    0.0291    0.0137   -0.0131   -0.0288
       16 H4     1s         0.4111    0.0960   -0.4497   -0.5290    0.2713    0.8979   -0.2155   -0.1114
       17 H4     2s         0.0444   -0.0073   -0.1164   -0.1909    0.1185    0.3859    0.2874    0.1053
       18 H4     2px       -0.0000    0.0000    0.0000    0.0000    0.0000   -0.0000   -0.0000    0.0000
       19 H4     2py       -0.0000    0.0000    0.0000   -0.0000   -0.0000    0.0000   -0.0000   -0.0000
       20 H4     2pz       -0.0072    0.0116    0.0165   -0.0224   -0.0291    0.0137    0.0131   -0.0288
       21 H5     1s         0.3084    0.4476    0.3184   -0.2917   -0.7380   -0.7231   -0.1816   -0.1233
       22 H5     2s         0.0284    0.0827    0.1003   -0.0980   -0.3119   -0.3147    0.2412    0.2479
       23 H5     2px       -0.0000    0.0000    0.0000    0.0000    0.0000   -0.0000   -0.0000   -0.0000
       24 H5     2py       -0.0000   -0.0000    0.0000   -0.0000    0.0000    0.0000   -0.0000    0.0000
       25 H5     2pz       -0.0004    0.0108    0.0207    0.0276    0.0135   -0.0194   -0.0111   -0.0459
       26 H6     1s         0.2109    0.3781    0.3958    0.5328    0.6290    0.4175   -0.1552   -0.1772
       27 H6     2s         0.0209    0.0467    0.0674    0.1920    0.2765    0.2155    0.3128    0.5411
       28 H6     2px        0.0000    0.0000    0.0000   -0.0000    0.0000    0.0000   -0.0000    0.0000
       29 H6     2py       -0.0000   -0.0000   -0.0000   -0.0000   -0.0000    0.0000   -0.0000   -0.0000
       30 H6     2pz       -0.0126   -0.0176   -0.0125    0.0049    0.0227    0.0335    0.0421    0.0517
--
 
 
++    Molecular charges:
      ------------------
 
      Mulliken charges per centre and basis function type
      ---------------------------------------------------
 
                H1      H2      H3      H4      H5      H6    
      1s       0.8897  0.9843  0.9519  0.9519  0.9843  0.8897
      2s       0.0468  0.0545  0.0358  0.0358  0.0545  0.0468
      2px      0.0000  0.0000  0.0000  0.0000  0.0000  0.0000
      2pz      0.0103  0.0138  0.0129  0.0129  0.0138  0.0103
      2py      0.0000  0.0000  0.0000  0.0000  0.0000  0.0000
      Total    0.9468  1.0526  1.0007  1.0007  1.0526  0.9468
 
      N-E      0.0532 -0.0526 -0.0007 -0.0007 -0.0526  0.0532
 
      Total electronic charge=    6.000000
 
      Total            charge=   -0.000000
--
 
 
  Input file to MOLDEN was generated!
 
 
++    Static properties:
      ------------------
 
 
      LoProp Charges per center
 

                   H1       H2       H3       H4       H5       H6    
      Nuclear      1.0000   1.0000   1.0000   1.0000   1.0000   1.0000
      Electronic  -0.9766  -1.0202  -1.0033  -1.0033  -1.0202  -0.9766
 
      Total        0.0234  -0.0202  -0.0033  -0.0033  -0.0202   0.0234
--
 
 
++    Natural Bond Order analysis
      ---------------------------
      Based on LoProp computed density
      -------------------------------------------------------------------------------------
      Atom A       Atom B       Bond Order
      -------------------------------------------------------------------------------------
      NBO located      0.950 non-bonded electrons on atom H1        
      NBO located      1.015 non-bonded electrons on atom H3        
      NBO located      1.015 non-bonded electrons on atom H4        
      NBO located      0.950 non-bonded electrons on atom H6        
      The remaining    2.069 electrons are to be considered as diffuse
--
 
 
++    Molecular properties:
      ---------------------
 
      Charge (e):
                      =   -0.0000
      Dipole Moment (Debye):
      Origin of the operator (Ang)=    0.0000    0.0000    0.0000
                   X=  3.1531E-14               Y=  2.2375E-14               Z=  3.4495E-12           Total=  3.4497E-12
      Quadrupole Moment (Debye*Ang):
      Origin of the operator (Ang)=    0.0000    0.0000    4.6515
                  XX= -1.1854E+01              XY= -8.2250E-29              XZ= -1.9480E-13              YY= -1.1854E+01
                  YZ= -8.6036E-14              ZZ= -1.8808E+00
      In traceless form (Debye*Ang)
                  XX= -4.9868E+00              XY= -1.2337E-28              XZ= -2.9220E-13              YY= -4.9868E+00
                  YZ= -1.2905E-13              ZZ=  9.9737E+00
--
 
 
  Input file to MOLDEN was generated!
 
 ###############################################################################
 ###############################################################################
 ###                                                                         ###
 ###                                                                         ###
 ###    RunFile label nBas                                                   ###
 ###    was used       78 times                                              ###
 ###                                                                         ###
 ###                                                                         ###
 ###############################################################################
 ###############################################################################
--- Stop Module: scf at Tue Oct 29 12:41:26 2024 /rc=_RC_ALL_IS_WELL_ ---
*** files: H6_1.86.LprOrb H6_1.86.LoProp.molden H6_1.86.scf.molden H6_1.86.ScfOrb H6_1.86.scf.h5 xmldump
    saved to directory /home/grierjones/DDCASPT2/hydrogen_comps/minimal_2e_2o/chains/even/H6_chain/H6_1.86

>>> COPY /tmp/H6_1.86/H6_1.86.scf.h5 /home/grierjones/DDCASPT2/hydrogen_comps/minimal_2e_2o/chains/even/H6_chain/H6_1.86/

*** symbolic link created: INPORB -> H6_1.86.ScfOrb
--- Start Module: rasscf at Tue Oct 29 12:41:26 2024 ---
 
()()()()()()()()()()()()()()()()()()()()()()()()()()()()()()()()()()()()()()()()()()()()()()()()()()

                                              &RASSCF

                                   only a single process is used
                       available to each process: 2.0 GB of memory, 1 thread?
()()()()()()()()()()()()()()()()()()()()()()()()()()()()()()()()()()()()()()()()()()()()()()()()()()
 
 
      Header of the ONEINT file:
      --------------------------
      
      Integrals generated by seward 4.2.0  , Tue Oct 29 12:41:24 2024
 
 
      OrdInt status: non-squared
 
 
      Cartesian coordinates in Angstrom:
      -----------------------------------------------------
      No.  Label        X            Y            Z        
      -----------------------------------------------------
       1   H1         0.00000000   0.00000000   0.00000000
       2   H2         0.00000000   0.00000000   1.86060600
       3   H3         0.00000000   0.00000000   3.72121200
       4   H4         0.00000000   0.00000000   5.58181800
       5   H5         0.00000000   0.00000000   7.44242400
       6   H6         0.00000000   0.00000000   9.30303000
      -----------------------------------------------------
      Nuclear repulsion energy =    2.47437756
 
++    Wave function specifications:
      -----------------------------
 
      Number of closed shell electrons           0
      Number of electrons in active shells       6
      Max number of holes in RAS1 space          0
      Max nr of electrons in RAS3 space          0
      Number of inactive orbitals                0
      Number of active orbitals                  6
      Number of secondary orbitals              24
      Spin quantum number                      0.0
      State symmetry                             1
--
 
++    Orbital specifications:
      -----------------------
 
      Symmetry species                           1
                                                 a
      Frozen orbitals                            0
      Inactive orbitals                          0
      Active orbitals                            6
      RAS1 orbitals                              0
      RAS2 orbitals                              6
      RAS3 orbitals                              0
      Secondary orbitals                        24
      Deleted orbitals                           0
      Number of basis functions                 30
--
 
++    CI expansion specifications:
      ----------------------------
 
      Number of CSFs                           175
      Number of determinants                   210
      Number of root(s) required                 1
      Root chosen for geometry opt.              1
      CI root used                               1
         
      highest root included in the CI            1
      max. size of the explicit Hamiltonian    175
--
 
++    Optimization specifications:
      ----------------------------
 
      RASSCF algorithm: Conventional
      Maximum number of macro iterations       200
      Maximum number of SX iterations          100
      Threshold for RASSCF energy            0.100E-07
      Threshold for max MO rotation          0.100E+00
      Threshold for max BLB element          0.100E-03
      Level shift parameter                  0.500E+00
      Make Quasi-Newton update
--
 
      The MO-coefficients are taken from the file:
      /home/grierjones/DDCASPT2/hydrogen_comps/minimal_2e_2o/chains/even/H6_chain/H6_1.84/H6_1.84.RasOrb                              
      Title: RASSCF average (pseudo-natural) orbitals                                      
 
      Total molecular charge    0.00
 
      ************************************************************************************************************************
      *                                                                                                                      *
      *                                            Wave function control section                                             *
      *                                                                                                                      *
      ************************************************************************************************************************
 
 
                                         RASSCF iterations: Energy and convergence statistics
                                         ----------------------------------------------------
 
      Iter CI   SX   CI       RASSCF       Energy    max ROT     max BLB   max BLB  Level Ln srch  Step   QN   Walltime
          iter iter root      energy       change     param      element    value   shift minimum  type update hh:mm:ss
 Nr of preliminary CI iterations:   1
        1   1    4    1    -3.06619109    0.00E+00   0.21E-02    1   7 1 -0.23E-02*  0.02   0.00    SX    NO    0:00:00
        2   1    4    1    -3.06620128   -0.10E-04*  0.33E-03    3   9 1  0.18E-03*  0.02   0.00    SX    NO    0:00:00
        3   1    3    1    -3.06620146   -0.18E-06*  0.64E-04    2   8 1  0.35E-04   0.02   0.00    SX    NO    0:00:00
        4   1    3    1    -3.06620147   -0.11E-07*  0.20E-04    3   9 1  0.12E-04   0.02   0.00    SX    NO    0:00:00
        5   1    3    1    -3.06620147   -0.95E-09   0.88E-05    2   8 1  0.26E-05   0.02   1.30    QN   YES    0:00:00
      Convergence after  5 iterations
        6   1    3    1    -3.06620147   -0.11E-09   0.88E-05    2   8 1 -0.50E-06   0.02   1.30    QN   YES    0:00:00
 
      ************************************************************************************************************************
                                                      Wave function printout:
                       occupation of active orbitals, and spin coupling of open shells (u,d: Spin up or down)
      ************************************************************************************************************************
 
      Note: transformation to natural orbitals
      has been made, which may change the order of the CSFs.
 
      printout of CI-coefficients larger than  0.05 for root  1
      energy=      -3.066201
      conf/sym  111111     Coeff  Weight
             1  222000   0.71056 0.50490
            11  220200  -0.30339 0.09205
            13  220020  -0.05138 0.00264
            16  220002  -0.07506 0.00563
            20  2udu0d  -0.28778 0.08282
            21  2ud0ud   0.08745 0.00765
            24  u2dud0   0.25765 0.06639
            28  u2d002  -0.09692 0.00939
            29  202200  -0.08592 0.00738
            30  202ud0   0.09731 0.00947
            31  202020  -0.05521 0.00305
            34  202002  -0.16832 0.02833
            38  ud2u0d  -0.10061 0.01012
            39  ud20ud   0.17476 0.03054
            41  022200  -0.06701 0.00449
            43  022020  -0.11952 0.01429
            46  022002  -0.06336 0.00401
            48  2uud0d   0.08627 0.00744
            50  u2udd0  -0.08871 0.00787
           123  200202   0.12570 0.01580
           127  ud02ud  -0.12081 0.01459
           132  020220   0.08324 0.00693
           142  u0dud2   0.10859 0.01179
           146  0udu2d  -0.08432 0.00711
           155  002022   0.05327 0.00284
           175  000222  -0.06172 0.00381
 
      Natural orbitals and occupation numbers for root  1
      sym 1:   1.719845   1.638228   1.472097   0.540820   0.268516   0.360494
 
      ************************************************************************************************************************
      *                                                                                                                      *
      *                                                    Final results                                                     *
      *                                                                                                                      *
      ************************************************************************************************************************
 
 
++    Wave function specifications:
      -----------------------------
 
      Number of closed shell electrons           0
      Number of electrons in active shells       6
      Max number of holes in RAS1 space          0
      Max nr of electrons in RAS3 space          0
      Number of inactive orbitals                0
      Number of active orbitals                  6
      Number of secondary orbitals              24
      Spin quantum number                      0.0
      State symmetry                             1
--
 
++    Orbital specifications:
      -----------------------
 
      Symmetry species                           1
                                                 a
      Frozen orbitals                            0
      Inactive orbitals                          0
      Active orbitals                            6
      RAS1 orbitals                              0
      RAS2 orbitals                              6
      RAS3 orbitals                              0
      Secondary orbitals                        24
      Deleted orbitals                           0
      Number of basis functions                 30
--
 
++    CI expansion specifications:
      ----------------------------
 
      Number of CSFs                           175
      Number of determinants                   210
      Number of root(s) required                 1
      CI root used                               1
      highest root included in the CI            1
      Root passed to geometry opt.               1
--
 
++    Final optimization conditions:
      ------------------------------
 
      Average CI energy                              -3.06620147
      RASSCF energy for state  1                     -3.06620147
      Super-CI energy                                -0.00000000
      RASSCF energy change                           -0.00000000
      Max change in MO coefficients              -0.764E-05
      Max non-diagonal density matrix element     0.879E-05
      Maximum BLB matrix element                 -0.500E-06
      (orbital pair   2,   8 in symmetry   1)
      Norm of electronic gradient            0.103E-05
--
 
 
      Final state energy(ies):
      ------------------------
 
::    RASSCF root number  1 Total energy:     -3.06620147
 
++    Molecular orbitals:
      -------------------
 
      Pseudonatural active orbitals and approximate occupation numbers
 
 
 
 
      Molecular orbitals for symmetry species 1: a  
 
 
      Orbital                1         2         3         4         5         6         7         8         9        10
      Energy            0.0000    0.0000    0.0000    0.0000    0.0000    0.0000    0.3161    0.3529    0.4339    0.5827
      Occ. No.          1.7198    1.6382    1.4721    0.5408    0.2685    0.3605    0.0000    0.0000    0.0000    0.0000
 
    1 H1     1s         0.2307   -0.4024    0.4074   -0.4999    0.3696   -0.5730   -0.1010   -0.0648   -0.1267   -0.3618
    2 H1     2s         0.0118   -0.0258    0.0344   -0.0505    0.0444   -0.0617    0.3328    0.5855   -0.7301   -0.7488
    3 H1     2px       -0.0000    0.0000    0.0000    0.0000   -0.0000    0.0000    0.0000    0.0000   -0.0000   -0.0000
    4 H1     2py       -0.0000    0.0000   -0.0000    0.0000   -0.0000    0.0000    0.0000    0.0000   -0.0000   -0.0000
    5 H1     2pz        0.0060   -0.0077    0.0048   -0.0032    0.0047   -0.0053   -0.0403   -0.0541    0.0459    0.0602
    6 H2     1s         0.3260   -0.4495    0.3032    0.2772   -0.5944    0.6510   -0.2010   -0.2065    0.0995    0.2043
    7 H2     2s         0.0149   -0.0462    0.0623    0.0149   -0.1147    0.1018    0.2232    0.1933    0.1873    0.8399
    8 H2     2px        0.0000   -0.0000   -0.0000   -0.0000   -0.0000    0.0000    0.0000    0.0000   -0.0000    0.0000
    9 H2     2py       -0.0000    0.0000   -0.0000    0.0000    0.0000    0.0000    0.0000   -0.0000   -0.0000   -0.0000
   10 H2     2pz        0.0029    0.0040   -0.0112    0.0066    0.0020    0.0003    0.0073    0.0451   -0.0850   -0.0609
   11 H3     1s         0.4134   -0.1033   -0.4621    0.5278    0.7429   -0.2254   -0.1838   -0.0183   -0.1196    0.0365
   12 H3     2s         0.0215    0.0073   -0.0702    0.0710    0.1430   -0.0545    0.2940    0.1383    0.4127    0.4729
   13 H3     2px       -0.0000    0.0000   -0.0000   -0.0000    0.0000    0.0000    0.0000    0.0000   -0.0000    0.0000
   14 H3     2py        0.0000   -0.0000    0.0000   -0.0000   -0.0000    0.0000   -0.0000   -0.0000   -0.0000   -0.0000
   15 H3     2pz        0.0011    0.0081   -0.0078   -0.0034    0.0041   -0.0039   -0.0082    0.0272   -0.0151    0.0462
   16 H4     1s         0.4134    0.1033   -0.4621   -0.5278   -0.7429   -0.2254   -0.1838    0.0183   -0.1196   -0.0365
   17 H4     2s         0.0215   -0.0073   -0.0702   -0.0710   -0.1430   -0.0545    0.2940   -0.1383    0.4127   -0.4729
   18 H4     2px       -0.0000   -0.0000    0.0000   -0.0000   -0.0000   -0.0000   -0.0000   -0.0000    0.0000    0.0000
   19 H4     2py        0.0000   -0.0000    0.0000    0.0000    0.0000   -0.0000   -0.0000   -0.0000    0.0000   -0.0000
   20 H4     2pz       -0.0011    0.0081    0.0078   -0.0034    0.0041    0.0039    0.0082    0.0272    0.0151    0.0462
   21 H5     1s         0.3260    0.4495    0.3032   -0.2772    0.5944    0.6510   -0.2010    0.2065    0.0995   -0.2043
   22 H5     2s         0.0149    0.0462    0.0623   -0.0149    0.1147    0.1018    0.2232   -0.1933    0.1873   -0.8399
   23 H5     2px        0.0000   -0.0000   -0.0000    0.0000    0.0000    0.0000   -0.0000    0.0000    0.0000    0.0000
   24 H5     2py        0.0000   -0.0000    0.0000    0.0000   -0.0000   -0.0000   -0.0000    0.0000    0.0000   -0.0000
   25 H5     2pz       -0.0029    0.0040    0.0112    0.0066    0.0020   -0.0003   -0.0073    0.0451    0.0850   -0.0609
   26 H6     1s         0.2307    0.4024    0.4074    0.4999   -0.3696   -0.5730   -0.1010    0.0648   -0.1267    0.3618
   27 H6     2s         0.0118    0.0258    0.0344    0.0505   -0.0444   -0.0617    0.3328   -0.5855   -0.7301    0.7488
   28 H6     2px        0.0000   -0.0000   -0.0000   -0.0000   -0.0000    0.0000   -0.0000   -0.0000   -0.0000    0.0000
   29 H6     2py       -0.0000   -0.0000   -0.0000    0.0000   -0.0000    0.0000    0.0000   -0.0000   -0.0000   -0.0000
   30 H6     2pz       -0.0060   -0.0077   -0.0048   -0.0032    0.0047    0.0053    0.0403   -0.0541   -0.0459    0.0602
 
 
      Orbital               11        12        13        14        15        16        17        18        19        20
      Energy            0.7339    0.7339    0.7546    0.7816    0.7948    0.7948    0.8257    0.8915    0.8915    1.0173
      Occ. No.          0.0000    0.0000    0.0000    0.0000    0.0000    0.0000    0.0000    0.0000    0.0000    0.0000
 
    1 H1     1s        -0.0000    0.0000    0.0421   -0.4279    0.0000   -0.0000    0.1938    0.0000    0.0000   -0.0000
    2 H1     2s        -0.0000    0.0000   -0.1461   -0.4997    0.0000   -0.0000    0.0054   -0.0000   -0.0000   -0.0000
    3 H1     2px        0.1003    0.1799   -0.0000   -0.0000    0.1663    0.3490    0.0000   -0.1012    0.4970   -0.0445
    4 H1     2py       -0.1799    0.1003    0.0000   -0.0000   -0.3490    0.1663    0.0000    0.4970    0.1012    0.5373
    5 H1     2pz        0.0000   -0.0000   -0.2391    0.2187   -0.0000    0.0000   -0.3719    0.0000    0.0000    0.0000
    6 H2     1s         0.0000   -0.0000    0.0295    0.4874   -0.0000    0.0000   -0.1939    0.0000   -0.0000    0.0000
    7 H2     2s         0.0000   -0.0000    0.1792    1.2244   -0.0000    0.0000   -0.3890    0.0000    0.0000    0.0000
    8 H2     2px        0.1796    0.3221   -0.0000   -0.0000    0.2055    0.4313   -0.0000   -0.0448    0.2201    0.0202
    9 H2     2py       -0.3221    0.1796   -0.0000   -0.0000   -0.4313    0.2055   -0.0000    0.2201    0.0448   -0.2441
   10 H2     2pz       -0.0000    0.0000    0.3416   -0.0831    0.0000   -0.0000    0.3427   -0.0000   -0.0000   -0.0000
   11 H3     1s        -0.0000    0.0000   -0.0169   -0.2385    0.0000   -0.0000    0.2847   -0.0000   -0.0000   -0.0000
   12 H3     2s        -0.0000    0.0000   -0.0794   -0.7064    0.0000   -0.0000    0.7642   -0.0000   -0.0000   -0.0000
   13 H3     2px        0.2250    0.4035   -0.0000   -0.0000    0.0911    0.1911   -0.0000    0.0811   -0.3986    0.0359
   14 H3     2py       -0.4035    0.2250   -0.0000   -0.0000   -0.1911    0.0911   -0.0000   -0.3986   -0.0811   -0.4339
   15 H3     2pz       -0.0000   -0.0000   -0.4091   -0.0338    0.0000   -0.0000   -0.1432    0.0000    0.0000    0.0000
   16 H4     1s        -0.0000   -0.0000   -0.0169   -0.2385    0.0000   -0.0000   -0.2847    0.0000   -0.0000   -0.0000
   17 H4     2s         0.0000   -0.0000   -0.0794   -0.7064    0.0000   -0.0000   -0.7642   -0.0000   -0.0000   -0.0000
   18 H4     2px        0.2250    0.4035    0.0000    0.0000   -0.0911   -0.1911   -0.0000    0.0811   -0.3986   -0.0359
   19 H4     2py       -0.4035    0.2250    0.0000    0.0000    0.1911   -0.0911   -0.0000   -0.3986   -0.0811    0.4339
   20 H4     2pz        0.0000    0.0000    0.4091    0.0338   -0.0000    0.0000   -0.1432   -0.0000    0.0000   -0.0000
   21 H5     1s         0.0000    0.0000    0.0295    0.4874   -0.0000    0.0000    0.1939    0.0000    0.0000   -0.0000
   22 H5     2s         0.0000   -0.0000    0.1792    1.2244   -0.0000    0.0000    0.3890    0.0000    0.0000    0.0000
   23 H5     2px        0.1796    0.3221    0.0000    0.0000   -0.2055   -0.4313    0.0000   -0.0448    0.2201   -0.0202
   24 H5     2py       -0.3221    0.1796    0.0000    0.0000    0.4313   -0.2055    0.0000    0.2201    0.0448    0.2441
   25 H5     2pz       -0.0000    0.0000   -0.3416    0.0831   -0.0000    0.0000    0.3427    0.0000   -0.0000   -0.0000
   26 H6     1s        -0.0000    0.0000    0.0421   -0.4279    0.0000   -0.0000   -0.1938   -0.0000   -0.0000   -0.0000
   27 H6     2s        -0.0000    0.0000   -0.1461   -0.4997    0.0000   -0.0000   -0.0054   -0.0000   -0.0000   -0.0000
   28 H6     2px        0.1003    0.1799    0.0000    0.0000   -0.1663   -0.3490    0.0000   -0.1012    0.4970    0.0445
   29 H6     2py       -0.1799    0.1003    0.0000    0.0000    0.3490   -0.1663   -0.0000    0.4970    0.1012   -0.5373
   30 H6     2pz       -0.0000   -0.0000    0.2391   -0.2187    0.0000   -0.0000   -0.3719   -0.0000    0.0000    0.0000
 
 
      Orbital               21        22        23        24        25        26        27        28        29        30
      Energy            1.0173    1.1484    1.1484    1.2521    1.2521    1.3058    1.3649    1.4700    1.7262    1.9792
      Occ. No.          0.0000    0.0000    0.0000    0.0000    0.0000    0.0000    0.0000    0.0000    0.0000    0.0000
 
    1 H1     1s        -0.0000   -0.0000    0.0000    0.0000    0.0000   -0.4103    0.3514    0.3831   -0.3051    0.1965
    2 H1     2s         0.0000    0.0000    0.0000    0.0000   -0.0000   -0.6044    0.4754    0.4499   -0.2310    0.1075
    3 H1     2px       -0.5373   -0.0012    0.4600    0.1229    0.2367    0.0000   -0.0000    0.0000   -0.0000    0.0000
    4 H1     2py       -0.0445   -0.4600   -0.0012    0.2367   -0.1229   -0.0000   -0.0000    0.0000   -0.0000    0.0000
    5 H1     2pz        0.0000   -0.0000   -0.0000    0.0000   -0.0000   -0.5481    0.1943    0.6449   -0.5365    0.3170
    6 H2     1s         0.0000    0.0000   -0.0000   -0.0000    0.0000    0.9281   -1.0598   -0.6156    0.1192    0.0686
    7 H2     2s        -0.0000   -0.0000   -0.0000   -0.0000    0.0000    1.1392   -1.4833   -0.5874    0.1260   -0.0393
    8 H2     2px        0.2441    0.0015   -0.5793   -0.2235   -0.4305   -0.0000   -0.0000   -0.0000    0.0000    0.0000
    9 H2     2py        0.0202    0.5793    0.0015   -0.4305    0.2235   -0.0000    0.0000    0.0000   -0.0000   -0.0000
   10 H2     2pz        0.0000    0.0000   -0.0000   -0.0000    0.0000    0.1523   -0.3727    0.3546   -0.7873    0.6558
   11 H3     1s        -0.0000   -0.0000    0.0000    0.0000   -0.0000   -0.5042    1.7109   -0.0064    0.2413    0.0660
   12 H3     2s        -0.0000   -0.0000    0.0000    0.0000   -0.0000   -0.6043    2.3325    0.1790    0.0505    0.0460
   13 H3     2px        0.4339   -0.0007    0.2571    0.2789    0.5372    0.0000    0.0000    0.0000   -0.0000    0.0000
   14 H3     2py        0.0359   -0.2571   -0.0007    0.5372   -0.2789    0.0000   -0.0000   -0.0000    0.0000    0.0000
   15 H3     2pz       -0.0000   -0.0000    0.0000   -0.0000   -0.0000    0.5474    0.1984   -0.5227   -0.3415    0.8333
   16 H4     1s        -0.0000    0.0000    0.0000   -0.0000    0.0000   -0.5042   -1.7109    0.0064    0.2413   -0.0660
   17 H4     2s         0.0000    0.0000   -0.0000   -0.0000    0.0000   -0.6043   -2.3325   -0.1790    0.0505   -0.0460
   18 H4     2px       -0.4339   -0.0007    0.2571   -0.2789   -0.5372   -0.0000   -0.0000   -0.0000    0.0000    0.0000
   19 H4     2py       -0.0359   -0.2571   -0.0007   -0.5372    0.2789   -0.0000    0.0000    0.0000    0.0000   -0.0000
   20 H4     2pz       -0.0000   -0.0000    0.0000    0.0000    0.0000   -0.5474    0.1984   -0.5227    0.3415    0.8333
   21 H5     1s        -0.0000   -0.0000    0.0000   -0.0000   -0.0000    0.9281    1.0598    0.6156    0.1192   -0.0686
   22 H5     2s         0.0000   -0.0000    0.0000    0.0000   -0.0000    1.1392    1.4833    0.5874    0.1260    0.0393
   23 H5     2px       -0.2441    0.0015   -0.5793    0.2235    0.4305    0.0000    0.0000    0.0000   -0.0000   -0.0000
   24 H5     2py       -0.0202    0.5793    0.0015    0.4305   -0.2235    0.0000   -0.0000   -0.0000   -0.0000   -0.0000
   25 H5     2pz        0.0000    0.0000   -0.0000   -0.0000    0.0000   -0.1523   -0.3727    0.3546    0.7873    0.6558
   26 H6     1s         0.0000   -0.0000   -0.0000   -0.0000    0.0000   -0.4103   -0.3514   -0.3831   -0.3051   -0.1965
   27 H6     2s        -0.0000    0.0000   -0.0000   -0.0000    0.0000   -0.6044   -0.4754   -0.4499   -0.2310   -0.1075
   28 H6     2px        0.5373   -0.0012    0.4600   -0.1229   -0.2367    0.0000   -0.0000   -0.0000   -0.0000   -0.0000
   29 H6     2py        0.0445   -0.4600   -0.0012   -0.2367    0.1229   -0.0000    0.0000    0.0000    0.0000    0.0000
   30 H6     2pz        0.0000   -0.0000   -0.0000   -0.0000   -0.0000    0.5481    0.1943    0.6449    0.5365    0.3170
--
 
      Von Neumann Entropy (Root  1) =  2.09314
 

      Mulliken population analysis for root number:  1
      -----------------------------------------------
 
 
++    Molecular charges:
      ------------------
 
      Mulliken charges per centre and basis function type
      ---------------------------------------------------
 
                H1      H2      H3      H4      H5      H6    
      1s       0.9752  1.0051  1.0004  1.0004  1.0051  0.9752
      2s       0.0084  0.0026 -0.0066 -0.0066  0.0026  0.0084
      2px      0.0000  0.0000  0.0000  0.0000  0.0000  0.0000
      2pz      0.0027  0.0064  0.0058  0.0058  0.0064  0.0027
      2py      0.0000  0.0000  0.0000  0.0000  0.0000  0.0000
      Total    0.9863  1.0141  0.9996  0.9996  1.0141  0.9863
 
      N-E      0.0137 -0.0141  0.0004  0.0004 -0.0141  0.0137
 
      Total electronic charge=    6.000000
 
      Total            charge=   -0.000000
--
 
 

      Expectation values of various properties for root number:  1
      -----------------------------------------------------------
 
 
++    Molecular properties:
      ---------------------
 
      Charge (e):
                      =   -0.0000
      Dipole Moment (Debye):
      Origin of the operator (Ang)=    0.0000    0.0000    0.0000
                   X=  2.1537E-13               Y=  4.4488E-13               Z= -6.2109E-11           Total=  6.2111E-11
      Quadrupole Moment (Debye*Ang):
      Origin of the operator (Ang)=    0.0000    0.0000    4.6515
                  XX= -9.1876E+00              XY=  3.2169E-29              XZ= -5.0353E-13              YY= -9.1876E+00
                  YZ= -5.2822E-13              ZZ= -6.4042E+00
      In traceless form (Debye*Ang)
                  XX= -1.3917E+00              XY=  4.8254E-29              XZ= -7.5529E-13              YY= -1.3917E+00
                  YZ= -7.9233E-13              ZZ=  2.7833E+00
--
 

      LoProp population analysis for root number:  1
      -----------------------------------------------
 
 
++    LoProp analysis:
      ----------------
 
 
 
  Input file to MOLDEN was generated!
 
 
++    Static properties:
      ------------------
 
 
      LoProp Charges per center
 

                   H1       H2       H3       H4       H5       H6    
      Nuclear      1.0000   1.0000   1.0000   1.0000   1.0000   1.0000
      Electronic  -0.9996  -1.0003  -1.0000  -1.0000  -1.0003  -0.9996
 
      Total        0.0004  -0.0003  -0.0000  -0.0000  -0.0003   0.0004
--
 
 
      Natural Bond Order analysis for root number:  1
 
++    Natural Bond Order analysis
      ---------------------------
      Based on LoProp computed density
      -------------------------------------------------------------------------------------
      Atom A       Atom B       Bond Order
      -------------------------------------------------------------------------------------
      NBO located      0.991 non-bonded electrons on atom H1        
      NBO located      1.018 non-bonded electrons on atom H3        
      NBO located      1.018 non-bonded electrons on atom H4        
      NBO located      0.991 non-bonded electrons on atom H6        
      The remaining    1.982 electrons are to be considered as diffuse
--
 
--
 
 
  Input file to MOLDEN was generated!
 
      Average orbitals are written to the RASORB file
      Natural orbitals for root   1 are written to the RASORB.1 file
      Spin density orbitals for root   1 are written to the SPDORB.1 file
 
--- Stop Module: rasscf at Tue Oct 29 12:41:26 2024 /rc=_RC_ALL_IS_WELL_ ---
*** files: H6_1.86.LprOrb H6_1.86.rasscf.molden H6_1.86.LoProp.molden H6_1.86.RasOrb H6_1.86.RasOrb.1 H6_1.86.rasscf.h5 H6_1.86.SpdOrb.1 xmldump
    saved to directory /home/grierjones/DDCASPT2/hydrogen_comps/minimal_2e_2o/chains/even/H6_chain/H6_1.86

>>> COPY /tmp/H6_1.86/H6_1.86.rasscf.h5 /home/grierjones/DDCASPT2/hydrogen_comps/minimal_2e_2o/chains/even/H6_chain/H6_1.86/

>>> COPY /tmp/H6_1.86/GMJ_Fock_MO.csv /home/grierjones/DDCASPT2/hydrogen_comps/minimal_2e_2o/chains/even/H6_chain/H6_1.86/H6_1.86.GMJ_Fock_MO.csv

*** symbolic link created: INPORB -> H6_1.86.RasOrb
--- Start Module: caspt2 at Tue Oct 29 12:41:26 2024 ---
 
()()()()()()()()()()()()()()()()()()()()()()()()()()()()()()()()()()()()()()()()()()()()()()()()()()

                                              &CASPT2

                                   only a single process is used
                       available to each process: 2.0 GB of memory, 1 thread?
()()()()()()()()()()()()()()()()()()()()()()()()()()()()()()()()()()()()()()()()()()()()()()()()()()
 
 Cholesky algorithm in CASPT2 =    1
 
 ###############################################################################
 ###############################################################################
 ###                                                                         ###
 ###                                                                         ###
 ###    User changed nr of frozen orbitals.                                  ###
 ###                                                                         ###
 ###                                                                         ###
 ###############################################################################
 ###############################################################################
 
++    Wave function specifications:
      -----------------------------
 
      Number of closed shell electrons           0
      Number of electrons in active shells       6
      Max number of holes in RAS1 space          0
      Max number of electrons in RAS3 space      0
      Number of inactive orbitals                0
      Number of active orbitals                  6
      Number of secondary orbitals              24
      Spin quantum number                      0.0
      State symmetry                             1
      Number of CSFs                           175
      Number of root(s) available                1
      Root passed to geometry opt.               1
      A file JOBMIX will be created.
      This is a CASSCF or RASSCF reference function
--
 
++    Orbital specifications:
      -----------------------
 
      Symmetry species                           1
                                                 a
      Frozen orbitals                            0
      Inactive orbitals                          0
      Active orbitals                            6
      Secondary orbitals                        24
      Deleted orbitals                           0
      Number of basis functions                 30
--
 
      Type of Fock operator: STANDARD
      Type of 0-order Hamiltonian: STANDARD WITH DEFAULT IPEA
        "IP-EA" denominator shift =      0.25
      The input orbitals and the CI vector will be transformed.
 
--------------------------------------------------------------------------------
 Estimated memory requirements:
  POLY3 :                   262414
  RHS:                      285604
  SIGMA :                   275200
  PRPCTL:                        0
 Available workspace:    230396124
 
++ CASPT2 computation for group   1
 
********************************************************************************
 Multi-State initialization phase begins for group   1
--------------------------------------------------------------------------------
********************************************************************************
 Compute H0 matrices for state    1
--------------------------------------------------------------------------------
--------------------------------------------------------------------------------
 H0 matrices have been computed.
 
********************************************************************************
  CASPT2 EQUATION SOLUTION
--------------------------------------------------------------------------------
 
  Total nr of CASPT2 parameters:
   Before reduction:       15624
   After  reduction:       15216
 
 The contributions to the second order correlation energy in atomic units.
-----------------------------------------------------------------------------------------------------------------------------
  IT.      VJTU        VJTI        ATVX        AIVX        VJAI        BVAT        BJAT        BJAI        TOTAL       RNORM  
-----------------------------------------------------------------------------------------------------------------------------
   1     0.000000    0.000000   -0.003634    0.000000    0.000000   -0.009324    0.000000    0.000000   -0.012959    0.001005
   2     0.000000    0.000000   -0.003672    0.000000    0.000000   -0.009337    0.000000    0.000000   -0.013009    0.000084
   3     0.000000    0.000000   -0.003672    0.000000    0.000000   -0.009337    0.000000    0.000000   -0.013009    0.000012
   4     0.000000    0.000000   -0.003672    0.000000    0.000000   -0.009337    0.000000    0.000000   -0.013009    0.000001
-------------------------------------------------------------------------------------------------------------------
 
  FINAL CASPT2 RESULT:
 
  Correlation energy /Case, /Symm, and sums:
 VJTU      0.00000000  0.00000000
 VJTIP     0.00000000  0.00000000
 VJTIM     0.00000000  0.00000000
 ATVX     -0.00367197 -0.00367197
 AIVX      0.00000000  0.00000000
 VJAIP     0.00000000  0.00000000
 VJAIM     0.00000000  0.00000000
 BVATP    -0.00890542 -0.00890542
 BVATM    -0.00043166 -0.00043166
 BJATP     0.00000000  0.00000000
 BJATM     0.00000000  0.00000000
 BJAIP     0.00000000  0.00000000
 BJAIM     0.00000000  0.00000000
 Summed:  -0.01300906 -0.01300906
 
      Reference energy:          -3.0662014705
      E2 (Non-variational):      -0.0130090597
      E2 (Variational):          -0.0130090614
      Total energy:              -3.0792105319
      Residual norm:              0.0000001231
      Reference weight:           0.99263
 
      Contributions to the CASPT2 correlation energy
      Active & Virtual Only:         -0.0130090597
      One Inactive Excited:           0.0000000000
      Two Inactive Excited:           0.0000000000
 
 
++ Denominators, etc.
----------------------------------------------------------------------------------------------------
 Report on small energy denominators, large coefficients, and large energy contributions.
CASE  SYMM ACTIVE-MIX  NON-ACTIVE INDICES          DENOMINATOR     RHS VALUE       COEFFICIENT     CONTRIBUTION
--
 
   (Skipping property calculation,
    use PROP keyword to activate)
--
 
  Total CASPT2 energies:
::    CASPT2 Root  1     Total energy:     -3.07921053
 
  A NEW JOBIPH FILE NAMED 'JOBMIX' IS PREPARED.
********************************************************************************
--- Stop Module: caspt2 at Tue Oct 29 12:41:27 2024 /rc=_RC_ALL_IS_WELL_ ---
*** files: xmldump
    saved to directory /home/grierjones/DDCASPT2/hydrogen_comps/minimal_2e_2o/chains/even/H6_chain/H6_1.86

>>> EXPORT i = B

>>> EXPORT j = P

>>> IF (-FILE GMJ_e2_${i}_${j}.csv)
(Skipped)

>>> END FOREACH

>>> EXPORT j = M

>>> IF (-FILE GMJ_e2_${i}_${j}.csv)
(Skipped)

>>> END FOREACH

>>> END FOREACH

>>> EXPORT i = E

>>> EXPORT j = P

>>> IF (-FILE GMJ_e2_${i}_${j}.csv)
(Skipped)

>>> END FOREACH

>>> EXPORT j = M

>>> IF (-FILE GMJ_e2_${i}_${j}.csv)
(Skipped)

>>> END FOREACH

>>> END FOREACH

>>> EXPORT i = F

>>> EXPORT j = P

>>> IF (-FILE GMJ_e2_${i}_${j}.csv)

>>> COPY /tmp/H6_1.86/GMJ_RHS_F_P.csv /home/grierjones/DDCASPT2/hydrogen_comps/minimal_2e_2o/chains/even/H6_chain/H6_1.86/GMJ_RHS_F_P.csv

>>> COPY /tmp/H6_1.86/GMJ_IVECW_F_P.csv /home/grierjones/DDCASPT2/hydrogen_comps/minimal_2e_2o/chains/even/H6_chain/H6_1.86/GMJ_IVECW_F_P.csv

>>> COPY /tmp/H6_1.86/GMJ_e2_F_P.csv /home/grierjones/DDCASPT2/hydrogen_comps/minimal_2e_2o/chains/even/H6_chain/H6_1.86/GMJ_e2_F_P.csv

>>> END FOREACH

>>> EXPORT j = M

>>> IF (-FILE GMJ_e2_${i}_${j}.csv)

>>> COPY /tmp/H6_1.86/GMJ_RHS_F_M.csv /home/grierjones/DDCASPT2/hydrogen_comps/minimal_2e_2o/chains/even/H6_chain/H6_1.86/GMJ_RHS_F_M.csv

>>> COPY /tmp/H6_1.86/GMJ_IVECW_F_M.csv /home/grierjones/DDCASPT2/hydrogen_comps/minimal_2e_2o/chains/even/H6_chain/H6_1.86/GMJ_IVECW_F_M.csv

>>> COPY /tmp/H6_1.86/GMJ_e2_F_M.csv /home/grierjones/DDCASPT2/hydrogen_comps/minimal_2e_2o/chains/even/H6_chain/H6_1.86/GMJ_e2_F_M.csv

>>> END FOREACH

>>> END FOREACH

>>> EXPORT i = G

>>> EXPORT j = P

>>> IF (-FILE GMJ_e2_${i}_${j}.csv)
(Skipped)

>>> END FOREACH

>>> EXPORT j = M

>>> IF (-FILE GMJ_e2_${i}_${j}.csv)
(Skipped)

>>> END FOREACH

>>> END FOREACH

>>> EXPORT i = H

>>> EXPORT j = P

>>> IF (-FILE GMJ_e2_${i}_${j}.csv)
(Skipped)

>>> END FOREACH

>>> EXPORT j = M

>>> IF (-FILE GMJ_e2_${i}_${j}.csv)
(Skipped)

>>> END FOREACH

>>> END FOREACH

>>> EXPORT i = A

>>> IF (-FILE GMJ_e2_$i.csv)
(Skipped)

>>> END FOREACH

>>> EXPORT i = C

>>> IF (-FILE GMJ_e2_$i.csv)

>>> COPY /tmp/H6_1.86/GMJ_RHS_C.csv /home/grierjones/DDCASPT2/hydrogen_comps/minimal_2e_2o/chains/even/H6_chain/H6_1.86/GMJ_RHS_C.csv

>>> COPY /tmp/H6_1.86/GMJ_IVECW_C.csv /home/grierjones/DDCASPT2/hydrogen_comps/minimal_2e_2o/chains/even/H6_chain/H6_1.86/GMJ_IVECW_C.csv

>>> COPY /tmp/H6_1.86/GMJ_e2_C.csv /home/grierjones/DDCASPT2/hydrogen_comps/minimal_2e_2o/chains/even/H6_chain/H6_1.86/GMJ_e2_C.csv

>>> END FOREACH

>>> EXPORT i = D

>>> IF (-FILE GMJ_e2_$i.csv)
(Skipped)

>>> END FOREACH

.########################.
.# Non-zero return code #.
.########################.

    Timing: Wall=2.77 User=1.70 System=1.06
***************************************
*** WorkDir at /tmp/H6_1.86 cleaned ***
***************************************
