[Molden Format]
[N_Atoms]
                     2
[Atoms] (AU)
F1          1      9           0.00000000      0.00000000      0.00000000
O2          2      8           0.00000000      0.00000000      2.26767135
[Charge] (Mulliken)
 -8.108655658801212E-002
  8.108655658799613E-002
[GTO] (AU)
   1
   s  14
  1.031094600E+05  1.713099991E-04
  1.528100700E+04  7.123999962E-04
  3.441539200E+03  2.990479984E-03
  9.670948300E+02  1.164036994E-02
  3.140353400E+02  3.968642979E-02
  1.134423000E+02  1.128546094E-01
  4.464472700E+01  2.473650687E-01
  1.894287400E+01  3.672702681E-01
  8.532743000E+00  2.896286985E-01
  3.919401000E+00  7.786681959E-02
  1.568157000E+00  4.562139976E-03
  6.232900000E-01  2.468879987E-03
  2.408610000E-01  1.106309994E-03
  8.430100000E-02  1.739699991E-04
   s  14
  1.031094600E+05 -4.044999995E-05
  1.528100700E+04 -1.682299998E-04
  3.441539200E+03 -7.084299991E-04
  9.670948300E+02 -2.767999996E-03
  3.140353400E+02 -9.611379987E-03
  1.134423000E+02 -2.833957996E-02
  4.464472700E+01 -6.839343991E-02
  1.894287400E+01 -1.237379298E-01
  8.532743000E+00 -1.512859698E-01
  3.919401000E+00 -9.099909988E-03
  1.568157000E+00  3.716257695E-01
  6.232900000E-01  5.500214393E-01
  2.408610000E-01  2.092318697E-01
  8.430100000E-02  8.074639989E-03
   p   9
  2.453302900E+02  1.024860004E-03
  5.691900500E+01  8.344290032E-03
  1.760456800E+01  4.078927016E-02
  6.274995000E+00  1.351370605E-01
  2.447030000E+00  2.798830811E-01
  9.950600000E-01  3.597966414E-01
  4.039730000E-01  3.055347412E-01
  1.548100000E-01  1.354703905E-01
  5.418400000E-02  2.804449011E-02
 
   2
   s  14
  1.053749500E+05  1.238600013E-04
  1.567924000E+04  5.120100053E-04
  3.534544700E+03  2.152910022E-03
  9.873651600E+02  8.528440089E-03
  3.159787500E+02  3.018049031E-02
  1.116542800E+02  9.099702095E-02
  4.269945100E+01  2.177936423E-01
  1.739559600E+01  3.686245738E-01
  7.438309000E+00  3.366707335E-01
  3.222862000E+00  9.657630101E-02
  1.253877000E+00  2.144520022E-03
  4.951550000E-01  1.194350012E-03
  1.916650000E-01  5.390200056E-04
  6.708300000E-02  2.103400022E-04
   s  14
  1.053749500E+05 -2.815000008E-05
  1.567924000E+04 -1.163000003E-04
  3.534544700E+03 -4.909200013E-04
  9.873651600E+02 -1.946160005E-03
  3.159787500E+02 -7.005300019E-03
  1.116542800E+02 -2.167814006E-02
  4.269945100E+01 -5.641213015E-02
  1.739559600E+01 -1.127053003E-01
  7.438309000E+00 -1.589119704E-01
  3.222862000E+00 -3.355083009E-02
  1.253877000E+00  3.531902810E-01
  4.951550000E-01  5.534199315E-01
  1.916650000E-01  2.301839106E-01
  6.708300000E-02  1.127267003E-02
   p   9
  2.000000000E+02  9.173000030E-04
  4.653336700E+01  7.377140024E-03
  1.462180900E+01  3.483515011E-02
  5.313064000E+00  1.144397004E-01
  2.102525000E+00  2.554966408E-01
  8.502230000E-01  3.722557412E-01
  3.375970000E-01  3.323314911E-01
  1.288920000E-01  1.400847905E-01
  4.511200000E-02  2.395784008E-02
 
[MO]
Sym=     1a  
Ene=   -26.4970
Spin= Alpha
Occup=    1.00000
   1         1.00003393
   2        -0.00259519
   3        -0.00000000
   4        -0.00000000
   5         0.00154554
   6        -0.00010063
   7        -0.00078731
   8        -0.00000000
   9        -0.00000000
  10         0.00042155
Sym=     1a  
Ene=   -26.4900
Spin= Beta
Occup=    1.00000
   1         1.00002744
   2        -0.00284953
   3        -0.00000000
   4        -0.00000000
   5         0.00152475
   6        -0.00007250
   7        -0.00068693
   8        -0.00000000
   9        -0.00000000
  10         0.00034936
Sym=     2a  
Ene=   -20.8710
Spin= Alpha
Occup=    1.00000
   1        -0.00021859
   2        -0.00112953
   3        -0.00000000
   4         0.00000000
   5        -0.00049832
   6         1.00004548
   7         0.00118454
   8        -0.00000000
   9         0.00000000
  10        -0.00204001
Sym=     2a  
Ene=   -20.8350
Spin= Beta
Occup=    1.00000
   1        -0.00018043
   2        -0.00063150
   3        -0.00000000
   4         0.00000000
   5        -0.00013329
   6         1.00001757
   7        -0.00085543
   8        -0.00000000
   9         0.00000000
  10        -0.00177644
Sym=     3a  
Ene=    -1.9133
Spin= Alpha
Occup=    1.00000
   1        -0.01470358
   2         0.71195344
   3         0.00000000
   4        -0.00000000
   5         0.16217055
   6        -0.02300168
   7         0.39242765
   8        -0.00000000
   9        -0.00000000
  10        -0.16076823
Sym=     3a  
Ene=    -1.8720
Spin= Beta
Occup=    1.00000
   1        -0.01268363
   2         0.76075213
   3         0.00000000
   4        -0.00000000
   5         0.16875965
   6        -0.02352591
   7         0.31846947
   8        -0.00000000
   9        -0.00000000
  10        -0.15964269
Sym=     4a  
Ene=    -1.3329
Spin= Alpha
Occup=    1.00000
   1        -0.01897608
   2        -0.65850101
   3         0.00000000
   4        -0.00000000
   5         0.21501918
   6         0.00242755
   7         0.81980959
   8        -0.00000000
   9        -0.00000000
  10         0.03996986
Sym=     4a  
Ene=    -1.2265
Spin= Beta
Occup=    1.00000
   1        -0.01957758
   2        -0.60528125
   3         0.00000000
   4        -0.00000000
   5         0.30974301
   6        -0.00186825
   7         0.78867585
   8        -0.00000000
   9        -0.00000000
  10         0.01471752
Sym=     5a  
Ene=    -0.9188
Spin= Alpha
Occup=    1.00000
   1         0.00000000
   2        -0.00000000
   3         0.46312952
   4         0.53430268
   5         0.00000000
   6        -0.00000000
   7        -0.00000000
   8         0.37551599
   9         0.43322481
  10         0.00000000
Sym=     5a  
Ene=    -0.8693
Spin= Beta
Occup=    1.00000
   1        -0.00000000
   2        -0.00000000
   3        -0.61189687
   4         0.53038759
   5         0.00000000
   6        -0.00000000
   7         0.00000000
   8        -0.33253313
   9         0.28823720
  10        -0.00000000
Sym=     6a  
Ene=    -0.8833
Spin= Alpha
Occup=    1.00000
   1        -0.00000000
   2        -0.00000000
   3        -0.58707422
   4         0.50887149
   5        -0.00000000
   6        -0.00000000
   7         0.00000000
   8        -0.36759782
   9         0.31863101
  10        -0.00000000
Sym=     6a  
Ene=    -0.7863
Spin= Beta
Occup=    1.00000
   1         0.01724326
   2         0.20647209
   3        -0.00000000
   4        -0.00000000
   5        -0.67010113
   6         0.02972885
   7         0.51154399
   8        -0.00000000
   9        -0.00000000
  10         0.57510822
Sym=     7a  
Ene=    -0.8135
Spin= Alpha
Occup=    1.00000
   1         0.02001833
   2         0.25286154
   3        -0.00000000
   4         0.00000000
   5        -0.67978252
   6         0.02865676
   7         0.43106726
   8         0.00000000
   9         0.00000000
  10         0.59242005
Sym=     7a  
Ene=    -0.7861
Spin= Beta
Occup=    1.00000
   1         0.00000000
   2         0.00000000
   3         0.60425445
   4         0.69711550
   5        -0.00000000
   6         0.00000000
   7         0.00000000
   8         0.15548004
   9         0.17937401
  10         0.00000000
Sym=     8a  
Ene=    -0.6568
Spin= Alpha
Occup=    1.00000
   1        -0.00000000
   2        -0.00000000
   3        -0.48432449
   4        -0.55875486
   5         0.00000000
   6        -0.00000000
   7         0.00000000
   8         0.55501973
   9         0.64031446
  10        -0.00000000
Sym=     8a  
Ene=    -0.5697
Spin= Beta
Occup=    1.00000
   1        -0.00000000
   2        -0.00000000
   3        -0.47251303
   4         0.40957072
   5         0.00000000
   6        -0.00000000
   7         0.00000000
   8         0.69793127
   9        -0.60496155
  10        -0.00000000
Sym=     9a  
Ene=    -0.6013
Spin= Alpha
Occup=    1.00000
   1        -0.00000000
   2        -0.00000000
   3        -0.50302108
   4         0.43601487
   5         0.00000000
   6        -0.00000000
   7         0.00000000
   8         0.68011630
   9        -0.58951967
  10        -0.00000000
Sym=     9a  
Ene=     0.0647
Spin= Beta
Occup=    0.00000
   1         0.00000000
   2         0.00000000
   3        -0.28971663
   4        -0.33423992
   5         0.00000000
   6        -0.00000000
   7         0.00000000
   8         0.65183213
   9         0.75200486
  10         0.00000000
Sym=    10a  
Ene=     0.3464
Spin= Alpha
Occup=    0.00000
   1         0.05850357
   2         0.56037198
   3        -0.00000000
   4        -0.00000000
   5         0.85794800
   6        -0.05159712
   7        -0.53188291
   8        -0.00000000
   9        -0.00000000
  10         0.95724599
Sym=    10a  
Ene=     0.3862
Spin= Beta
Occup=    0.00000
   1         0.05975955
   2         0.57507961
   3        -0.00000000
   4        -0.00000000
   5         0.83501843
   6        -0.05131755
   7        -0.55650408
   8        -0.00000000
   9        -0.00000000
  10         0.96864576
