[Molden Format]
[N_Atoms]
                     2
[Atoms] (AU)
F1          1      9           0.00000000      0.00000000      0.00000000
O2          2      8           0.00000000      0.00000000      2.26767135
[Charge] (Mulliken)
  0.000000000000000E+000
  0.000000000000000E+000
[GTO] (AU)
   1
   s  14
  1.031094600E+05  1.713099991E-04
  1.528100700E+04  7.123999962E-04
  3.441539200E+03  2.990479984E-03
  9.670948300E+02  1.164036994E-02
  3.140353400E+02  3.968642979E-02
  1.134423000E+02  1.128546094E-01
  4.464472700E+01  2.473650687E-01
  1.894287400E+01  3.672702681E-01
  8.532743000E+00  2.896286985E-01
  3.919401000E+00  7.786681959E-02
  1.568157000E+00  4.562139976E-03
  6.232900000E-01  2.468879987E-03
  2.408610000E-01  1.106309994E-03
  8.430100000E-02  1.739699991E-04
   s  14
  1.031094600E+05 -4.044999995E-05
  1.528100700E+04 -1.682299998E-04
  3.441539200E+03 -7.084299991E-04
  9.670948300E+02 -2.767999996E-03
  3.140353400E+02 -9.611379987E-03
  1.134423000E+02 -2.833957996E-02
  4.464472700E+01 -6.839343991E-02
  1.894287400E+01 -1.237379298E-01
  8.532743000E+00 -1.512859698E-01
  3.919401000E+00 -9.099909988E-03
  1.568157000E+00  3.716257695E-01
  6.232900000E-01  5.500214393E-01
  2.408610000E-01  2.092318697E-01
  8.430100000E-02  8.074639989E-03
   p   9
  2.453302900E+02  1.024860004E-03
  5.691900500E+01  8.344290032E-03
  1.760456800E+01  4.078927016E-02
  6.274995000E+00  1.351370605E-01
  2.447030000E+00  2.798830811E-01
  9.950600000E-01  3.597966414E-01
  4.039730000E-01  3.055347412E-01
  1.548100000E-01  1.354703905E-01
  5.418400000E-02  2.804449011E-02
 
   2
   s  14
  1.053749500E+05  1.238600013E-04
  1.567924000E+04  5.120100053E-04
  3.534544700E+03  2.152910022E-03
  9.873651600E+02  8.528440089E-03
  3.159787500E+02  3.018049031E-02
  1.116542800E+02  9.099702095E-02
  4.269945100E+01  2.177936423E-01
  1.739559600E+01  3.686245738E-01
  7.438309000E+00  3.366707335E-01
  3.222862000E+00  9.657630101E-02
  1.253877000E+00  2.144520022E-03
  4.951550000E-01  1.194350012E-03
  1.916650000E-01  5.390200056E-04
  6.708300000E-02  2.103400022E-04
   s  14
  1.053749500E+05 -2.815000008E-05
  1.567924000E+04 -1.163000003E-04
  3.534544700E+03 -4.909200013E-04
  9.873651600E+02 -1.946160005E-03
  3.159787500E+02 -7.005300019E-03
  1.116542800E+02 -2.167814006E-02
  4.269945100E+01 -5.641213015E-02
  1.739559600E+01 -1.127053003E-01
  7.438309000E+00 -1.589119704E-01
  3.222862000E+00 -3.355083009E-02
  1.253877000E+00  3.531902810E-01
  4.951550000E-01  5.534199315E-01
  1.916650000E-01  2.301839106E-01
  6.708300000E-02  1.127267003E-02
   p   9
  2.000000000E+02  9.173000030E-04
  4.653336700E+01  7.377140024E-03
  1.462180900E+01  3.483515011E-02
  5.313064000E+00  1.144397004E-01
  2.102525000E+00  2.554966408E-01
  8.502230000E-01  3.722557412E-01
  3.375970000E-01  3.323314911E-01
  1.288920000E-01  1.400847905E-01
  4.511200000E-02  2.395784008E-02
 
[MO]
Sym=     1a  
Ene=   -26.4100
Spin= Alpha
Occup=    2.00000
   1         0.99991154
   2         0.00004847
   3         0.00000000
   4        -0.00000000
   5         0.00002031
   6         0.00062212
   7         0.00117798
   8        -0.00000000
   9         0.00000000
  10        -0.00120416
Sym=     2a  
Ene=   -20.6870
Spin= Alpha
Occup=    2.00000
   1        -0.00080018
   2         0.00169445
   3         0.00000000
   4        -0.00000000
   5         0.00177857
   6         0.99987565
   7         0.00006674
   8         0.00000000
   9        -0.00000000
  10        -0.00003143
Sym=     3a  
Ene=    -1.9301
Spin= Alpha
Occup=    2.00000
   1        -0.01810131
   2         0.72269771
   3         0.00000000
   4        -0.00000000
   5         0.10633953
   6        -0.02203834
   7         0.41829093
   8        -0.00000000
   9        -0.00000000
  10        -0.14048061
Sym=     4a  
Ene=    -1.1863
Spin= Alpha
Occup=    2.00000
   1        -0.01070697
   2        -0.57634443
   3         0.00000000
   4         0.00000000
   5         0.34659948
   6        -0.00529372
   7         0.73529510
   8        -0.00000000
   9         0.00000000
  10         0.14828145
Sym=     5a  
Ene=    -0.8355
Spin= Alpha
Occup=    2.00000
   1         0.00000000
   2         0.00000000
   3         0.68139113
   4        -0.33208274
   5         0.00000000
   6        -0.00000000
   7        -0.00000000
   8         0.45975089
   9        -0.22406416
  10        -0.00000000
Sym=     6a  
Ene=    -0.8355
Spin= Alpha
Occup=    2.00000
   1        -0.00000000
   2         0.00000000
   3         0.33208274
   4         0.68139113
   5         0.00000000
   6        -0.00000000
   7        -0.00000000
   8         0.22406416
   9         0.45975089
  10        -0.00000000
Sym=     7a  
Ene=    -0.7264
Spin= Alpha
Occup=    2.00000
   1         0.02008043
   2         0.19621071
   3         0.00000000
   4        -0.00000000
   5        -0.67671410
   6         0.02985072
   7         0.42562233
   8         0.00000000
   9        -0.00000000
  10         0.60777446
Sym=     8a  
Ene=    -0.5319
Spin= Alpha
Occup=    1.50000
   1         0.00000000
   2         0.00000000
   3        -0.51923809
   4         0.45007165
   5         0.00000000
   6        -0.00000000
   7        -0.00000000
   8         0.66957300
   9        -0.58038081
  10         0.00000000
Sym=     9a  
Ene=    -0.5319
Spin= Alpha
Occup=    1.50000
   1         0.00000000
   2         0.00000000
   3        -0.45007165
   4        -0.51923809
   5         0.00000000
   6        -0.00000000
   7        -0.00000000
   8         0.58038081
   9         0.66957300
  10         0.00000000
Sym=    10a  
Ene=    -0.3437
Spin= Alpha
Occup=    0.00000
   1         0.06163070
   2         0.65230253
   3         0.00000000
   4         0.00000000
   5         0.82542703
   6        -0.05434078
   7        -0.63089277
   8        -0.00000000
   9         0.00000000
  10         0.94000868
