   This run of MOLCAS is using the pymolcas driver

                             OPE
                             OPE          NMOL  CASOP  ENMOLC A   SO
                 OPE        NMOLC        AS  OP EN  MO LC     AS  OP
                OPENM       OL CA        SO  PE NM  OL CA     SOP EN
                OP EN      MO   LC       AS  OP ENMOL  CASO   PENMOL
                OP  EN     MO   LC       AS  OP EN     MO     LC ASO
               OP   E  NMOL  C  AS       OP  EN MO     LC     AS  OP
               OP  E   NMO   LC AS        OPEN  MO     LCASOP EN   M
               O  PEN   MO  LCA  SO
            OPE   NMO   L   CAS    OP
        OPENMOL  CASOP     ENMOL   CASOPE
     OPENMOLCA   SOPENMOLCASOPEN   MOLCASOPE
    OPENMOLCAS   OP           EN   MOL    CAS
    OPENMOLCAS       OP  ENM        O     LCA
    OPENMOLCAS    OPEN  MOLCASO     P  E  NMO
    OPENMOLCAS     OP               E  N  MOL
    OPENMOLCA   SO           PENM   O  L  CAS    OPEN    MO    LCAS
    OPENMOLCA   SOP           ENM   O  L  CAS   OP  EN  MOLC  AS   O
    OPENMOLCA   SOPE           NM      O  LCA   S      OP  EN MO
    OPENMOLC                AS         O  PEN   M      OL  CA  SOPE
    OPENMO        LCASOPE  NMOL        C  ASO   P      ENMOLC     AS
    OPE     NMO      LCA  SO     P     E   NM   OL  CA SO  PE N   MO
          OPENMOLCA            SOPE   NMO        LCAS  O    P  ENMO
     OPENMOLCASOPENMOLCASOPENMOLCASOPENMOLCA
        OPENMOLCASOPENMOLCASOPENMOLCASOPE
            OPENMOLCASOPENMOLCASOPENM
               OPENMOLCASOPENMOLCA        version: 1d1d16313-dirty
                   OPENMOLCASO
                       OPE                tag:

 OpenMolcas is free software; you can redistribute it and/or modify it
 under the terms of the GNU Lesser General Public License version 2.1.
 OpenMolcas is distributed in the hope that it will be useful, but it
 is provided "as is" and without any express or implied warranties.
 For more details see the full text of the license in the file
 LICENSE or in <http://www.gnu.org/licenses/>.

                 Copyright (C) The OpenMolcas Authors
           For the author list and the recommended citation,
                   consult the file CONTRIBUTORS.md

           *************************************************
           * pymolcas version py2.28                       *
           *   build c4a6d18ded8cb6cad61d2372a9abd97c      *
           *   (after the EMIL interpreter by V. Veryazov) *
           *************************************************

configuration info
------------------
C Compiler ID: IntelLLVM
C flags: -std=gnu99
Fortran Compiler ID: IntelLLVM
Fortran flags: -standard-semantics -fltconsistency -fpp -i8 -heap-arrays
Definitions: _MOLCAS_;_I8_;_LINUX_
Parallel: OFF (GA=OFF)


   -------------------------------------------------------------------------------
  |
  |              Project: 6.79
  |       Submitted from: /home/grierjones/DDCASPT2/iron_oxo_DDCASPT2/cluster/6.79
  |         Scratch area: /tmp/6.79
  |      Save outputs to: /home/grierjones/DDCASPT2/iron_oxo_DDCASPT2/cluster/6.79
  |               Molcas: /home/grierjones/Test/build
  |
  | Scratch area is empty
  |
  |       MOLCAS_DRIVER = /usr/local/pymolcas
  | MOLCAS_KEEP_WORKDIR = NO
  |  MOLCAS_NEW_WORKDIR = YES
  |       MOLCAS_NPROCS = 1
  |        MOLCAS_PRINT = NORMAL
  |       MOLCAS_SOURCE = /home/grierjones/Test
  |    MOLCAS_STRUCTURE = 0
  |
   -------------------------------------------------------------------------------

++ ---------   Input file   ---------

&GATEWAY
coord=6.79.xyz
Basis = ANO-RCC-VDZP
Group = nosymm
Expert
End of Input

&SEWARD
End of Input

&SCF
UHF
charge
2
spin
5
FileOrb
/home/grierjones/DDCASPT2/iron_oxo_DDCASPT2/cluster/6.78/6.78.UhfOrb

>>> COPY $WorkDir/6.79.scf.h5 $CurrDir/

&RASSCF
Title= RASSCF
FileOrb
/home/grierjones/DDCASPT2/iron_oxo_DDCASPT2/cluster/6.78/6.78.RasOrb
NACTEL
10 0 0
RAS2
14
Symmetry
1
Spin
5
charge
2
orblisting
all
ITERation
300 200

>>> COPY $WorkDir/6.79.rasscf.h5 $CurrDir/

>>> COPY $WorkDir/GMJ_Fock_MO.csv $CurrDir/6.79.GMJ_Fock_MO.csv

>>> COPY $WorkDir/GMJ_PT2_Fock_MO.csv $CurrDir/6.79.GMJ_PT2_Fock_MO.csv

&MOTRA
Frozen=0
LUMORB

>>> COPY $WorkDir/GMJ_one_int_indx.csv $CurrDir/6.79.GMJ_one_int_indx.csv

>>> COPY $WorkDir/GMJ_one_int.csv $CurrDir/6.79.GMJ_one_int.csv

>>> COPY $WorkDir/GMJ_two_int_indx.csv $CurrDir/6.79.GMJ_two_int_indx.csv

>>> COPY $WorkDir/GMJ_two_int.csv $CurrDir/6.79.GMJ_two_int.csv

&CASPT2
Frozen
0
MAXITER
50

>>> FOREACH i IN (B,E,F,G,H)

  >>> FOREACH j IN (P,M)

    >>> IF (-FILE GMJ_e2_${i}_${j}.csv)

      >>> COPY $WorkDir/GMJ_RHS_${i}_${j}.csv $CurrDir/GMJ_RHS_${i}_${j}.csv

      >>> COPY $WorkDir/GMJ_IVECW_${i}_${j}.csv $CurrDir/GMJ_IVECW_${i}_${j}.csv

      >>> COPY $WorkDir/GMJ_IVECX_${i}_${j}.csv $CurrDir/GMJ_IVECX_${i}_${j}.csv

      >>> COPY $WorkDir/GMJ_IVECC2_${i}_${j}.csv $CurrDir/GMJ_IVECC2_${i}_${j}.csv

      >>> COPY $WorkDir/GMJ_e2_${i}_${j}.csv $CurrDir/GMJ_e2_${i}_${j}.csv

    >>> END IF

  >>> END FOREACH

>>> END FOREACH

>>> FOREACH i IN (A,C,D)

  >>> IF (-FILE GMJ_e2_$i.csv)

    >>> COPY $WorkDir/GMJ_RHS_$i.csv $CurrDir/GMJ_RHS_$i.csv

    >>> COPY $WorkDir/GMJ_IVECW_$i.csv $CurrDir/GMJ_IVECW_$i.csv

    >>> COPY $WorkDir/GMJ_IVECX_$i.csv $CurrDir/GMJ_IVECX_$i.csv

    >>> COPY $WorkDir/GMJ_IVECC2_$i.csv $CurrDir/GMJ_IVECC2_$i.csv

    >>> COPY $WorkDir/GMJ_e2_$i.csv $CurrDir/GMJ_e2_$i.csv

  >>> END IF

>>> END FOREACH

-- ----------------------------------

--- Start Module: gateway at Thu Jan 23 16:00:53 2025 ---
 
()()()()()()()()()()()()()()()()()()()()()()()()()()()()()()()()()()()()()()()()()()()()()()()()()()

                                              &GATEWAY

                                   only a single process is used
                       available to each process: 2.0 GB of memory, 1 thread?
()()()()()()()()()()()()()()()()()()()()()()()()()()()()()()()()()()()()()()()()()()()()()()()()()()
 
 ###############################################################################
 ###############################################################################
 ###                                                                         ###
 ###                                                                         ###
 ###                                                                         ###
 ###    WARNING: EXPERT option is ON!                                        ###
 ###                                                                         ###
 ###                                                                         ###
 ###############################################################################
 ###############################################################################
 
++    Symmetry information:
      ---------------------
 
                    Character Table for C1 
 
                             E  
                    a        1  x, y, xy, Rz, z, xz, Ry, yz, Rx, I
--
 
 
++    Basis set information:
      ----------------------
 
 
      Basis set label: O.ANO-RCC...3S2P1D.
 
      Electronic valence basis set:
      ------------------
      Associated Effective Charge   8.000000 au
      Associated Actual Charge      8.000000 au
      Nuclear Model: Point charge
 
      Shell  nPrim  nBasis  Cartesian Spherical Contaminant
         s      14       3        X                  
         p       9       2        X                  
         d       4       1                 X         
 
 
      Basis set label: FE.ANO-RCC...5S4P2D1F.
 
      Electronic valence basis set:
      ------------------
      Associated Effective Charge  26.000000 au
      Associated Actual Charge     26.000000 au
      Nuclear Model: Point charge
 
      Shell  nPrim  nBasis  Cartesian Spherical Contaminant
         s      21       5        X                  
         p      15       4        X                  
         d      10       2                 X         
         f       6       1                 X         
--
 
 
++    Molecular structure info:
      -------------------------
 
                    ************************************************ 
                    **** Cartesian Coordinates / Bohr, Angstrom **** 
                    ************************************************ 
 
     Center  Label                x              y              z                     x              y              z
        1      O1               0.000000       0.000000       7.925663              0.000000       0.000000       4.194080
        2      FE2              0.000000       0.000000      -4.902101              0.000000       0.000000      -2.594080
--
 
 
            Nuclear Potential Energy             16.21482991 au
 
 ###############################################################################
 ###############################################################################
 ###                                                                         ###
 ###                                                                         ###
 ###    There were warnings during the execution                             ###
 ###    Please, check the output with care!                                  ###
 ###                                                                         ###
 ###                                                                         ###
 ###############################################################################
 ###############################################################################
--- Stop Module: gateway at Thu Jan 23 16:00:53 2025 /rc=_RC_ALL_IS_WELL_ ---
*** files: xmldump
    saved to directory /home/grierjones/DDCASPT2/iron_oxo_DDCASPT2/cluster/6.79

--- Start Module: seward at Thu Jan 23 16:00:53 2025 ---
 
()()()()()()()()()()()()()()()()()()()()()()()()()()()()()()()()()()()()()()()()()()()()()()()()()()

                                              &SEWARD

                                   only a single process is used
                       available to each process: 2.0 GB of memory, 1 thread?
()()()()()()()()()()()()()()()()()()()()()()()()()()()()()()()()()()()()()()()()()()()()()()()()()()
 
 ###############################################################################
 ###############################################################################
 ###                                                                         ###
 ###                                                                         ###
 ###                                                                         ###
 ###    WARNING: EXPERT option is ON!                                        ###
 ###                                                                         ###
 ###                                                                         ###
 ###############################################################################
 ###############################################################################
               SEWARD will generate:
                  Multipole Moment integrals up to order  2
                  Kinetic Energy integrals
                  Nuclear Attraction integrals (point charge)
                  One-Electron Hamiltonian integrals
                  Velocity integrals
                  Relativistic Douglas-Kroll-Hess integrals:
                    - Parametrization         : EXP
                    - DKH order of Hamiltonian: 2
                    - DKH order of Properties : 0
                         - multipole moment operators
                         - electric potential operators
                         - contact operators
                  Atomic mean-field integrals
                  Two-Electron Repulsion integrals
 
                   Integrals are discarded if absolute value <: 0.10E-13
                   Integral cutoff threshold is set to       <: 0.10E-15
 
            Nuclear Potential Energy             16.21482991 au
 
 
      Basis set specifications :
      Symmetry species         a  
      Basis functions           48
 
 
  Input file to MOLDEN was generated!
 
 ###############################################################################
 ###############################################################################
 ###                                                                         ###
 ###                                                                         ###
 ###    There were warnings during the execution                             ###
 ###    Please, check the output with care!                                  ###
 ###                                                                         ###
 ###                                                                         ###
 ###############################################################################
 ###############################################################################
forrtl: warning (525): IEEE_DIVIDE_BY_ZERO is signaling
forrtl: warning (526): IEEE_INVALID is signaling
forrtl: warning (528): IEEE_UNDERFLOW is signaling
--- Stop Module: seward at Thu Jan 23 16:00:54 2025 /rc=_RC_ALL_IS_WELL_ ---
*** files: 6.79.GssOrb 6.79.guessorb.h5 6.79.guessorb.molden xmldump
    saved to directory /home/grierjones/DDCASPT2/iron_oxo_DDCASPT2/cluster/6.79

*** symbolic link created: INPORB -> 6.79.GssOrb
--- Start Module: scf at Thu Jan 23 16:00:54 2025 ---
 
()()()()()()()()()()()()()()()()()()()()()()()()()()()()()()()()()()()()()()()()()()()()()()()()()()

                                                &SCF

                                   only a single process is used
                       available to each process: 2.0 GB of memory, 1 thread?
()()()()()()()()()()()()()()()()()()()()()()()()()()()()()()()()()()()()()()()()()()()()()()()()()()
 
 *** Possible bug in opening file
 *** isFreeUnit resets the unit number
++    Input section:
      --------------
 
      Header of the integral files:
      
       Integrals generated by seward 4.2.0  , Thu Jan 23 16:00:53 2025
 
 
      Cartesian coordinates in Angstrom:
      -----------------------------------------------------
      No.  Label        X            Y            Z        
      -----------------------------------------------------
       1   O1         0.00000000   0.00000000   4.19408000
       2   FE2        0.00000000   0.00000000  -2.59408000
      -----------------------------------------------------
      Nuclear repulsion energy =   16.21482991
--
 
++    Orbital specifications:
      -----------------------
 
      Symmetry species               1
                                     a
      Frozen orbitals                0
      Occupied orbitals alpha       18
      Occupied orbitals beta        14
      Secondary orbitals alpha      30
      Secondary orbitals beta       34
      Deleted orbitals               0
      Total number of orbitals      48
      Number of basis functions     48
--
 
      Molecular charge                           2.000
 
++    Optimization specifications:
      ----------------------------
 
      SCF Algorithm: Conventional USCF
      D(i)-D(i-1) density differences are used
      Number of density matrices in core                5
      Maximum number of NDDO SCF iterations           400
      Maximum number of HF SCF iterations             400
      Threshold for SCF energy change            0.10E-08
      Threshold for density matrix               0.10E-03
      Threshold for Fock matrix                  0.15E-03
      Threshold for linear dependence            0.10E-08
      Threshold at which DIIS is turned on       0.15E+00
      Threshold at which QNR/C2DIIS is turned on 0.75E-01
      Threshold for Norm(delta) (QNR/C2DIIS)     0.20E-04
      DIIS extrapolation of the SCF procedure
      All orbitals punched on: UHFORB
--
 
      Input vectors read from INPORB
      Orbital file label: * UHF orbitals
 
 
++ Convergence information
                               UHF SCF        iterations: Energy and convergence statistics
 
Iter     Tot. SCF        One-elec.       Two-elec.     Energy      Max Dij or  Max Fij      DNorm      TNorm      AccCon     Time
         Energy          Energy          Energy        Change      Delta Norm                                                in Sec.
 
 The total and one-electron energies are shifted by a value of      1000. a.u.
 
   1  -345.280502289  -881.399777218   519.904445017   0.00E+00    0.21E-04    0.89E-05     0.80E+01   0.18E+03   None         0.
   2  -345.280502289  -881.400605925   519.905273724  -0.53E-09    0.11E-04    0.82E-05     0.76E-04   0.18E+03   EDIIS        0.
 
       Convergence after  2 Macro Iterations
--
 
 *****************************************************************************************************************************
 *                                                                                                                           *
 *                                             SCF/KS-DFT Program, Final results                                             *
 *                                                                                                                           *
 *                                                                                                                           *
 *                                                                                                                           *
 *                                                       Final Results                                                       *
 *                                                                                                                           *
 *****************************************************************************************************************************
 
::    Total SCF energy                              -1345.2805022891
      One-electron energy                           -1881.4006059252
      Two-electron energy                             519.9052737236
      Nuclear repulsion energy                         16.2148299126
      Kinetic energy (interpolated)                  1399.3979123785
      Virial theorem                                    0.9613280757
      Total spin, S(S+1)                                7.0174935404
      Total spin, S                                     2.1958289153
      Max non-diagonal density matrix element           0.0000106214
      Max non-diagonal Fock matrix element              0.0000082426
 
 
      All orbitals with orbital energies smaller than  E(LUMO)+0.5 are printed
 
++    Molecular orbitals:
      -------------------
 
      Title: UHF orbitals (alpha)

      Molecular orbitals for symmetry species 1: a  
 
          Orbital            1         2         3         4         5         6         7         8         9        10    
          Energy         -263.8537  -32.6301  -27.7136  -27.7136  -27.6828  -21.4770   -4.5442   -3.1215   -3.1215   -3.0500
          Occ. No.          1.0000    1.0000    1.0000    1.0000    1.0000    1.0000    1.0000    1.0000    1.0000    1.0000
 
        1 O1     1s         0.0000   -0.0000    0.0000    0.0000   -0.0000    1.0000    0.0000   -0.0000   -0.0000    0.0000
        2 O1     2s         0.0000   -0.0000    0.0000    0.0000   -0.0000    0.0003    0.0000   -0.0000   -0.0000    0.0000
        3 O1     3s         0.0000   -0.0000    0.0000    0.0000   -0.0000   -0.0010    0.0001   -0.0000   -0.0000    0.0001
        4 O1     2px        0.0000    0.0000    0.0000   -0.0000    0.0000   -0.0000   -0.0000   -0.0000    0.0000   -0.0000
        5 O1     3px        0.0000    0.0000    0.0000   -0.0000    0.0000    0.0000    0.0000   -0.0000    0.0000   -0.0000
        6 O1     2py       -0.0000   -0.0000   -0.0000   -0.0000   -0.0000    0.0000    0.0000    0.0000    0.0000    0.0000
        7 O1     3py       -0.0000   -0.0000   -0.0000   -0.0000   -0.0000   -0.0000   -0.0000    0.0000    0.0000    0.0000
        8 O1     2pz        0.0000    0.0000   -0.0000   -0.0000    0.0000   -0.0000   -0.0000    0.0000    0.0000   -0.0000
        9 O1     3pz        0.0000    0.0000   -0.0000   -0.0000    0.0000    0.0000   -0.0001    0.0000    0.0000   -0.0001
       10 O1     3d2-      -0.0000   -0.0000   -0.0000    0.0000   -0.0000    0.0000    0.0000    0.0000   -0.0000    0.0000
       11 O1     3d1-       0.0000    0.0000    0.0000    0.0000    0.0000    0.0000    0.0000   -0.0000   -0.0000   -0.0000
       12 O1     3d0       -0.0000   -0.0000    0.0000    0.0000   -0.0000   -0.0015    0.0000   -0.0000   -0.0000    0.0000
       13 O1     3d1+      -0.0000   -0.0000   -0.0000    0.0000   -0.0000   -0.0000   -0.0000    0.0000   -0.0000    0.0000
       14 O1     3d2+       0.0000    0.0000   -0.0000   -0.0000    0.0000    0.0000    0.0000    0.0000    0.0000    0.0000
       15 FE2    1s         1.0000    0.0000    0.0000    0.0000   -0.0000    0.0000   -0.0000   -0.0000   -0.0000    0.0000
       16 FE2    2s        -0.0000    1.0000    0.0000    0.0000   -0.0002   -0.0000   -0.0023    0.0000    0.0000   -0.0000
       17 FE2    3s         0.0000    0.0023    0.0000    0.0000   -0.0000   -0.0000    0.9999    0.0000    0.0000   -0.0010
       18 FE2    4s        -0.0000   -0.0001   -0.0000   -0.0000    0.0000    0.0000    0.0063   -0.0000   -0.0000    0.0005
       19 FE2    5s         0.0000    0.0001    0.0000    0.0000   -0.0000    0.0000   -0.0044    0.0000    0.0000   -0.0003
       20 FE2    2px       -0.0000   -0.0000   -0.6408    0.7677   -0.0000   -0.0000    0.0000    0.0010   -0.0018    0.0000
       21 FE2    3px        0.0000   -0.0000   -0.0013    0.0016   -0.0000    0.0000   -0.0000   -0.4691    0.8831   -0.0000
       22 FE2    4px       -0.0000    0.0000    0.0001   -0.0002    0.0000   -0.0000    0.0000   -0.0016    0.0030   -0.0000
       23 FE2    5px        0.0000   -0.0000   -0.0004    0.0005   -0.0000   -0.0000   -0.0000    0.0020   -0.0038    0.0000
       24 FE2    2py        0.0000    0.0000    0.7677    0.6408    0.0001    0.0000   -0.0000   -0.0018   -0.0010   -0.0000
       25 FE2    3py       -0.0000    0.0000    0.0016    0.0013    0.0000   -0.0000    0.0000    0.8831    0.4691    0.0001
       26 FE2    4py        0.0000   -0.0000   -0.0002   -0.0001   -0.0000    0.0000   -0.0000    0.0030    0.0016    0.0000
       27 FE2    5py       -0.0000    0.0000    0.0005    0.0004    0.0000    0.0000    0.0000   -0.0038   -0.0020   -0.0000
       28 FE2    2pz        0.0000    0.0002   -0.0001   -0.0000    1.0000   -0.0000   -0.0000    0.0000    0.0000   -0.0016
       29 FE2    3pz       -0.0000    0.0000   -0.0000   -0.0000    0.0016   -0.0000    0.0010   -0.0001   -0.0000    1.0000
       30 FE2    4pz        0.0000   -0.0000    0.0000    0.0000   -0.0001    0.0000    0.0001   -0.0000   -0.0000    0.0056
       31 FE2    5pz       -0.0000    0.0000   -0.0000   -0.0000    0.0003    0.0000   -0.0001    0.0000    0.0000   -0.0056
       32 FE2    3d2-       0.0000    0.0000   -0.0000    0.0000    0.0000   -0.0000    0.0000   -0.0000    0.0000    0.0000
       33 FE2    4d2-      -0.0000   -0.0000    0.0000   -0.0000   -0.0000   -0.0000   -0.0000    0.0000   -0.0000   -0.0000
       34 FE2    3d1-      -0.0000   -0.0000    0.0000    0.0000    0.0000    0.0000   -0.0000    0.0004    0.0002    0.0000
       35 FE2    4d1-       0.0000    0.0000   -0.0000   -0.0000   -0.0000    0.0000    0.0000    0.0000    0.0000    0.0000
       36 FE2    3d0       -0.0000   -0.0005   -0.0000   -0.0000    0.0000    0.0000   -0.0124   -0.0000   -0.0000    0.0005
       37 FE2    4d0        0.0000    0.0004    0.0000    0.0000   -0.0000    0.0000    0.0041   -0.0000   -0.0000    0.0001
       38 FE2    3d1+       0.0000    0.0000   -0.0000    0.0000   -0.0000   -0.0000    0.0000   -0.0002    0.0004   -0.0000
       39 FE2    4d1+      -0.0000   -0.0000    0.0000   -0.0000    0.0000   -0.0000   -0.0000   -0.0000    0.0000   -0.0000
       40 FE2    3d2+       0.0000    0.0000   -0.0000   -0.0000    0.0000    0.0000    0.0000   -0.0000   -0.0000    0.0000
       41 FE2    4d2+      -0.0000   -0.0000    0.0000    0.0000   -0.0000   -0.0000   -0.0000    0.0000    0.0000   -0.0000
       42 FE2    4f3-      -0.0000   -0.0000    0.0000    0.0000    0.0000   -0.0000   -0.0000    0.0000    0.0000    0.0000
       43 FE2    4f2-      -0.0000    0.0000    0.0000   -0.0000    0.0000   -0.0000    0.0000    0.0000   -0.0000    0.0000
       44 FE2    4f1-      -0.0000   -0.0000   -0.0002   -0.0002   -0.0000    0.0000   -0.0000   -0.0071   -0.0038   -0.0000
       45 FE2    4f0       -0.0000   -0.0000    0.0000    0.0000   -0.0001    0.0000   -0.0000    0.0000    0.0000   -0.0018
       46 FE2    4f1+       0.0000    0.0000    0.0002   -0.0002    0.0000   -0.0000    0.0000    0.0038   -0.0071    0.0000
       47 FE2    4f2+       0.0000    0.0000    0.0000    0.0000    0.0000   -0.0000    0.0000    0.0000    0.0000    0.0000
       48 FE2    4f3+      -0.0000   -0.0000   -0.0000    0.0000    0.0000   -0.0000   -0.0000   -0.0000    0.0000    0.0000
 
          Orbital           11        12        13        14        15        16        17        18        19        20    
          Energy           -1.9886   -1.3741   -1.3741   -0.8556   -0.8556   -0.8165   -0.7816   -0.7816   -0.5330   -0.3075
          Occ. No.          1.0000    1.0000    1.0000    1.0000    1.0000    1.0000    1.0000    1.0000    0.0000    0.0000
 
        1 O1     1s        -0.0004    0.0000   -0.0000    0.0000    0.0000   -0.0000    0.0000    0.0000   -0.0000   -0.0002
        2 O1     2s         0.9961   -0.0000    0.0000    0.0000    0.0000   -0.0001    0.0000    0.0000    0.0038   -0.0017
        3 O1     3s        -0.0712    0.0000   -0.0000    0.0000    0.0000   -0.0001    0.0000    0.0000   -0.0036    0.0014
        4 O1     2px       -0.0000    0.8310    0.5376    0.0000   -0.0000    0.0000    0.0000   -0.0000    0.0000    0.0000
        5 O1     3px        0.0000   -0.1200   -0.0776    0.0000   -0.0000    0.0000    0.0000   -0.0001    0.0000    0.0000
        6 O1     2py        0.0000   -0.5376    0.8310   -0.0000   -0.0000   -0.0000   -0.0000   -0.0000   -0.0001   -0.0000
        7 O1     3py       -0.0000    0.0776   -0.1200   -0.0000   -0.0000   -0.0000   -0.0001   -0.0000   -0.0000   -0.0000
        8 O1     2pz       -0.0042   -0.0001    0.0001   -0.0000   -0.0000    0.0003   -0.0000   -0.0000    0.9945    0.0067
        9 O1     3pz       -0.0001    0.0000   -0.0000   -0.0000   -0.0000    0.0005   -0.0000   -0.0000    0.1050   -0.0027
       10 O1     3d2-       0.0000    0.0000    0.0000    0.0000   -0.0000   -0.0000    0.0000   -0.0000    0.0000   -0.0000
       11 O1     3d1-       0.0000    0.0007   -0.0010    0.0000    0.0000   -0.0000   -0.0000   -0.0000    0.0000   -0.0000
       12 O1     3d0       -0.0510    0.0000   -0.0000    0.0000    0.0000   -0.0000   -0.0000   -0.0000   -0.0020    0.0002
       13 O1     3d1+      -0.0000   -0.0010   -0.0007   -0.0000    0.0000    0.0000    0.0000   -0.0000   -0.0000    0.0000
       14 O1     3d2+       0.0000    0.0000   -0.0000    0.0000    0.0000   -0.0000    0.0000    0.0000    0.0000   -0.0000
       15 FE2    1s        -0.0000    0.0000   -0.0000    0.0000    0.0000    0.0000   -0.0000   -0.0000    0.0000    0.0000
       16 FE2    2s        -0.0000    0.0000   -0.0000    0.0000    0.0000    0.0004   -0.0000   -0.0000    0.0000    0.0001
       17 FE2    3s        -0.0000    0.0000   -0.0000    0.0000    0.0000    0.0124   -0.0000   -0.0000    0.0001   -0.0058
       18 FE2    4s        -0.0000    0.0000   -0.0000   -0.0000   -0.0000   -0.0160   -0.0000   -0.0000    0.0010    0.9948
       19 FE2    5s        -0.0001    0.0000   -0.0000    0.0000    0.0000    0.0078   -0.0000   -0.0000    0.0019    0.0708
       20 FE2    2px        0.0000    0.0000    0.0000    0.0000   -0.0000    0.0000    0.0000   -0.0000   -0.0000    0.0000
       21 FE2    3px       -0.0000    0.0000    0.0000    0.0000   -0.0000    0.0000    0.0002   -0.0005   -0.0000    0.0000
       22 FE2    4px       -0.0000    0.0001    0.0001   -0.0000    0.0000   -0.0000   -0.0023    0.0064   -0.0000    0.0000
       23 FE2    5px       -0.0000    0.0001    0.0000   -0.0000    0.0000   -0.0000   -0.0001    0.0003   -0.0000    0.0000
       24 FE2    2py       -0.0000   -0.0000    0.0000   -0.0000   -0.0000   -0.0000   -0.0000   -0.0000    0.0000   -0.0000
       25 FE2    3py        0.0000   -0.0000    0.0000   -0.0000   -0.0000   -0.0000   -0.0005   -0.0002    0.0000   -0.0000
       26 FE2    4py        0.0000   -0.0001    0.0001    0.0000    0.0000    0.0000    0.0064    0.0023    0.0000   -0.0000
       27 FE2    5py        0.0000   -0.0000    0.0001    0.0000    0.0000    0.0000    0.0003    0.0001    0.0000   -0.0000
       28 FE2    2pz        0.0000    0.0000   -0.0000    0.0000    0.0000   -0.0000    0.0000    0.0000    0.0000    0.0000
       29 FE2    3pz       -0.0000    0.0000   -0.0000    0.0000    0.0000   -0.0006    0.0000    0.0000    0.0001   -0.0008
       30 FE2    4pz       -0.0000    0.0000   -0.0000   -0.0000   -0.0000    0.0073   -0.0000   -0.0000    0.0009    0.0687
       31 FE2    5pz       -0.0000    0.0000   -0.0000   -0.0000   -0.0000    0.0003   -0.0000   -0.0000    0.0003    0.0099
       32 FE2    3d2-       0.0000    0.0000    0.0000    0.9916   -0.1292   -0.0000   -0.0001    0.0001    0.0000   -0.0000
       33 FE2    4d2-       0.0000   -0.0000   -0.0000    0.0033   -0.0004   -0.0000   -0.0000    0.0000    0.0000    0.0000
       34 FE2    3d1-       0.0000   -0.0000    0.0000    0.0000    0.0001    0.0001    0.9386    0.3438   -0.0000    0.0000
       35 FE2    4d1-       0.0000   -0.0000    0.0001    0.0000    0.0000    0.0000    0.0253    0.0093    0.0000   -0.0000
       36 FE2    3d0       -0.0000    0.0000   -0.0000   -0.0000   -0.0000    0.9996   -0.0002   -0.0000    0.0003    0.0150
       37 FE2    4d0       -0.0000    0.0000   -0.0000   -0.0000   -0.0000    0.0153   -0.0000   -0.0000    0.0002   -0.0085
       38 FE2    3d1+      -0.0000    0.0000    0.0000   -0.0001    0.0000   -0.0000   -0.3438    0.9386    0.0000   -0.0000
       39 FE2    4d1+      -0.0000    0.0001    0.0000   -0.0000    0.0000   -0.0000   -0.0093    0.0253   -0.0000    0.0000
       40 FE2    3d2+       0.0000    0.0000   -0.0000    0.1292    0.9916   -0.0000   -0.0001   -0.0001    0.0000   -0.0000
       41 FE2    4d2+       0.0000   -0.0000    0.0000    0.0004    0.0033   -0.0000   -0.0000   -0.0000    0.0000    0.0000
       42 FE2    4f3-       0.0000   -0.0000   -0.0000   -0.0000    0.0000    0.0000   -0.0000   -0.0000   -0.0000    0.0000
       43 FE2    4f2-      -0.0000    0.0000    0.0000    0.0004   -0.0001   -0.0000   -0.0000    0.0000    0.0000   -0.0000
       44 FE2    4f1-       0.0000   -0.0000    0.0000    0.0000    0.0000    0.0000    0.0005    0.0002   -0.0000   -0.0000
       45 FE2    4f0        0.0000    0.0000   -0.0000   -0.0000   -0.0000    0.0006   -0.0000   -0.0000   -0.0000    0.0000
       46 FE2    4f1+      -0.0000    0.0000    0.0000   -0.0000    0.0000   -0.0000   -0.0002    0.0005    0.0000    0.0000
       47 FE2    4f2+      -0.0000    0.0000   -0.0000    0.0001    0.0004   -0.0000   -0.0000   -0.0000    0.0000   -0.0000
       48 FE2    4f3+       0.0000   -0.0000   -0.0000   -0.0000   -0.0000    0.0000    0.0000   -0.0000   -0.0000    0.0000
 
          Orbital           21        22        23        24    
          Energy           -0.1612   -0.1612   -0.1519   -0.0726
          Occ. No.          0.0000    0.0000    0.0000    0.0000
 
        1 O1     1s         0.0000   -0.0000   -0.0002   -0.0005
        2 O1     2s         0.0000   -0.0000   -0.0024   -0.0048
        3 O1     3s        -0.0000    0.0000    0.0049    0.0150
        4 O1     2px       -0.0001    0.0004    0.0000    0.0000
        5 O1     3px       -0.0012    0.0042    0.0000    0.0000
        6 O1     2py        0.0004    0.0001   -0.0000   -0.0000
        7 O1     3py        0.0042    0.0012   -0.0000   -0.0000
        8 O1     2pz       -0.0000    0.0000    0.0107    0.0204
        9 O1     3pz        0.0000   -0.0000   -0.0191   -0.0464
       10 O1     3d2-       0.0000   -0.0000   -0.0000   -0.0000
       11 O1     3d1-      -0.0001   -0.0000   -0.0000   -0.0000
       12 O1     3d0       -0.0000    0.0000    0.0005    0.0014
       13 O1     3d1+       0.0000   -0.0001    0.0000    0.0000
       14 O1     3d2+       0.0000    0.0000   -0.0000   -0.0000
       15 FE2    1s         0.0000   -0.0000   -0.0000   -0.0000
       16 FE2    2s         0.0000   -0.0000   -0.0000   -0.0002
       17 FE2    3s        -0.0000    0.0000    0.0005    0.0046
       18 FE2    4s         0.0000   -0.0000   -0.0740   -0.0672
       19 FE2    5s        -0.0000    0.0000    0.0592    0.9912
       20 FE2    2px       -0.0000    0.0001   -0.0000   -0.0000
       21 FE2    3px        0.0008   -0.0027    0.0000   -0.0000
       22 FE2    4px       -0.2629    0.9579   -0.0000    0.0000
       23 FE2    5px       -0.0303    0.1104   -0.0000    0.0000
       24 FE2    2py        0.0001    0.0000    0.0000    0.0000
       25 FE2    3py       -0.0027   -0.0008   -0.0000    0.0000
       26 FE2    4py        0.9579    0.2629    0.0001   -0.0000
       27 FE2    5py        0.1104    0.0303    0.0000   -0.0000
       28 FE2    2pz       -0.0000    0.0000    0.0001   -0.0000
       29 FE2    3pz        0.0000   -0.0000   -0.0048    0.0007
       30 FE2    4pz       -0.0001    0.0000    0.9872   -0.0681
       31 FE2    5pz       -0.0000    0.0000    0.1201   -0.0042
       32 FE2    3d2-       0.0000   -0.0000    0.0000    0.0000
       33 FE2    4d2-       0.0000   -0.0000   -0.0000   -0.0000
       34 FE2    3d1-      -0.0067   -0.0018   -0.0000   -0.0000
       35 FE2    4d1-       0.0062    0.0017    0.0000    0.0000
       36 FE2    3d0        0.0000   -0.0000   -0.0091   -0.0087
       37 FE2    4d0       -0.0000    0.0000    0.0107    0.0144
       38 FE2    3d1+       0.0018   -0.0067    0.0000    0.0000
       39 FE2    4d1+      -0.0017    0.0062   -0.0000   -0.0000
       40 FE2    3d2+       0.0000    0.0000    0.0000    0.0000
       41 FE2    4d2+       0.0000    0.0000   -0.0000   -0.0000
       42 FE2    4f3-      -0.0000   -0.0000   -0.0000   -0.0000
       43 FE2    4f2-       0.0000   -0.0000    0.0000    0.0000
       44 FE2    4f1-      -0.0001   -0.0000   -0.0000   -0.0000
       45 FE2    4f0        0.0000   -0.0000   -0.0004    0.0000
       46 FE2    4f1+       0.0000   -0.0001    0.0000    0.0000
       47 FE2    4f2+       0.0000    0.0000    0.0000    0.0000
       48 FE2    4f3+       0.0000   -0.0000   -0.0000   -0.0000
--
 
 
  Input file to MOLDEN was generated!
 
 
++    Static properties:
      ------------------
 
 
      LoProp Charges per center
 

                   O1       FE2   
      Nuclear      8.0000  26.0000
      Electronic  -7.0000 -25.0000
 
      Total        1.0000   1.0000
--
 
 
      All orbitals with orbital energies smaller than  E(LUMO)+0.5 are printed
 
++    Molecular orbitals:
      -------------------
 
      Title: UHF orbitals (beta)

      Molecular orbitals for symmetry species 1: a  
 
          Orbital            1         2         3         4         5         6         7         8         9        10    
          Energy         -263.8523  -32.5453  -27.6193  -27.6193  -27.6186  -21.4300   -4.2927   -2.8260   -2.7768   -2.7768
          Occ. No.          1.0000    1.0000    1.0000    1.0000    1.0000    1.0000    1.0000    1.0000    1.0000    1.0000
 
        1 O1     1s         0.0000   -0.0000   -0.0000   -0.0000    0.0000    1.0000    0.0000    0.0000   -0.0000    0.0000
        2 O1     2s         0.0000    0.0000   -0.0000   -0.0000    0.0000   -0.0019    0.0001    0.0000   -0.0000    0.0000
        3 O1     3s         0.0000    0.0000   -0.0000   -0.0000    0.0000    0.0002    0.0001    0.0001   -0.0000    0.0000
        4 O1     2px       -0.0000    0.0000   -0.0000    0.0000   -0.0000    0.0000    0.0000   -0.0000    0.0000    0.0000
        5 O1     3px        0.0000    0.0000   -0.0000    0.0000   -0.0000   -0.0000   -0.0000   -0.0000    0.0000    0.0000
        6 O1     2py        0.0000   -0.0000    0.0000    0.0000    0.0000   -0.0000   -0.0000    0.0000    0.0000   -0.0000
        7 O1     3py       -0.0000   -0.0000    0.0000    0.0000    0.0000    0.0000    0.0000    0.0000    0.0000   -0.0000
        8 O1     2pz        0.0000   -0.0000    0.0000    0.0000   -0.0000   -0.0000   -0.0000   -0.0000    0.0000   -0.0000
        9 O1     3pz        0.0000   -0.0000    0.0000    0.0000   -0.0000   -0.0000   -0.0002   -0.0001    0.0000   -0.0000
       10 O1     3d2-      -0.0000   -0.0000   -0.0000    0.0000   -0.0000   -0.0000    0.0000    0.0000   -0.0000    0.0000
       11 O1     3d1-       0.0000    0.0000   -0.0000   -0.0000   -0.0000   -0.0000    0.0000   -0.0000   -0.0000    0.0000
       12 O1     3d0       -0.0000    0.0000   -0.0000   -0.0000    0.0000    0.0015    0.0000    0.0000   -0.0000    0.0000
       13 O1     3d1+      -0.0000   -0.0000    0.0000   -0.0000    0.0000    0.0000   -0.0000    0.0000   -0.0000   -0.0000
       14 O1     3d2+       0.0000    0.0000   -0.0000   -0.0000    0.0000   -0.0000    0.0000    0.0000   -0.0000   -0.0000
       15 FE2    1s         1.0000    0.0000    0.0000    0.0000   -0.0000   -0.0000   -0.0000    0.0000   -0.0000    0.0000
       16 FE2    2s        -0.0000    1.0000    0.0000    0.0000   -0.0002   -0.0000    0.0002   -0.0000    0.0000   -0.0000
       17 FE2    3s         0.0000   -0.0002   -0.0000   -0.0000    0.0000    0.0000    1.0000   -0.0011    0.0000   -0.0000
       18 FE2    4s        -0.0000    0.0001   -0.0000   -0.0000    0.0000   -0.0000    0.0076    0.0005   -0.0000    0.0000
       19 FE2    5s         0.0000   -0.0002    0.0000    0.0000   -0.0000   -0.0000   -0.0057   -0.0003    0.0000   -0.0000
       20 FE2    2px       -0.0000   -0.0000   -0.4574    0.8893   -0.0000   -0.0000   -0.0000   -0.0000    0.0002    0.0019
       21 FE2    3px        0.0000    0.0000    0.0009   -0.0017    0.0000   -0.0000    0.0000   -0.0000    0.0888    0.9959
       22 FE2    4px       -0.0000   -0.0000   -0.0001    0.0003   -0.0000    0.0000   -0.0000   -0.0000    0.0007    0.0080
       23 FE2    5px        0.0000   -0.0000    0.0004   -0.0007    0.0000    0.0000   -0.0000    0.0000   -0.0008   -0.0089
       24 FE2    2py        0.0000    0.0000    0.8893    0.4574    0.0001    0.0000    0.0000    0.0000    0.0019   -0.0002
       25 FE2    3py       -0.0000   -0.0000   -0.0017   -0.0009   -0.0000    0.0000   -0.0000    0.0001    0.9959   -0.0888
       26 FE2    4py        0.0000    0.0000    0.0003    0.0001    0.0000   -0.0000    0.0000    0.0000    0.0080   -0.0007
       27 FE2    5py       -0.0000    0.0000   -0.0007   -0.0004   -0.0000   -0.0000    0.0000   -0.0000   -0.0089    0.0008
       28 FE2    2pz        0.0000    0.0002   -0.0001   -0.0000    1.0000   -0.0000   -0.0000    0.0010   -0.0000    0.0000
       29 FE2    3pz       -0.0000    0.0000    0.0000    0.0000   -0.0010    0.0000    0.0011    0.9997   -0.0001    0.0000
       30 FE2    4pz        0.0000   -0.0000   -0.0000   -0.0000    0.0003   -0.0000    0.0001    0.0107   -0.0000    0.0000
       31 FE2    5pz       -0.0000    0.0000    0.0000    0.0000   -0.0007   -0.0000   -0.0001   -0.0099    0.0000   -0.0000
       32 FE2    3d2-      -0.0000   -0.0000   -0.0000    0.0000   -0.0000    0.0000   -0.0000   -0.0000    0.0000   -0.0000
       33 FE2    4d2-      -0.0000   -0.0000    0.0000   -0.0000    0.0000   -0.0000    0.0000    0.0000   -0.0000    0.0000
       34 FE2    3d1-       0.0000    0.0000    0.0000    0.0000    0.0000   -0.0000    0.0000    0.0000    0.0003   -0.0000
       35 FE2    4d1-       0.0000    0.0000   -0.0000   -0.0000   -0.0000   -0.0000    0.0000   -0.0000    0.0002   -0.0000
       36 FE2    3d0        0.0000    0.0000   -0.0000   -0.0000    0.0000   -0.0000    0.0010    0.0009   -0.0000    0.0000
       37 FE2    4d0        0.0000    0.0000    0.0000    0.0000   -0.0000   -0.0000    0.0005   -0.0001   -0.0000    0.0000
       38 FE2    3d1+      -0.0000   -0.0000   -0.0000    0.0000   -0.0000    0.0000   -0.0000   -0.0000    0.0000    0.0003
       39 FE2    4d1+      -0.0000   -0.0000    0.0000   -0.0000    0.0000    0.0000   -0.0000    0.0000    0.0000    0.0002
       40 FE2    3d2+      -0.0000   -0.0000   -0.0000   -0.0000   -0.0000    0.0000   -0.0000   -0.0000    0.0000    0.0000
       41 FE2    4d2+      -0.0000   -0.0000    0.0000    0.0000    0.0000   -0.0000    0.0000    0.0000   -0.0000   -0.0000
       42 FE2    4f3-      -0.0000    0.0000   -0.0000   -0.0000   -0.0000   -0.0000    0.0000   -0.0000   -0.0000   -0.0000
       43 FE2    4f2-       0.0000   -0.0000   -0.0000    0.0000    0.0000   -0.0000   -0.0000    0.0000   -0.0000    0.0000
       44 FE2    4f1-      -0.0000    0.0000    0.0007    0.0004   -0.0000   -0.0000    0.0000   -0.0000    0.0128   -0.0011
       45 FE2    4f0       -0.0000    0.0000   -0.0000   -0.0000   -0.0011   -0.0000    0.0000   -0.0211   -0.0000    0.0000
       46 FE2    4f1+       0.0000   -0.0000   -0.0004    0.0007    0.0000    0.0000   -0.0000    0.0000    0.0011    0.0128
       47 FE2    4f2+       0.0000   -0.0000   -0.0000   -0.0000    0.0000    0.0000   -0.0000    0.0000   -0.0000   -0.0000
       48 FE2    4f3+      -0.0000    0.0000    0.0000   -0.0000   -0.0000   -0.0000    0.0000   -0.0000    0.0000   -0.0000
 
          Orbital           11        12        13        14        15        16        17        18        19        20    
          Energy           -1.8087   -1.3291   -0.6797   -0.6797   -0.4995   -0.4995   -0.2903   -0.1405   -0.1402   -0.1402
          Occ. No.          1.0000    1.0000    1.0000    1.0000    0.0000    0.0000    0.0000    0.0000    0.0000    0.0000
 
        1 O1     1s         0.0018    0.0000    0.0000    0.0000    0.0000    0.0000   -0.0002   -0.0002    0.0000   -0.0000
        2 O1     2s         0.9974    0.0029    0.0000    0.0000    0.0000    0.0000   -0.0025   -0.0028    0.0000   -0.0000
        3 O1     3s        -0.0469   -0.0022   -0.0000   -0.0000   -0.0000   -0.0000    0.0017    0.0047   -0.0000    0.0000
        4 O1     2px        0.0000    0.0000   -0.0000    0.0000   -0.4750    0.8700   -0.0000   -0.0000   -0.0017    0.0005
        5 O1     3px       -0.0000   -0.0000   -0.0000    0.0000   -0.0634    0.1162   -0.0000    0.0000    0.0028   -0.0008
        6 O1     2py       -0.0000   -0.0001   -0.0000   -0.0000    0.8700    0.4750    0.0000    0.0000   -0.0005   -0.0017
        7 O1     3py        0.0000    0.0000   -0.0000   -0.0000    0.1162    0.0634    0.0000   -0.0000    0.0008    0.0028
        8 O1     2pz       -0.0031    0.9917   -0.0000   -0.0000    0.0001    0.0000    0.0013   -0.0022    0.0000   -0.0000
        9 O1     3pz       -0.0011   -0.1281   -0.0000   -0.0000    0.0000    0.0000   -0.0069   -0.0343    0.0000   -0.0000
       10 O1     3d2-      -0.0000   -0.0000    0.0000   -0.0000    0.0000   -0.0000    0.0000    0.0000    0.0000   -0.0000
       11 O1     3d1-      -0.0000    0.0000   -0.0000   -0.0000   -0.0010   -0.0005    0.0000    0.0000   -0.0000   -0.0001
       12 O1     3d0        0.0553   -0.0008   -0.0000   -0.0000   -0.0000   -0.0000    0.0002    0.0003   -0.0000    0.0000
       13 O1     3d1+       0.0000   -0.0000   -0.0000    0.0000    0.0005   -0.0010   -0.0000   -0.0000   -0.0001    0.0000
       14 O1     3d2+      -0.0000   -0.0000   -0.0000   -0.0000    0.0000    0.0000    0.0000    0.0000   -0.0000   -0.0000
       15 FE2    1s        -0.0000   -0.0000   -0.0000   -0.0000    0.0000    0.0000    0.0000   -0.0000    0.0000   -0.0000
       16 FE2    2s        -0.0000   -0.0000    0.0000    0.0000    0.0000    0.0000   -0.0001    0.0000   -0.0000    0.0000
       17 FE2    3s        -0.0000   -0.0000   -0.0000   -0.0000    0.0000    0.0000   -0.0067    0.0007   -0.0000    0.0000
       18 FE2    4s        -0.0001   -0.0006   -0.0000   -0.0000    0.0000    0.0000    0.9861   -0.0833    0.0000   -0.0001
       19 FE2    5s        -0.0003   -0.0009    0.0000    0.0000    0.0000    0.0000    0.1462    0.0390   -0.0000    0.0000
       20 FE2    2px       -0.0000    0.0000   -0.0000    0.0000    0.0000   -0.0000   -0.0000   -0.0000   -0.0002    0.0001
       21 FE2    3px       -0.0000    0.0000   -0.0004    0.0001    0.0000   -0.0000    0.0000   -0.0000   -0.0066    0.0018
       22 FE2    4px        0.0000    0.0000    0.0107   -0.0031    0.0001   -0.0001    0.0000    0.0003    0.9546   -0.2675
       23 FE2    5px        0.0000    0.0000    0.0006   -0.0002    0.0000   -0.0000    0.0000    0.0000    0.1250   -0.0350
       24 FE2    2py        0.0000   -0.0000   -0.0000   -0.0000   -0.0000   -0.0000    0.0000    0.0000   -0.0001   -0.0002
       25 FE2    3py        0.0000   -0.0000   -0.0001   -0.0004   -0.0000   -0.0000   -0.0000    0.0000   -0.0018   -0.0066
       26 FE2    4py       -0.0000   -0.0000    0.0031    0.0107   -0.0001   -0.0001   -0.0000   -0.0010    0.2675    0.9546
       27 FE2    5py       -0.0000   -0.0000    0.0002    0.0006   -0.0000   -0.0000   -0.0000   -0.0001    0.0350    0.1250
       28 FE2    2pz       -0.0000   -0.0000    0.0000    0.0000    0.0000    0.0000   -0.0000   -0.0002    0.0000   -0.0000
       29 FE2    3pz       -0.0000   -0.0000    0.0000    0.0000    0.0000    0.0000   -0.0012   -0.0093    0.0000   -0.0000
       30 FE2    4pz       -0.0001   -0.0006   -0.0000   -0.0000    0.0000    0.0000    0.0744    0.9851   -0.0000    0.0010
       31 FE2    5pz       -0.0001   -0.0003   -0.0000   -0.0000    0.0000    0.0000    0.0115    0.1294   -0.0000    0.0001
       32 FE2    3d2-       0.0000   -0.0000    0.0001   -0.0000    0.0000   -0.0000   -0.0000   -0.0000   -0.0000    0.0000
       33 FE2    4d2-      -0.0000   -0.0000    0.0000   -0.0000    0.0000   -0.0000   -0.0000   -0.0000   -0.0000    0.0000
       34 FE2    3d1-      -0.0000    0.0000    0.2784    0.9576   -0.0001   -0.0001    0.0000    0.0000   -0.0031   -0.0111
       35 FE2    4d1-      -0.0000   -0.0000    0.0203    0.0698   -0.0000   -0.0000   -0.0000   -0.0000    0.0015    0.0053
       36 FE2    3d0       -0.0000   -0.0001   -0.0000   -0.0002    0.0000    0.0000    0.0017    0.0214   -0.0000    0.0000
       37 FE2    4d0       -0.0000   -0.0002   -0.0000   -0.0000    0.0000    0.0000   -0.0015    0.0144   -0.0000    0.0000
       38 FE2    3d1+       0.0000   -0.0000    0.9576   -0.2784    0.0001   -0.0001   -0.0000   -0.0000   -0.0111    0.0031
       39 FE2    4d1+       0.0000    0.0000    0.0698   -0.0203    0.0000   -0.0000    0.0000    0.0000    0.0053   -0.0015
       40 FE2    3d2+       0.0000   -0.0000   -0.0000   -0.0001    0.0000    0.0000   -0.0000   -0.0000    0.0000    0.0000
       41 FE2    4d2+      -0.0000   -0.0000   -0.0000   -0.0000    0.0000    0.0000   -0.0000   -0.0000    0.0000    0.0000
       42 FE2    4f3-       0.0000    0.0000   -0.0000   -0.0000    0.0000    0.0000   -0.0000   -0.0000   -0.0000   -0.0000
       43 FE2    4f2-      -0.0000   -0.0000    0.0000   -0.0000    0.0000   -0.0000    0.0000    0.0000    0.0000   -0.0000
       44 FE2    4f1-       0.0000   -0.0000    0.0002    0.0006    0.0000    0.0000   -0.0000   -0.0000    0.0004    0.0013
       45 FE2    4f0       -0.0000   -0.0000   -0.0000   -0.0000   -0.0000   -0.0000   -0.0002   -0.0016    0.0000   -0.0000
       46 FE2    4f1+      -0.0000    0.0000    0.0006   -0.0002   -0.0000    0.0000    0.0000    0.0000    0.0013   -0.0004
       47 FE2    4f2+      -0.0000   -0.0000   -0.0000   -0.0000    0.0000    0.0000    0.0000    0.0000   -0.0000   -0.0000
       48 FE2    4f3+       0.0000    0.0000   -0.0000    0.0000   -0.0000    0.0000   -0.0000   -0.0000   -0.0000   -0.0000
 
          Orbital           21        22        23    
          Energy           -0.0529    0.0003    0.0003
          Occ. No.          0.0000    0.0000    0.0000
 
        1 O1     1s        -0.0005   -0.0000   -0.0000
        2 O1     2s        -0.0059   -0.0000   -0.0000
        3 O1     3s         0.0149   -0.0000   -0.0000
        4 O1     2px       -0.0000   -0.0000    0.0000
        5 O1     3px       -0.0000    0.0000   -0.0000
        6 O1     2py        0.0000   -0.0000   -0.0000
        7 O1     3py        0.0000    0.0000    0.0000
        8 O1     2pz       -0.0090    0.0000    0.0000
        9 O1     3pz       -0.1076    0.0000    0.0000
       10 O1     3d2-       0.0000   -0.0000    0.0000
       11 O1     3d1-       0.0000   -0.0000   -0.0000
       12 O1     3d0        0.0007   -0.0000   -0.0000
       13 O1     3d1+      -0.0000   -0.0000    0.0000
       14 O1     3d2+       0.0000    0.0000    0.0000
       15 FE2    1s        -0.0000    0.0000    0.0000
       16 FE2    2s         0.0002    0.0000    0.0000
       17 FE2    3s         0.0066    0.0000    0.0000
       18 FE2    4s        -0.1448    0.0000    0.0000
       19 FE2    5s         0.9752    0.0000    0.0000
       20 FE2    2px        0.0000   -0.0000    0.0000
       21 FE2    3px       -0.0000   -0.0000    0.0000
       22 FE2    4px        0.0000   -0.0000    0.0000
       23 FE2    5px        0.0000   -0.0000    0.0000
       24 FE2    2py       -0.0000   -0.0000   -0.0000
       25 FE2    3py        0.0000   -0.0000   -0.0000
       26 FE2    4py       -0.0000   -0.0000   -0.0000
       27 FE2    5py       -0.0000   -0.0000   -0.0000
       28 FE2    2pz        0.0000    0.0000    0.0000
       29 FE2    3pz        0.0009    0.0000    0.0000
       30 FE2    4pz       -0.0603    0.0000    0.0000
       31 FE2    5pz       -0.0038    0.0000    0.0000
       32 FE2    3d2-      -0.0000   -0.2595    0.9176
       33 FE2    4d2-      -0.0000   -0.0820    0.2898
       34 FE2    3d1-       0.0000    0.0001    0.0000
       35 FE2    4d1-       0.0000    0.0000    0.0000
       36 FE2    3d0        0.0125   -0.0000   -0.0000
       37 FE2    4d0        0.0102   -0.0000   -0.0000
       38 FE2    3d1+      -0.0000    0.0000   -0.0001
       39 FE2    4d1+      -0.0000    0.0000   -0.0000
       40 FE2    3d2+      -0.0000    0.9176    0.2595
       41 FE2    4d2+      -0.0000    0.2898    0.0820
       42 FE2    4f3-       0.0000    0.0000    0.0000
       43 FE2    4f2-      -0.0000   -0.0001    0.0005
       44 FE2    4f1-       0.0000    0.0000    0.0000
       45 FE2    4f0        0.0002   -0.0000   -0.0000
       46 FE2    4f1+      -0.0000    0.0000   -0.0000
       47 FE2    4f2+      -0.0000    0.0005    0.0001
       48 FE2    4f3+       0.0000    0.0000   -0.0000
--
 
 
++    Molecular charges:
      ------------------
 
      Mulliken charges per centre and basis function type
      ---------------------------------------------------
 
                            O1                      FE2   
                     alpha        beta       alpha        beta
      1s           1.0000      1.0000      1.0000      1.0000
      2s           0.9923      0.9947      1.0000      1.0000
      2px          0.9796     -0.0000      1.0000      1.0000
      2pz          0.0000      0.9836      1.0000      1.0000
      2py          0.9796      0.0000      1.0000      1.0000
      3s           0.0051      0.0022      0.9999      0.9999
      3px          0.0204     -0.0000      0.9999      0.9997
      3pz         -0.0000      0.0164      0.9999      0.9993
      3py          0.0204     -0.0000      0.9999      0.9997
      4s           0.0000      0.0000      0.0003      0.0001
      3d2+         0.0000      0.0000      1.0000      0.0000
      3d1+         0.0000      0.0000      0.9992      0.9946
      3d0          0.0026      0.0031      0.9994      0.0000
      3d1-         0.0000      0.0000      0.9992      0.9946
      3d2-         0.0000      0.0000      1.0000      0.0000
      4px          0.0000      0.0000      0.0001      0.0002
      4pz          0.0000      0.0000      0.0001      0.0001
      4py          0.0000      0.0000      0.0001      0.0002
      5s           0.0000      0.0000      0.0001      0.0000
      4d2+         0.0000      0.0000      0.0000      0.0000
      4d1+         0.0000      0.0000      0.0007      0.0053
      4d0          0.0000      0.0000      0.0002      0.0000
      4d1-         0.0000      0.0000      0.0007      0.0053
      4d2-         0.0000      0.0000      0.0000      0.0000
      5px          0.0000      0.0000      0.0000      0.0001
      5pz          0.0000      0.0000      0.0000      0.0001
      5py          0.0000      0.0000      0.0000      0.0001
      4f3+         0.0000      0.0000      0.0000      0.0000
      4f2+         0.0000      0.0000      0.0000      0.0000
      4f1+         0.0000      0.0000      0.0001      0.0002
      4f0          0.0000      0.0000      0.0000      0.0004
      4f1-         0.0000      0.0000      0.0001      0.0002
      4f2-         0.0000      0.0000      0.0000      0.0000
      4f3-         0.0000      0.0000      0.0000      0.0000
      Total        4.0000      3.0000     14.0000     11.0000
      Total              7.0000                 25.0000
 
      Charge            1.0000                  1.0000
 
      Total electronic charge=   32.000000
 
      Total            charge=    2.000000
--
 
 
  Input file to MOLDEN was generated!
 
 
++    Static properties:
      ------------------
 
 
      LoProp Charges per center
 

                   O1       FE2   
      Nuclear      8.0000  26.0000
      Electronic  -7.0000 -25.0000
 
      Total        1.0000   1.0000
--
 
 
++    Natural Bond Order analysis
      ---------------------------
      Based on LoProp computed density
      -------------------------------------------------------------------------------------
      Atom A       Atom B       Bond Order
      -------------------------------------------------------------------------------------
      NBO located     19.999 core electrons.
      NBO located      5.992 lone pair electrons.
      NBO located      1.000 non-bonded electrons on atom O1        
      NBO located      1.000 non-bonded electrons on atom O1        
      NBO located      1.000 non-bonded electrons on atom O1        
      The remaining    3.009 electrons are to be considered as diffuse
--
 
 
++    Molecular orbitals:
      -------------------
 
      Title: Natural orbitals

      Molecular orbitals for symmetry species 1: a  
 
          Orbital            1         2         3         4         5         6         7         8         9        10    
          Energy         -263.8530  -32.2523  -21.4389  -27.5465  -27.5640  -27.5639   -4.7537   -3.0390   -3.0501   -3.0502
          Occ. No.          2.0000    2.0000    2.0000    2.0000    2.0000    2.0000    2.0000    1.9998    1.9998    1.9998
 
        1 O1     1s         0.0000   -0.0021    0.9994    0.0194   -0.0000   -0.0000    0.0015    0.0001   -0.0000   -0.0000
        2 O1     2s         0.0000    0.0001   -0.0301   -0.0006    0.0000    0.0000    0.0000    0.0001   -0.0000   -0.0000
        3 O1     3s         0.0000   -0.0000    0.0013    0.0000   -0.0000   -0.0000    0.0001    0.0001   -0.0000   -0.0000
        4 O1     2px       -0.0000   -0.0000   -0.0000   -0.0000    0.0000   -0.0000    0.0000   -0.0000   -0.0000    0.0000
        5 O1     3px        0.0000    0.0000    0.0000    0.0000    0.0000   -0.0000    0.0000   -0.0000   -0.0000    0.0000
        6 O1     2py        0.0000    0.0000    0.0000    0.0000   -0.0000   -0.0000   -0.0000    0.0000    0.0000    0.0000
        7 O1     3py       -0.0000   -0.0000   -0.0000   -0.0000   -0.0000   -0.0000   -0.0000    0.0000    0.0000    0.0000
        8 O1     2pz        0.0000    0.0000    0.0001    0.0000   -0.0000   -0.0000   -0.0000   -0.0000    0.0000    0.0000
        9 O1     3pz        0.0000    0.0000    0.0000    0.0000   -0.0000   -0.0000   -0.0001   -0.0001    0.0000    0.0000
       10 O1     3d2-      -0.0000    0.0000    0.0000    0.0000   -0.0000    0.0000   -0.0000   -0.0000   -0.0000    0.0000
       11 O1     3d1-       0.0000   -0.0000    0.0000    0.0000    0.0000    0.0000    0.0000   -0.0000   -0.0000   -0.0000
       12 O1     3d0       -0.0000   -0.0000   -0.0000   -0.0000    0.0000    0.0000    0.0000    0.0000   -0.0000   -0.0000
       13 O1     3d1+      -0.0000    0.0000   -0.0000   -0.0000   -0.0000    0.0000   -0.0000    0.0000    0.0000   -0.0000
       14 O1     3d2+       0.0000    0.0000    0.0000    0.0000   -0.0000   -0.0000    0.0000    0.0000   -0.0000   -0.0000
       15 FE2    1s         1.0000   -0.0001   -0.0000   -0.0000    0.0000    0.0000    0.0002    0.0000   -0.0000   -0.0000
       16 FE2    2s         0.0001    0.9941    0.0020    0.0009    0.0000    0.0000    0.1081    0.0000    0.0000    0.0000
       17 FE2    3s        -0.0002   -0.1080   -0.0017    0.0030    0.0000    0.0000    0.9941   -0.0015    0.0000    0.0000
       18 FE2    4s        -0.0000   -0.0007   -0.0000   -0.0000    0.0000    0.0000    0.0068    0.0005   -0.0000   -0.0000
       19 FE2    5s         0.0000    0.0005    0.0000    0.0000   -0.0000   -0.0000   -0.0049   -0.0003    0.0000    0.0000
       20 FE2    2px       -0.0000    0.0000    0.0000   -0.0000   -0.6394    0.7661    0.0000   -0.0000   -0.0316    0.0560
       21 FE2    3px        0.0000    0.0000   -0.0000    0.0000    0.0412   -0.0494    0.0000   -0.0000   -0.4901    0.8691
       22 FE2    4px        0.0000   -0.0000   -0.0000    0.0000    0.0002   -0.0002   -0.0000   -0.0000   -0.0027    0.0048
       23 FE2    5px        0.0000   -0.0000    0.0000   -0.0000   -0.0002    0.0003   -0.0000    0.0000    0.0033   -0.0058
       24 FE2    2py        0.0000   -0.0000   -0.0000    0.0001    0.7661    0.6394   -0.0000    0.0000    0.0560    0.0316
       25 FE2    3py       -0.0000   -0.0000    0.0000   -0.0000   -0.0494   -0.0412   -0.0000    0.0001    0.8691    0.4901
       26 FE2    4py       -0.0000    0.0000    0.0000   -0.0000   -0.0002   -0.0002    0.0000    0.0000    0.0048    0.0027
       27 FE2    5py       -0.0000    0.0000   -0.0000    0.0000    0.0003    0.0002    0.0000   -0.0000   -0.0058   -0.0033
       28 FE2    2pz        0.0000   -0.0006   -0.0194    0.9978   -0.0001   -0.0000   -0.0030    0.0638   -0.0000   -0.0000
       29 FE2    3pz       -0.0000   -0.0002    0.0012   -0.0638    0.0000    0.0000    0.0017    0.9978   -0.0001   -0.0000
       30 FE2    4pz       -0.0000   -0.0000    0.0000   -0.0004    0.0000    0.0000    0.0001    0.0082   -0.0000   -0.0000
       31 FE2    5pz       -0.0000    0.0000   -0.0000    0.0003   -0.0000   -0.0000   -0.0001   -0.0078    0.0000    0.0000
       32 FE2    3d2-       0.0000   -0.0000    0.0000    0.0000    0.0000   -0.0000   -0.0000   -0.0000    0.0000   -0.0000
       33 FE2    4d2-       0.0000   -0.0000    0.0000   -0.0000    0.0000   -0.0000   -0.0000   -0.0000    0.0000   -0.0000
       34 FE2    3d1-      -0.0000    0.0000   -0.0000   -0.0000   -0.0001   -0.0001    0.0000    0.0000   -0.0150   -0.0085
       35 FE2    4d1-      -0.0000    0.0000   -0.0000    0.0000   -0.0000   -0.0000    0.0000    0.0000   -0.0006   -0.0004
       36 FE2    3d0       -0.0000   -0.0001   -0.0000   -0.0000    0.0000    0.0000    0.0010    0.0009    0.0000    0.0000
       37 FE2    4d0        0.0000   -0.0000   -0.0000   -0.0000    0.0000    0.0000    0.0024   -0.0000    0.0000    0.0000
       38 FE2    3d1+       0.0000   -0.0000    0.0000    0.0000    0.0001   -0.0001   -0.0000   -0.0000    0.0085   -0.0150
       39 FE2    4d1+       0.0000   -0.0000    0.0000   -0.0000    0.0000   -0.0000   -0.0000   -0.0000    0.0004   -0.0006
       40 FE2    3d2+       0.0000   -0.0000    0.0000    0.0000    0.0000    0.0000   -0.0000   -0.0000    0.0000    0.0000
       41 FE2    4d2+       0.0000   -0.0000    0.0000   -0.0000    0.0000    0.0000   -0.0000   -0.0000    0.0000    0.0000
       42 FE2    4f3-      -0.0000    0.0000    0.0000    0.0000   -0.0000   -0.0000    0.0000   -0.0000   -0.0000   -0.0000
       43 FE2    4f2-       0.0000   -0.0000    0.0000   -0.0000   -0.0000    0.0000   -0.0000    0.0000   -0.0000    0.0000
       44 FE2    4f1-      -0.0000    0.0000   -0.0000    0.0000    0.0001    0.0001    0.0000   -0.0000    0.0021    0.0012
       45 FE2    4f0        0.0000    0.0000   -0.0000    0.0002   -0.0000   -0.0000    0.0000   -0.0115   -0.0000   -0.0000
       46 FE2    4f1+       0.0000   -0.0000    0.0000   -0.0000   -0.0001    0.0001   -0.0000    0.0000   -0.0012    0.0021
       47 FE2    4f2+       0.0000   -0.0000    0.0000   -0.0000   -0.0000   -0.0000   -0.0000    0.0000   -0.0000   -0.0000
       48 FE2    4f3+      -0.0000    0.0000    0.0000    0.0000    0.0000   -0.0000    0.0000   -0.0000    0.0000   -0.0000
 
          Orbital           11        12        13        14        15        16        17        18        19        20    
          Energy           -0.7306   -0.7306   -1.9056   -0.6271   -0.9108   -0.9108   -0.3874   -0.3874   -0.6270    1.4482
          Occ. No.          1.9989    1.9989    1.9940    1.0001    1.0000    1.0000    1.0000    1.0000    0.9999    0.0060
 
        1 O1     1s        -0.0000    0.0000    0.0301    0.0000    0.0000   -0.0000    0.0000   -0.0000   -0.0000    0.0000
        2 O1     2s        -0.0000    0.0000    0.9978    0.0028    0.0000   -0.0000    0.0000   -0.0000   -0.0029    0.0111
        3 O1     3s         0.0000   -0.0000   -0.0591   -0.0017    0.0000   -0.0000    0.0000   -0.0000    0.0016    0.2232
        4 O1     2px       -0.0000   -0.0000    0.0000   -0.0007   -0.8310   -0.5375    0.0000   -0.0000   -0.0007   -0.0000
        5 O1     3px       -0.0001   -0.0000   -0.0000    0.0001    0.1200    0.0776   -0.0000    0.0000    0.0001   -0.0000
        6 O1     2py        0.0000   -0.0000   -0.0000    0.0025    0.5375   -0.8310    0.0000   -0.0000    0.0026    0.0000
        7 O1     3py        0.0000   -0.0001    0.0000   -0.0004   -0.0776    0.1200   -0.0000    0.0000   -0.0004    0.0000
        8 O1     2pz        0.0000   -0.0000   -0.0042    0.7014    0.0001   -0.0001    0.0000   -0.0000   -0.7011    0.0003
        9 O1     3pz        0.0000   -0.0000   -0.0005   -0.0902   -0.0000    0.0000   -0.0000    0.0000    0.0910   -0.0075
       10 O1     3d2-       0.0000    0.0000   -0.0000   -0.0000   -0.0000   -0.0000    0.0000    0.0000   -0.0000   -0.0000
       11 O1     3d1-       0.0000   -0.0000   -0.0000   -0.0000   -0.0007    0.0010   -0.0000    0.0000   -0.0000   -0.0002
       12 O1     3d0        0.0000   -0.0000    0.0022   -0.0006   -0.0000    0.0000   -0.0000    0.0000    0.0005    0.9747
       13 O1     3d1+      -0.0000   -0.0000    0.0000    0.0000    0.0010    0.0007   -0.0000    0.0000    0.0000    0.0000
       14 O1     3d2+       0.0000   -0.0000   -0.0000   -0.0000   -0.0000    0.0000    0.0000   -0.0000   -0.0000   -0.0000
       15 FE2    1s        -0.0000    0.0000   -0.0000   -0.0000    0.0000   -0.0000   -0.0000    0.0000    0.0000   -0.0000
       16 FE2    2s         0.0000   -0.0000    0.0000   -0.0000    0.0000   -0.0000   -0.0000    0.0000   -0.0000   -0.0000
       17 FE2    3s         0.0000   -0.0000   -0.0000   -0.0006    0.0000   -0.0000   -0.0000    0.0000   -0.0006   -0.0000
       18 FE2    4s         0.0000   -0.0000   -0.0001   -0.0117    0.0000   -0.0000   -0.0000    0.0000   -0.0109   -0.0007
       19 FE2    5s        -0.0000    0.0000   -0.0002    0.0049   -0.0000    0.0000    0.0000   -0.0000    0.0062   -0.0020
       20 FE2    2px        0.0010    0.0007    0.0000    0.0000   -0.0000   -0.0000    0.0000    0.0000    0.0000    0.0000
       21 FE2    3px        0.0139    0.0100    0.0000    0.0000    0.0000    0.0000    0.0000    0.0000    0.0000   -0.0000
       22 FE2    4px        0.0074    0.0053    0.0000   -0.0000   -0.0001   -0.0001   -0.0000   -0.0000   -0.0000    0.0000
       23 FE2    5px        0.0003    0.0002   -0.0000   -0.0000   -0.0001   -0.0000   -0.0000   -0.0000   -0.0000    0.0000
       24 FE2    2py       -0.0007    0.0010   -0.0000   -0.0000    0.0000   -0.0000   -0.0000    0.0000   -0.0000   -0.0000
       25 FE2    3py       -0.0100    0.0139   -0.0000   -0.0000   -0.0000    0.0000   -0.0000    0.0000   -0.0000    0.0000
       26 FE2    4py       -0.0053    0.0074   -0.0000    0.0000    0.0001   -0.0001    0.0000   -0.0000    0.0000   -0.0000
       27 FE2    5py       -0.0002    0.0003    0.0000    0.0000    0.0000   -0.0001    0.0000   -0.0000    0.0000   -0.0000
       28 FE2    2pz        0.0000   -0.0000    0.0000   -0.0000    0.0000   -0.0000    0.0000   -0.0000   -0.0000   -0.0000
       29 FE2    3pz        0.0000   -0.0000   -0.0000   -0.0007    0.0000   -0.0000    0.0000   -0.0000   -0.0007    0.0000
       30 FE2    4pz        0.0000   -0.0000   -0.0001    0.0047   -0.0000    0.0000   -0.0000    0.0000    0.0056   -0.0009
       31 FE2    5pz        0.0000   -0.0000   -0.0001   -0.0000   -0.0000    0.0000   -0.0000    0.0000    0.0004   -0.0006
       32 FE2    3d2-       0.0001    0.0000    0.0000   -0.0000    0.0000    0.0000    0.9916    0.1292   -0.0000   -0.0000
       33 FE2    4d2-       0.0000    0.0000    0.0000   -0.0000    0.0000    0.0000    0.0033    0.0004   -0.0000    0.0000
       34 FE2    3d1-      -0.5808    0.8123   -0.0000    0.0001    0.0000   -0.0000    0.0000   -0.0001    0.0001    0.0000
       35 FE2    4d1-      -0.0290    0.0405   -0.0000    0.0000    0.0000   -0.0001    0.0000   -0.0000    0.0000   -0.0000
       36 FE2    3d0        0.0001   -0.0001   -0.0000    0.7068   -0.0028    0.0025   -0.0000    0.0000    0.7070   -0.0002
       37 FE2    4d0        0.0000   -0.0000   -0.0000    0.0106   -0.0000    0.0000    0.0000   -0.0000    0.0109   -0.0003
       38 FE2    3d1+       0.8123    0.5808    0.0000   -0.0000   -0.0000   -0.0000   -0.0001   -0.0000   -0.0000   -0.0000
       39 FE2    4d1+       0.0405    0.0290    0.0000   -0.0000   -0.0001   -0.0000   -0.0000   -0.0000   -0.0000    0.0000
       40 FE2    3d2+       0.0000   -0.0001    0.0000   -0.0000   -0.0000    0.0000    0.1292   -0.9916   -0.0000   -0.0000
       41 FE2    4d2+       0.0000   -0.0000    0.0000   -0.0000    0.0000    0.0000    0.0004   -0.0033   -0.0000    0.0000
       42 FE2    4f3-      -0.0000   -0.0000    0.0000    0.0000   -0.0000    0.0000   -0.0000   -0.0000    0.0000    0.0000
       43 FE2    4f2-       0.0000    0.0000   -0.0000   -0.0000   -0.0000    0.0000    0.0004    0.0001   -0.0000   -0.0000
       44 FE2    4f1-      -0.0004    0.0005    0.0000    0.0000    0.0000   -0.0000    0.0000   -0.0000    0.0000    0.0000
       45 FE2    4f0        0.0000   -0.0000    0.0000    0.0004   -0.0000    0.0000   -0.0000    0.0000    0.0004    0.0000
       46 FE2    4f1+       0.0005    0.0004   -0.0000   -0.0000   -0.0000   -0.0000   -0.0000   -0.0000   -0.0000   -0.0000
       47 FE2    4f2+       0.0000   -0.0000   -0.0000   -0.0000   -0.0000    0.0000    0.0001   -0.0004   -0.0000   -0.0000
       48 FE2    4f3+      -0.0000    0.0000    0.0000    0.0000   -0.0000    0.0000   -0.0000    0.0000    0.0000    0.0000
 
          Orbital           21        22        23        24        25        26        27        28        29        30    
          Energy            0.7160    0.7160    3.5363    3.5363    3.4866    0.5511    2.0101    2.0101    2.0455    0.4478
          Occ. No.          0.0011    0.0011    0.0002    0.0002    0.0002    0.0000    0.0000    0.0000    0.0000    0.0000
 
        1 O1     1s         0.0000    0.0000   -0.0000   -0.0000   -0.0000    0.0002    0.0000    0.0000   -0.0004   -0.0005
        2 O1     2s         0.0000    0.0000   -0.0000   -0.0000   -0.0005    0.0024    0.0000    0.0000   -0.0054   -0.0584
        3 O1     3s        -0.0000   -0.0000   -0.0000   -0.0000   -0.0008    0.0053    0.0000    0.0000   -0.0190   -0.9711
        4 O1     2px       -0.0000    0.0001   -0.0000    0.0001    0.0000   -0.0000    0.0006   -0.0008    0.0000   -0.0000
        5 O1     3px       -0.0002    0.0008   -0.0001    0.0003    0.0000   -0.0000    0.0033   -0.0042    0.0000   -0.0000
        6 O1     2py        0.0001    0.0000    0.0001    0.0000   -0.0000    0.0000   -0.0008   -0.0006   -0.0000    0.0000
        7 O1     3py        0.0008    0.0002    0.0003    0.0001   -0.0000    0.0000   -0.0042   -0.0033   -0.0000    0.0000
        8 O1     2pz       -0.0000   -0.0000    0.0000    0.0000    0.0004   -0.0042   -0.0000   -0.0000    0.0070   -0.0076
        9 O1     3pz        0.0000    0.0000    0.0000    0.0000    0.0015   -0.0193   -0.0000   -0.0000    0.0332   -0.0469
       10 O1     3d2-      -0.0000    0.0000   -0.0000    0.0000    0.0000   -0.0000   -0.0000    0.0000   -0.0000   -0.0000
       11 O1     3d1-      -0.0000   -0.0000   -0.0000   -0.0000    0.0000   -0.0000    0.0004    0.0003   -0.0000   -0.0000
       12 O1     3d0        0.0000    0.0000   -0.0000   -0.0000   -0.0003    0.0014    0.0000    0.0000    0.0004    0.2222
       13 O1     3d1+       0.0000   -0.0000    0.0000   -0.0000   -0.0000    0.0000   -0.0003    0.0004    0.0000    0.0000
       14 O1     3d2+      -0.0000   -0.0000   -0.0000   -0.0000    0.0000   -0.0000   -0.0000   -0.0000   -0.0000   -0.0000
       15 FE2    1s        -0.0000   -0.0000    0.0000    0.0000    0.0000    0.0000   -0.0000   -0.0000    0.0000   -0.0000
       16 FE2    2s        -0.0000   -0.0000   -0.0000   -0.0000   -0.0000    0.0002    0.0000    0.0000   -0.0000    0.0000
       17 FE2    3s         0.0000    0.0000   -0.0000   -0.0000    0.0000   -0.0020   -0.0000   -0.0000    0.0001    0.0002
       18 FE2    4s        -0.0001   -0.0000    0.0000    0.0000   -0.0029    0.3440   -0.0000   -0.0000   -0.0017    0.0072
       19 FE2    5s         0.0000    0.0000   -0.0000   -0.0000    0.0010   -0.3344   -0.0000   -0.0000    0.0082    0.0551
       20 FE2    2px       -0.0000    0.0000    0.0001   -0.0003   -0.0000    0.0000   -0.0000    0.0000   -0.0000   -0.0000
       21 FE2    3px        0.0002   -0.0006    0.0024   -0.0043   -0.0000   -0.0000   -0.0042    0.0054   -0.0000    0.0000
       22 FE2    4px       -0.0265    0.0923   -0.1025    0.1849    0.0000   -0.0000    0.1299   -0.1683    0.0000   -0.0000
       23 FE2    5px       -0.0018    0.0063    0.1028   -0.1853   -0.0000   -0.0000   -0.5759    0.7462   -0.0000    0.0000
       24 FE2    2py        0.0000    0.0000   -0.0003   -0.0001    0.0000   -0.0000    0.0000    0.0000    0.0000    0.0000
       25 FE2    3py       -0.0006   -0.0002   -0.0043   -0.0024    0.0000    0.0000    0.0054    0.0042    0.0000   -0.0000
       26 FE2    4py        0.0923    0.0265    0.1849    0.1025   -0.0000    0.0000   -0.1683   -0.1299   -0.0000    0.0000
       27 FE2    5py        0.0063    0.0018   -0.1853   -0.1028    0.0000    0.0000    0.7462    0.5759    0.0001   -0.0000
       28 FE2    2pz        0.0000    0.0000    0.0000    0.0000    0.0006   -0.0000    0.0000    0.0000    0.0000    0.0000
       29 FE2    3pz        0.0000    0.0000    0.0000    0.0000    0.0145   -0.0000   -0.0000   -0.0000    0.0055   -0.0001
       30 FE2    4pz       -0.0000   -0.0000   -0.0000   -0.0000   -0.2475   -0.0205    0.0000    0.0000   -0.0988    0.0188
       31 FE2    5pz       -0.0000   -0.0000    0.0000    0.0000    0.2116   -0.0007   -0.0001   -0.0000    0.9658   -0.0049
       32 FE2    3d2-       0.0000   -0.0000   -0.0000    0.0000   -0.0000   -0.0000    0.0000   -0.0000   -0.0000   -0.0000
       33 FE2    4d2-      -0.0000    0.0001    0.0000   -0.0000    0.0000    0.0000   -0.0000    0.0000    0.0000    0.0000
       34 FE2    3d1-      -0.0485   -0.0140   -0.0009   -0.0005    0.0000    0.0000    0.0006    0.0004    0.0000    0.0000
       35 FE2    4d1-       0.9553    0.2748   -0.0243   -0.0135   -0.0000   -0.0001    0.0095    0.0074   -0.0000   -0.0000
       36 FE2    3d0        0.0000    0.0000    0.0000    0.0000    0.0009    0.0216   -0.0000   -0.0000    0.0007    0.0000
       37 FE2    4d0       -0.0002   -0.0000    0.0000    0.0000    0.0138   -0.8773   -0.0000   -0.0000   -0.0035   -0.0166
       38 FE2    3d1+       0.0140   -0.0485    0.0005   -0.0009   -0.0000   -0.0000   -0.0004    0.0006   -0.0000   -0.0000
       39 FE2    4d1+      -0.2748    0.9553    0.0135   -0.0243    0.0000    0.0000   -0.0074    0.0095    0.0000    0.0000
       40 FE2    3d2+       0.0000    0.0000   -0.0000   -0.0000   -0.0000   -0.0000    0.0000    0.0000   -0.0000   -0.0000
       41 FE2    4d2+      -0.0001   -0.0000    0.0000    0.0000    0.0000    0.0000   -0.0000   -0.0000    0.0000    0.0000
       42 FE2    4f3-      -0.0000   -0.0000   -0.0000   -0.0000    0.0000    0.0000   -0.0000   -0.0000   -0.0000    0.0000
       43 FE2    4f2-      -0.0000    0.0000   -0.0001    0.0001   -0.0000    0.0000   -0.0000    0.0000    0.0000   -0.0000
       44 FE2    4f1-       0.0087    0.0025    0.8341    0.4624    0.0002   -0.0000    0.2034    0.1570   -0.0001    0.0000
       45 FE2    4f0       -0.0000   -0.0000   -0.0002   -0.0000    0.9453    0.0089   -0.0001   -0.0000   -0.2420    0.0066
       46 FE2    4f1+      -0.0025    0.0087   -0.4624    0.8341   -0.0000    0.0000   -0.1570    0.2034    0.0000   -0.0000
       47 FE2    4f2+      -0.0000   -0.0000   -0.0001   -0.0001   -0.0000    0.0000   -0.0000   -0.0000    0.0000   -0.0000
       48 FE2    4f3+       0.0000   -0.0000    0.0000   -0.0000    0.0000    0.0000    0.0000   -0.0000   -0.0000    0.0000
 
          Orbital           31        32        33        34        35        36        37        38        39        40    
          Energy            0.0846   -0.2231   -0.0057   -0.0057    0.0559    0.1023    0.1086    0.1086    0.7485    0.7512
          Occ. No.          0.0000    0.0000    0.0000    0.0000    0.0000    0.0000    0.0000    0.0000    0.0000    0.0000
 
        1 O1     1s        -0.0003    0.0004   -0.0000    0.0000    0.0001    0.0001    0.0000   -0.0000   -0.0000    0.0000
        2 O1     2s        -0.0018    0.0039   -0.0000   -0.0000    0.0003    0.0027    0.0000   -0.0000   -0.0000    0.0000
        3 O1     3s         0.0306   -0.0249    0.0000   -0.0000   -0.0355    0.0332    0.0000   -0.0000   -0.0000    0.0000
        4 O1     2px       -0.0000    0.0000    0.0001   -0.0003    0.0000    0.0000   -0.1382    0.0363   -0.0000    0.0001
        5 O1     3px        0.0000    0.0000    0.0010   -0.0037    0.0000    0.0000   -0.9573    0.2515    0.0000    0.0009
        6 O1     2py        0.0000   -0.0000   -0.0003   -0.0001   -0.0000    0.0000   -0.0363   -0.1382   -0.0002   -0.0001
        7 O1     3py       -0.0000   -0.0000   -0.0036   -0.0010   -0.0000    0.0000   -0.2515   -0.9573   -0.0012   -0.0008
        8 O1     2pz        0.0077   -0.0070   -0.0000    0.0000    0.0706   -0.1070   -0.0000   -0.0000    0.0000   -0.0000
        9 O1     3pz        0.0374   -0.0194   -0.0000    0.0000    0.5581   -0.8204   -0.0000   -0.0000    0.0000   -0.0000
       10 O1     3d2-       0.0000   -0.0000    0.0000   -0.0000   -0.0000    0.0000    0.0001    0.0000    0.0081   -0.0320
       11 O1     3d1-       0.0000   -0.0000    0.0000   -0.0000    0.0000    0.0003    0.0007   -0.0011    0.0056   -0.0093
       12 O1     3d0       -0.0099    0.0109   -0.0000    0.0000    0.0140   -0.0123   -0.0000    0.0000    0.0000   -0.0000
       13 O1     3d1+      -0.0000    0.0000   -0.0000   -0.0000   -0.0000   -0.0001    0.0012    0.0017   -0.0048    0.0093
       14 O1     3d2+       0.0000   -0.0000    0.0000   -0.0000   -0.0000    0.0000   -0.0001    0.0001   -0.0331   -0.0088
       15 FE2    1s        -0.0000    0.0000   -0.0000    0.0000    0.0000   -0.0000   -0.0000   -0.0000    0.0000   -0.0000
       16 FE2    2s         0.0001    0.0000    0.0000    0.0000    0.0000   -0.0000   -0.0000   -0.0000    0.0000   -0.0000
       17 FE2    3s         0.0083    0.0023    0.0000   -0.0000   -0.0001   -0.0003   -0.0000   -0.0000    0.0000   -0.0000
       18 FE2    4s        -0.5305   -0.7710   -0.0000    0.0000    0.0767    0.0115    0.0000    0.0000    0.0000    0.0000
       19 FE2    5s         0.7012   -0.6293   -0.0000    0.0000    0.0388    0.0056    0.0000    0.0000    0.0000    0.0000
       20 FE2    2px        0.0000    0.0000    0.0000   -0.0000    0.0000    0.0000    0.0000   -0.0000   -0.0000   -0.0000
       21 FE2    3px       -0.0000    0.0000   -0.0009    0.0032   -0.0000   -0.0000   -0.0000    0.0000    0.0000    0.0000
       22 FE2    4px        0.0000   -0.0000    0.2512   -0.9152    0.0000    0.0000    0.0089   -0.0023   -0.0001   -0.0001
       23 FE2    5px        0.0000   -0.0000    0.0682   -0.2486    0.0000    0.0000    0.0024   -0.0006   -0.0000   -0.0000
       24 FE2    2py       -0.0000   -0.0000   -0.0000   -0.0000   -0.0000   -0.0000    0.0000    0.0000    0.0000    0.0000
       25 FE2    3py        0.0000   -0.0000    0.0032    0.0009    0.0000    0.0000   -0.0000   -0.0000    0.0000    0.0000
       26 FE2    4py       -0.0000    0.0000   -0.9152   -0.2512   -0.0001   -0.0001    0.0023    0.0088   -0.0000   -0.0000
       27 FE2    5py       -0.0000    0.0000   -0.2486   -0.0682   -0.0000   -0.0000    0.0006    0.0024   -0.0000   -0.0000
       28 FE2    2pz       -0.0000   -0.0000    0.0000   -0.0000   -0.0001   -0.0001   -0.0000    0.0000    0.0000   -0.0000
       29 FE2    3pz        0.0006    0.0005   -0.0000    0.0000    0.0035    0.0022    0.0000   -0.0000   -0.0000    0.0000
       30 FE2    4pz       -0.0275   -0.0755    0.0001   -0.0000   -0.7756   -0.5665   -0.0000    0.0000    0.0000   -0.0000
       31 FE2    5pz       -0.0102   -0.0111    0.0000   -0.0000   -0.1245   -0.0908   -0.0000    0.0000    0.0000   -0.0000
       32 FE2    3d2-      -0.0000   -0.0000    0.0000   -0.0000   -0.0000    0.0000    0.0000   -0.0000   -0.0008    0.0033
       33 FE2    4d2-       0.0000    0.0000   -0.0000    0.0001   -0.0000   -0.0000   -0.0008    0.0007    0.2507   -0.9666
       34 FE2    3d1-       0.0000    0.0000    0.0038    0.0010    0.0000    0.0000    0.0001    0.0003    0.0000    0.0000
       35 FE2    4d1-      -0.0001   -0.0001    0.0889    0.0244   -0.0000   -0.0000    0.0010    0.0038   -0.0001   -0.0000
       36 FE2    3d0       -0.0065   -0.0060   -0.0000    0.0000    0.0075    0.0024    0.0000   -0.0000   -0.0000    0.0000
       37 FE2    4d0       -0.4740   -0.0625   -0.0000    0.0000    0.0365    0.0066    0.0000   -0.0000   -0.0000    0.0000
       38 FE2    3d1+      -0.0000   -0.0000   -0.0010    0.0038   -0.0000   -0.0000    0.0003   -0.0001    0.0000    0.0000
       39 FE2    4d1+       0.0000    0.0000   -0.0244    0.0889   -0.0000    0.0000    0.0038   -0.0010   -0.0000    0.0001
       40 FE2    3d2+      -0.0000    0.0000    0.0000   -0.0000    0.0000   -0.0000   -0.0000   -0.0000    0.0033    0.0008
       41 FE2    4d2+       0.0000    0.0000   -0.0000    0.0002   -0.0000   -0.0000    0.0001    0.0014   -0.9672   -0.2513
       42 FE2    4f3-      -0.0000   -0.0000    0.0000   -0.0000   -0.0000   -0.0000   -0.0001    0.0002    0.0126   -0.0234
       43 FE2    4f2-      -0.0000    0.0000   -0.0000    0.0000    0.0000   -0.0000   -0.0000    0.0000   -0.0005   -0.0015
       44 FE2    4f1-       0.0000   -0.0000    0.1503    0.0412   -0.0000   -0.0000   -0.0004   -0.0015    0.0000    0.0000
       45 FE2    4f0       -0.0003   -0.0181   -0.0000   -0.0000   -0.1755   -0.1284   -0.0000    0.0000    0.0000    0.0000
[...]
   36 FE2    3d0       -0.0011   -0.0000   -0.0000    0.0000    0.0683    0.0011    0.0002   -0.0000    0.0000   -0.0000
   37 FE2    4d0       -0.0037   -0.0000   -0.0000    0.0000    0.9975   -0.0218    0.0005   -0.0000    0.0000   -0.0132
   38 FE2    3d1+       0.0000    0.0266   -0.0602    0.0000   -0.0000   -0.0000   -0.0000   -0.0001   -0.0000   -0.0000
   39 FE2    4d1+       0.0000    0.4041   -0.9124    0.0000   -0.0000    0.0000   -0.0000   -0.0003   -0.0001    0.0000
   40 FE2    3d2+      -0.0000   -0.0000   -0.0000    0.0145   -0.0000    0.0000    0.0000    0.0000   -0.0000    0.0000
   41 FE2    4d2+      -0.0000   -0.0000   -0.0000    0.6719   -0.0000   -0.0000    0.0000    0.0000   -0.0000   -0.0000
   42 FE2    4f3-       0.0000   -0.0000    0.0000   -0.0000   -0.0000    0.0000   -0.0000   -0.0006   -0.0002    0.0000
   43 FE2    4f2-       0.0000    0.0000   -0.0000   -0.0000    0.0000    0.0000    0.0000    0.0000   -0.0000    0.0000
   44 FE2    4f1-      -0.0000    0.0001    0.0000    0.0000    0.0000   -0.0000   -0.0000   -0.0000    0.0000   -0.0000
   45 FE2    4f0       -0.0001    0.0000   -0.0000   -0.0000   -0.0001    0.0000    0.0003   -0.0000    0.0000   -0.0000
   46 FE2    4f1+      -0.0000   -0.0000    0.0001   -0.0000   -0.0000   -0.0000   -0.0000   -0.0000   -0.0000   -0.0000
   47 FE2    4f2+       0.0000    0.0000    0.0000   -0.0000    0.0000    0.0000    0.0000   -0.0000   -0.0000    0.0000
   48 FE2    4f3+      -0.0000    0.0000    0.0000    0.0000   -0.0000    0.0000   -0.0000   -0.0002    0.0006    0.0000
 
 
      Orbital               31        32        33        34        35        36        37        38        39        40
      Energy            0.4230    0.4230    0.6912    1.4880    1.5126    1.5126    1.9502    1.9502    1.9566    1.9566
      Occ. No.          0.0000    0.0000    0.0000    0.0000    0.0000    0.0000    0.0000    0.0000    0.0000    0.0000
 
    1 O1     1s         0.0000    0.0000    0.0005   -0.0004   -0.0000   -0.0000    0.0000   -0.0000    0.0000    0.0000
    2 O1     2s         0.0000   -0.0000    0.0073   -0.0052   -0.0000   -0.0000    0.0000    0.0000    0.0000    0.0000
    3 O1     3s         0.0000    0.0000    0.8545   -0.0042   -0.0000   -0.0000   -0.0000    0.0000   -0.0000   -0.0000
    4 O1     2px        0.0428    0.0190   -0.0000    0.0000   -0.0012    0.0005    0.0000    0.0000    0.0032   -0.0014
    5 O1     3px        0.9134    0.4044    0.0000    0.0000   -0.0092    0.0041   -0.0000   -0.0000    0.0016   -0.0007
    6 O1     2py        0.0190   -0.0428    0.0000    0.0000   -0.0005   -0.0012    0.0000   -0.0000    0.0014    0.0032
    7 O1     3py        0.4044   -0.9134    0.0000    0.0000   -0.0041   -0.0092   -0.0000    0.0000    0.0007    0.0016
    8 O1     2pz       -0.0000    0.0000   -0.0056    0.0074    0.0000    0.0000   -0.0000    0.0000   -0.0000   -0.0000
    9 O1     3pz       -0.0000   -0.0000    0.5195    0.0309    0.0000    0.0000    0.0000   -0.0000    0.0000    0.0000
   10 O1     3d2-      -0.0000   -0.0000    0.0000   -0.0000    0.0000   -0.0000   -0.6720   -0.7405    0.0000    0.0000
   11 O1     3d1-      -0.0008    0.0018    0.0000    0.0000   -0.0008   -0.0019    0.0000    0.0000    0.4057    0.9140
   12 O1     3d0        0.0000   -0.0000   -0.0059    0.0098    0.0000    0.0000   -0.0000    0.0000   -0.0000   -0.0000
   13 O1     3d1+      -0.0018   -0.0008   -0.0000    0.0000   -0.0019    0.0008   -0.0000    0.0000    0.9140   -0.4057
   14 O1     3d2+       0.0000   -0.0000    0.0000   -0.0000   -0.0000   -0.0000    0.7405   -0.6720    0.0000   -0.0000
   15 FE2    1s         0.0000    0.0000    0.0000    0.0000    0.0000   -0.0000    0.0000    0.0000   -0.0000   -0.0000
   16 FE2    2s         0.0000   -0.0000    0.0000    0.0000    0.0000    0.0000    0.0000    0.0000   -0.0000    0.0000
   17 FE2    3s        -0.0000    0.0000    0.0002    0.0000   -0.0000    0.0000   -0.0000    0.0000   -0.0000    0.0000
   18 FE2    4s        -0.0000   -0.0000    0.0054    0.0010    0.0000    0.0000   -0.0000   -0.0000    0.0000    0.0000
   19 FE2    5s        -0.0000    0.0000    0.0090    0.0028    0.0000    0.0000    0.0000   -0.0000    0.0000    0.0000
   20 FE2    2px       -0.0000   -0.0000    0.0000    0.0000   -0.0000    0.0000    0.0000   -0.0000   -0.0000    0.0000
   21 FE2    3px       -0.0000   -0.0000   -0.0000    0.0000   -0.0012    0.0005    0.0000    0.0000   -0.0000    0.0000
   22 FE2    4px       -0.0043   -0.0019   -0.0000    0.0000   -0.0752    0.0333   -0.0000   -0.0000    0.0001   -0.0000
   23 FE2    5px        0.0032    0.0014    0.0000   -0.0000    0.9112   -0.4036    0.0000    0.0000    0.0024   -0.0011
   24 FE2    2py       -0.0000    0.0000    0.0000    0.0000   -0.0000   -0.0000   -0.0000    0.0000   -0.0000   -0.0000
   25 FE2    3py       -0.0000    0.0000   -0.0000    0.0000   -0.0005   -0.0012    0.0000    0.0000   -0.0000   -0.0000
   26 FE2    4py       -0.0019    0.0043    0.0000    0.0000   -0.0333   -0.0752   -0.0000    0.0000    0.0000    0.0001
   27 FE2    5py        0.0014   -0.0032    0.0000   -0.0000    0.4036    0.9112    0.0000    0.0000    0.0011    0.0024
   28 FE2    2pz       -0.0000   -0.0000    0.0000   -0.0001   -0.0000   -0.0000   -0.0000    0.0000    0.0000    0.0000
   29 FE2    3pz        0.0000   -0.0000    0.0002   -0.0027   -0.0000   -0.0000   -0.0000    0.0000   -0.0000   -0.0000
   30 FE2    4pz       -0.0000   -0.0000    0.0079   -0.0780   -0.0000   -0.0000   -0.0000   -0.0000    0.0000    0.0000
   31 FE2    5pz        0.0000    0.0000   -0.0038    0.9976    0.0000    0.0000    0.0000   -0.0000    0.0000    0.0000
   32 FE2    3d2-      -0.0000   -0.0000    0.0000    0.0000   -0.0000    0.0000    0.0000    0.0000   -0.0000    0.0000
   33 FE2    4d2-      -0.0000   -0.0000    0.0000   -0.0000   -0.0000    0.0000    0.0000    0.0000   -0.0000    0.0000
   34 FE2    3d1-      -0.0001    0.0001    0.0000    0.0000   -0.0000   -0.0000    0.0000   -0.0000    0.0000    0.0000
   35 FE2    4d1-      -0.0000    0.0001    0.0000   -0.0000    0.0000    0.0000    0.0000   -0.0000    0.0002    0.0004
   36 FE2    3d0       -0.0000   -0.0000    0.0006    0.0000    0.0000    0.0000   -0.0000    0.0000    0.0000    0.0000
   37 FE2    4d0       -0.0000   -0.0000    0.0020    0.0003    0.0000    0.0000    0.0000    0.0000    0.0000    0.0000
   38 FE2    3d1+      -0.0001   -0.0001   -0.0000    0.0000   -0.0000    0.0000    0.0000   -0.0000    0.0000   -0.0000
   39 FE2    4d1+      -0.0001   -0.0000   -0.0000   -0.0000    0.0000   -0.0000    0.0000   -0.0000    0.0004   -0.0002
   40 FE2    3d2+      -0.0000   -0.0000    0.0000    0.0000   -0.0000   -0.0000   -0.0000    0.0000   -0.0000    0.0000
   41 FE2    4d2+       0.0000   -0.0000    0.0000   -0.0000   -0.0000    0.0000   -0.0000    0.0000    0.0000    0.0000
   42 FE2    4f3-      -0.0000   -0.0000    0.0000    0.0000   -0.0004    0.0001    0.0000    0.0000   -0.0000    0.0000
   43 FE2    4f2-       0.0000   -0.0000    0.0000   -0.0000    0.0000   -0.0000   -0.0000   -0.0000    0.0000   -0.0000
   44 FE2    4f1-       0.0000   -0.0001   -0.0000    0.0000   -0.0007   -0.0016    0.0000    0.0000   -0.0000   -0.0000
   45 FE2    4f0        0.0000   -0.0000   -0.0001   -0.0023   -0.0000   -0.0000    0.0000    0.0000   -0.0000   -0.0000
   46 FE2    4f1+       0.0001    0.0000   -0.0000    0.0000   -0.0016    0.0007    0.0000   -0.0000   -0.0000    0.0000
   47 FE2    4f2+      -0.0000    0.0000    0.0000   -0.0000   -0.0000   -0.0000    0.0000   -0.0000   -0.0000   -0.0000
   48 FE2    4f3+      -0.0000    0.0000    0.0000    0.0000   -0.0001   -0.0004   -0.0000   -0.0000   -0.0000   -0.0000
 
 
      Orbital               41        42        43        44        45        46        47        48
      Energy            1.9569    3.2863    3.2863    3.2864    3.2895    3.3038    3.3038    3.3070
      Occ. No.          0.0000    0.0000    0.0000    0.0000    0.0000    0.0000    0.0000    0.0000
 
    1 O1     1s         0.0003   -0.0000    0.0000   -0.0000   -0.0000    0.0000   -0.0000    0.0000
    2 O1     2s         0.0030   -0.0000    0.0000   -0.0000   -0.0000   -0.0000    0.0000    0.0000
    3 O1     3s        -0.0237    0.0000   -0.0000    0.0000    0.0001    0.0000   -0.0000   -0.0000
    4 O1     2px       -0.0000   -0.0000   -0.0000    0.0000   -0.0000   -0.0000   -0.0000    0.0000
    5 O1     3px       -0.0000   -0.0002   -0.0001    0.0000    0.0000   -0.0001   -0.0001    0.0000
    6 O1     2py       -0.0000   -0.0000    0.0000   -0.0000    0.0000   -0.0000    0.0000    0.0000
    7 O1     3py       -0.0000   -0.0001    0.0002   -0.0000    0.0000   -0.0001    0.0001    0.0000
    8 O1     2pz       -0.0048    0.0000   -0.0000    0.0000    0.0001    0.0000   -0.0000    0.0000
    9 O1     3pz        0.0280    0.0000   -0.0000    0.0000    0.0007    0.0000   -0.0000    0.0000
   10 O1     3d2-      -0.0000   -0.0000   -0.0000    0.0000   -0.0000    0.0000    0.0000    0.0000
   11 O1     3d1-      -0.0000    0.0000   -0.0000    0.0000    0.0000    0.0000   -0.0000   -0.0000
   12 O1     3d0       -0.9993   -0.0000    0.0000   -0.0000   -0.0001   -0.0000    0.0000    0.0000
   13 O1     3d1+      -0.0000    0.0000    0.0000   -0.0000    0.0000    0.0000    0.0000   -0.0000
   14 O1     3d2+      -0.0000   -0.0000    0.0000    0.0000   -0.0000   -0.0000    0.0000   -0.0000
   15 FE2    1s         0.0000    0.0000   -0.0000    0.0000    0.0000    0.0000   -0.0000    0.0000
   16 FE2    2s         0.0000    0.0000   -0.0000    0.0000    0.0000   -0.0000    0.0000   -0.0000
   17 FE2    3s         0.0000   -0.0000    0.0000    0.0000    0.0000    0.0000   -0.0000    0.0000
   18 FE2    4s         0.0014    0.0000   -0.0000    0.0000    0.0000    0.0000   -0.0000   -0.0000
   19 FE2    5s         0.0051    0.0000   -0.0000    0.0000    0.0001    0.0000   -0.0000    0.0000
   20 FE2    2px        0.0000    0.0002    0.0001    0.0000    0.0000   -0.0003   -0.0001   -0.0000
   21 FE2    3px        0.0000    0.0012    0.0005   -0.0000    0.0000   -0.0055   -0.0025   -0.0000
   22 FE2    4px       -0.0000    0.0002    0.0001   -0.0000    0.0000   -0.0006   -0.0002   -0.0000
   23 FE2    5px       -0.0000    0.0012    0.0005   -0.0000   -0.0000    0.0011    0.0005    0.0000
   24 FE2    2py        0.0000    0.0001   -0.0002   -0.0000    0.0000   -0.0001    0.0003   -0.0000
   25 FE2    3py        0.0000    0.0005   -0.0012   -0.0000    0.0000   -0.0025    0.0055   -0.0000
   26 FE2    4py       -0.0000    0.0001   -0.0002    0.0000    0.0000   -0.0002    0.0006   -0.0000
   27 FE2    5py       -0.0000    0.0005   -0.0012   -0.0000   -0.0000    0.0005   -0.0011    0.0000
   28 FE2    2pz       -0.0000    0.0000   -0.0000    0.0000   -0.0001   -0.0000    0.0000   -0.0000
   29 FE2    3pz       -0.0000    0.0000   -0.0000   -0.0000   -0.0046   -0.0000    0.0000   -0.0000
   30 FE2    4pz        0.0011    0.0000   -0.0000   -0.0000   -0.0004   -0.0000    0.0000   -0.0000
   31 FE2    5pz        0.0121    0.0000   -0.0000    0.0000    0.0023    0.0000   -0.0000    0.0000
   32 FE2    3d2-      -0.0000   -0.0000   -0.0000   -0.0000    0.0000   -0.0000    0.0000   -0.0000
   33 FE2    4d2-      -0.0000   -0.0000   -0.0000   -0.0000    0.0000   -0.0000    0.0000   -0.0000
   34 FE2    3d1-      -0.0000    0.0000   -0.0000    0.0000   -0.0000    0.0000   -0.0000   -0.0000
   35 FE2    4d1-      -0.0000    0.0000   -0.0000    0.0000   -0.0000    0.0000   -0.0000   -0.0000
   36 FE2    3d0        0.0002    0.0000   -0.0000    0.0000    0.0000    0.0000   -0.0000    0.0000
   37 FE2    4d0        0.0017    0.0000   -0.0000    0.0000    0.0001    0.0000   -0.0000   -0.0000
   38 FE2    3d1+      -0.0000    0.0000    0.0000   -0.0000   -0.0000    0.0000    0.0000   -0.0000
   39 FE2    4d1+      -0.0000    0.0000    0.0000   -0.0000   -0.0000    0.0000    0.0000   -0.0000
   40 FE2    3d2+      -0.0000   -0.0000   -0.0000   -0.0000    0.0000    0.0000   -0.0000    0.0000
   41 FE2    4d2+      -0.0000   -0.0000   -0.0000   -0.0000    0.0000    0.0000   -0.0000    0.0000
   42 FE2    4f3-      -0.0000   -0.5281   -0.1750    0.0000   -0.0000    0.7888    0.2614   -0.0000
   43 FE2    4f2-      -0.0000   -0.0000   -0.0000   -0.7405    0.0001   -0.0000    0.0000   -0.6720
   44 FE2    4f1-       0.0000    0.3365   -0.7598    0.0000   -0.0000    0.2253   -0.5087   -0.0000
   45 FE2    4f0       -0.0001    0.0000   -0.0000    0.0001    1.0000    0.0000   -0.0000    0.0000
   46 FE2    4f1+       0.0000    0.7598    0.3365   -0.0000   -0.0000    0.5086    0.2253   -0.0000
   47 FE2    4f2+      -0.0000   -0.0000   -0.0000   -0.6720    0.0001    0.0000   -0.0000    0.7405
   48 FE2    4f3+      -0.0000   -0.1750    0.5281   -0.0000   -0.0000    0.2614   -0.7887   -0.0000
--
 
      Von Neumann Entropy (Root  1) =  3.19939
 

      Mulliken population analysis for root number:  1
      -----------------------------------------------
 
 
++    Molecular charges:
      ------------------
 
      Mulliken charges per centre and basis function type
      ---------------------------------------------------
 
                O1      FE2   
      1s       2.0000  2.0000
      2s       1.9975  2.0000
      2px      0.9978  2.0000
      2pz      1.9891  2.0000
      2py      0.9978  2.0000
      3s       0.0033  2.0000
      3px      0.0022  1.9999
      3pz      0.0100  1.9998
      3py      0.0022  1.9999
      4s       0.0000  0.0000
      3d2+    -0.0000  1.4399
      3d1+     0.0000  0.9913
      3d0      0.0001  0.9911
      3d1-     0.0000  0.9913
      3d2-    -0.0000  1.5359
      4px      0.0000  0.0000
      4pz      0.0000  0.0001
      4py      0.0000  0.0000
      5s       0.0000 -0.0000
      4d2+     0.0000  0.0114
      4d1+     0.0000  0.0090
      4d0      0.0000  0.0092
      4d1-     0.0000  0.0090
      4d2-     0.0000  0.0120
      5px      0.0000  0.0000
      5pz      0.0000  0.0000
      5py      0.0000  0.0000
      4f3+     0.0000  0.0001
      4f2+     0.0000  0.0000
      4f1+     0.0000  0.0000
      4f0      0.0000  0.0000
      4f1-     0.0000  0.0000
      4f2-     0.0000  0.0000
      4f3-     0.0000  0.0001
      Total    8.0000 24.0000
 
      N-E     -0.0000  2.0000
 
      Total electronic charge=   32.000000
 
      Total            charge=    2.000000
--
 
 

      Expectation values of various properties for root number:  1
      -----------------------------------------------------------
 
 
++    Molecular properties:
      ---------------------
 
      Charge (e):
                      =    2.0000
      Dipole Moment (Debye):
      Origin of the operator (Ang)=    0.0000    0.0000    0.0000
                   X= -7.0711E-13               Y=  4.1195E-12               Z= -2.4798E+01           Total=  2.4798E+01
      Center of Charge (Ang)
                     X=   -0.00000000               Y=    0.00000000               Z=   -2.58140371
      Quadrupole Moment (Debye*Ang):
      Origin of the operator (Ang)=    0.0000    0.0000   -1.0846
                  XX= -1.2419E+01              XY=  2.0385E-05              XZ= -2.7853E-11              YY= -1.2419E+01
                  YZ= -6.7040E-10              ZZ=  9.9957E+00
      In traceless form (Debye*Ang)
                  XX= -1.1207E+01              XY=  3.0578E-05              XZ= -4.1780E-11              YY= -1.1207E+01
                  YZ= -1.0056E-09              ZZ=  2.2415E+01
--
 

      Mulliken spin population analysis for root number:  1
      ---------------------------------------------------
 
 
++    Molecular charges:
      ------------------
 
      Mulliken spin population per centre and basis function type
      ---------------------------------------------------
 
                O1      FE2   
      1s      -0.0000  0.0000
      2s       0.0001  0.0000
      2px      0.3323  0.0000
      2pz      0.0010 -0.0000
      2py      0.3323  0.0000
      3s      -0.0000  0.0000
      3px      0.0007  0.0000
      3pz     -0.0005  0.0000
      3py      0.0007  0.0000
      4s       0.0000  0.0000
      3d2+    -0.0000  0.4533
      3d1+     0.0000  0.8256
      3d0      0.0000  0.8254
      3d1-     0.0000  0.8256
      3d2-     0.0000  0.3733
      4px      0.0000 -0.0000
      4pz      0.0000  0.0000
      4py      0.0000 -0.0000
      5s       0.0000  0.0000
      4d2+     0.0000  0.0042
      4d1+     0.0000  0.0074
      4d0      0.0000  0.0075
      4d1-     0.0000  0.0074
      4d2-     0.0000  0.0036
      5px      0.0000 -0.0000
      5pz      0.0000  0.0000
      5py      0.0000 -0.0000
      4f3+     0.0000  0.0000
      4f2+     0.0000  0.0000
      4f1+     0.0000  0.0000
      4f0      0.0000  0.0000
      4f1-     0.0000  0.0000
      4f2-     0.0000  0.0000
      4f3-     0.0000  0.0000
      Total    0.6667  3.3333
 
      Total electronic spin=    4.000000
--
 
 

      LoProp population analysis for root number:  1
      -----------------------------------------------
 
 
++    LoProp analysis:
      ----------------
 
 
 
  Input file to MOLDEN was generated!
 
 
++    Static properties:
      ------------------
 
 
      LoProp Charges per center
 

                   O1       FE2   
      Nuclear      8.0000  26.0000
      Electronic  -8.0000 -24.0000
 
      Total        0.0000   2.0000
--
 
 
      Natural Bond Order analysis for root number:  1
 
++    Natural Bond Order analysis
      ---------------------------
      Based on LoProp computed density
      -------------------------------------------------------------------------------------
      Atom A       Atom B       Bond Order
      -------------------------------------------------------------------------------------
      NBO located     22.000 core electrons.
      NBO located      3.973 lone pair electrons.
      NBO located      1.000 non-bonded electrons on atom O1        
      NBO located      1.000 non-bonded electrons on atom O1        
      NBO located      0.996 non-bonded electrons on atom FE2       
      NBO located      0.995 non-bonded electrons on atom FE2       
      NBO located      0.996 non-bonded electrons on atom FE2       
      NBO located      0.996 non-bonded electrons on atom FE2       
      The remaining    0.045 electrons are to be considered as diffuse
--
 
--
 
 
  Input file to MOLDEN was generated!
 
 
  Input file to MOLDEN was generated!
 
      Average orbitals are written to the RASORB file
      Natural orbitals for root   1 are written to the RASORB.1 file
      Spin density orbitals for root   1 are written to the SPDORB.1 file
 
forrtl: warning (525): IEEE_DIVIDE_BY_ZERO is signaling
forrtl: warning (526): IEEE_INVALID is signaling
forrtl: warning (528): IEEE_UNDERFLOW is signaling
--- Stop Module: rasscf at Thu Jan 23 16:03:18 2025 /rc=_RC_ALL_IS_WELL_ ---
*** files: 6.79.LprOrb 6.79.rasscf.molden 6.79.rasscf.molden.1 6.79.LoProp.molden 6.79.RasOrb 6.79.RasOrb.1 6.79.rasscf.h5 6.79.SpdOrb.1 xmldump
    saved to directory /home/grierjones/DDCASPT2/iron_oxo_DDCASPT2/cluster/6.79
--- Module rasscf spent 2 minutes 23 seconds ---

>>> COPY /tmp/6.79/6.79.rasscf.h5 /home/grierjones/DDCASPT2/iron_oxo_DDCASPT2/cluster/6.79/

>>> COPY /tmp/6.79/GMJ_Fock_MO.csv /home/grierjones/DDCASPT2/iron_oxo_DDCASPT2/cluster/6.79/6.79.GMJ_Fock_MO.csv

>>> COPY /tmp/6.79/GMJ_PT2_Fock_MO.csv /home/grierjones/DDCASPT2/iron_oxo_DDCASPT2/cluster/6.79/6.79.GMJ_PT2_Fock_MO.csv

*** symbolic link created: INPORB -> 6.79.RasOrb
--- Start Module: motra at Thu Jan 23 16:03:18 2025 ---
 
()()()()()()()()()()()()()()()()()()()()()()()()()()()()()()()()()()()()()()()()()()()()()()()()()()

                                               &MOTRA

                                   only a single process is used
                       available to each process: 2.0 GB of memory, 1 thread?
