[Molden Format]
[N_Atoms]
                     2
[Atoms] (AU)
B1          1      5           0.00000000      0.00000000      0.00000000
F2          2      9           0.00000000      0.00000000      1.13383567
[Charge] (Mulliken)
   2.76431419914839     
 -0.764314199148407     
[GTO] (AU)
   1
   s  14
  3.336021700E+04  1.039699991E-04
  4.972095200E+03  5.254399956E-04
  1.125641700E+03  2.509059979E-03
  3.164913600E+02  1.031887991E-02
  1.020072600E+02  3.636632969E-02
  3.629587300E+01  1.064607991E-01
  1.397141000E+01  2.403999880E-01
  5.741156000E+00  3.748581168E-01
  2.494268000E+00  3.100066974E-01
  1.114202000E+00  7.922455933E-02
  4.215490000E-01 -4.947589958E-03
  1.696330000E-01 -7.737119935E-03
  6.853500000E-02 -1.501079987E-03
  2.398700000E-02 -1.333299989E-04
   s  14
  3.336021700E+04 -2.030000008E-05
  4.972095200E+03 -1.025700004E-04
  1.125641700E+03 -4.911300020E-04
  3.164913600E+02 -2.026570008E-03
  1.020072600E+02 -7.261010030E-03
  3.629587300E+01 -2.197722009E-02
  1.397141000E+01 -5.408428022E-02
  5.741156000E+00 -1.022402604E-01
  2.494268000E+00 -1.423595206E-01
  1.114202000E+00 -4.658690019E-02
  4.215490000E-01  3.799402916E-01
  1.696330000E-01  5.890463624E-01
  6.853500000E-02  1.749075107E-01
  2.398700000E-02 -1.142030005E-03
   p   9
  5.500000000E+01  1.229800005E-03
  1.336610100E+01  8.827380035E-03
  4.135394000E+00  3.843340015E-02
  1.481256000E+00  1.150031805E-01
  6.021360000E-01  2.733674011E-01
  2.556360000E-01  4.061972116E-01
  1.111510000E-01  3.014967912E-01
  4.764800000E-02  7.684809030E-02
  1.667700000E-02 -8.170000032E-06
 
   2
   s  14
  1.031094600E+05  1.713099991E-04
  1.528100700E+04  7.123999962E-04
  3.441539200E+03  2.990479984E-03
  9.670948300E+02  1.164036994E-02
  3.140353400E+02  3.968642979E-02
  1.134423000E+02  1.128546094E-01
  4.464472700E+01  2.473650687E-01
  1.894287400E+01  3.672702681E-01
  8.532743000E+00  2.896286985E-01
  3.919401000E+00  7.786681959E-02
  1.568157000E+00  4.562139976E-03
  6.232900000E-01  2.468879987E-03
  2.408610000E-01  1.106309994E-03
  8.430100000E-02  1.739699991E-04
   s  14
  1.031094600E+05 -4.044999995E-05
  1.528100700E+04 -1.682299998E-04
  3.441539200E+03 -7.084299991E-04
  9.670948300E+02 -2.767999996E-03
  3.140353400E+02 -9.611379987E-03
  1.134423000E+02 -2.833957996E-02
  4.464472700E+01 -6.839343991E-02
  1.894287400E+01 -1.237379298E-01
  8.532743000E+00 -1.512859698E-01
  3.919401000E+00 -9.099909988E-03
  1.568157000E+00  3.716257695E-01
  6.232900000E-01  5.500214393E-01
  2.408610000E-01  2.092318697E-01
  8.430100000E-02  8.074639989E-03
   p   9
  2.453302900E+02  1.024860004E-03
  5.691900500E+01  8.344290032E-03
  1.760456800E+01  4.078927016E-02
  6.274995000E+00  1.351370605E-01
  2.447030000E+00  2.798830811E-01
  9.950600000E-01  3.597966414E-01
  4.039730000E-01  3.055347412E-01
  1.548100000E-01  1.354703905E-01
  5.418400000E-02  2.804449011E-02
 
[MO]
Sym=     1a  
Ene=   -27.7890
Spin= Alpha
Occup=    2.00000
   1        -0.00657905
   2        -0.00465944
   3        -0.00000000
   4         0.00000000
   5         0.00085237
   6         1.00028811
   7         0.02338222
   8        -0.00000000
   9         0.00000000
  10        -0.00505387
Sym=     2a  
Ene=    -9.6239
Spin= Alpha
Occup=    2.00000
   1         0.98028552
   2        -0.01182228
   3         0.00000000
   4        -0.00000000
   5         0.01205562
   6        -0.02786796
   7         0.00636904
   8         0.00000000
   9        -0.00000000
  10        -0.04750327
Sym=     3a  
Ene=    -2.0357
Spin= Alpha
Occup=    2.00000
   1         0.00000000
   2         0.00000000
   3         0.00105172
   4         0.10031160
   5        -0.00000000
   6         0.00000000
   7        -0.00000000
   8         0.00981613
   9         0.93624658
  10         0.00000000
Sym=     4a  
Ene=    -2.0357
Spin= Alpha
Occup=    2.00000
   1        -0.00000000
   2        -0.00000000
   3         0.10031160
   4        -0.00105172
   5         0.00000000
   6        -0.00000000
   7         0.00000000
   8         0.93624658
   9        -0.00981613
  10        -0.00000000
Sym=     5a  
Ene=    -1.8860
Spin= Alpha
Occup=    2.00000
   1        -0.49761531
   2        -0.20515343
   3        -0.00000000
   4         0.00000000
   5         0.34846482
   6        -0.02449399
   7         0.13617554
   8        -0.00000000
   9         0.00000000
  10        -1.14118360
Sym=     6a  
Ene=    -2.7216
Spin= Alpha
Occup=    1.99963
   1        -0.24338908
   2        -0.06168974
   3        -0.00000000
   4         0.00000000
   5        -0.00567816
   6        -0.00618575
   7         1.06456807
   8        -0.00000000
   9         0.00000000
  10         0.08977062
Sym=     7a  
Ene=     0.0062
Spin= Alpha
Occup=    0.00037
   1        -0.51211752
   2        -1.62855312
   3         0.00000000
   4        -0.00000000
   5        -1.05390486
   6         0.32391706
   7         1.65766704
   8        -0.00000000
   9         0.00000000
  10        -0.18219278
Sym=     8a  
Ene=    -0.8288
Spin= Alpha
Occup=    0.00000
   1        -0.15713896
   2         0.27349642
   3         0.00000000
   4        -0.00000000
   5        -1.02188423
   6         0.12920426
   7         0.47824174
   8        -0.00000000
   9         0.00000000
  10        -0.07729847
Sym=     9a  
Ene=    -0.4477
Spin= Alpha
Occup=    0.00000
   1         0.00000000
   2         0.00000000
   3         0.34013496
   4        -1.20237846
   5         0.00000000
   6        -0.00000000
   7        -0.00000000
   8        -0.22689663
   9         0.80208053
  10         0.00000000
Sym=    10a  
Ene=    -0.4477
Spin= Alpha
Occup=    0.00000
   1        -0.00000000
   2        -0.00000000
   3        -1.20237846
   4        -0.34013496
   5        -0.00000000
   6         0.00000000
   7         0.00000000
   8         0.80208053
   9         0.22689663
  10        -0.00000000
