[Molden Format]
[N_Atoms]
                     2
[Atoms] (AU)
BE1         1      4           0.00000000      0.00000000      0.00000000
LI2         2      3           0.00000000      0.00000000      1.88972612
[Charge] (Mulliken)
  2.152197803026912E-002
 -2.152197803028422E-002
[GTO] (AU)
   1
   s  14
  2.262859900E+04  8.443999941E-05
  3.372318100E+03  4.601499968E-04
  7.603504000E+02  2.285389984E-03
  2.117404800E+02  9.648129932E-03
  6.722346800E+01  3.494469975E-02
  2.337217700E+01  1.061099893E-01
  8.721373000E+00  2.458240383E-01
  3.468091000E+00  3.862428773E-01
  1.452144000E+00  3.105526078E-01
  6.086150000E-01  6.415933955E-02
  2.576860000E-01 -2.265049984E-03
  1.041760000E-01 -5.217499963E-04
  4.242700000E-02 -8.757499938E-04
  1.484900000E-02  1.242199991E-04
   s  14
  2.262859900E+04 -1.586999994E-05
  3.372318100E+03 -8.656999968E-05
  7.603504000E+02 -4.302199984E-04
  2.117404800E+02 -1.825079993E-03
  6.722346800E+01 -6.682749976E-03
  2.337217700E+01 -2.095119992E-02
  8.721373000E+00 -5.200308981E-02
  3.468091000E+00 -9.849176964E-02
  1.452144000E+00 -1.355800695E-01
  6.086150000E-01 -6.429875976E-02
  2.576860000E-01  3.125414989E-01
  1.041760000E-01  6.270468577E-01
  4.242700000E-02  2.110231492E-01
  1.484900000E-02 -4.104669985E-03
   p   9
  3.371018400E+01  1.069960000E-03
  8.057649500E+00  6.828550001E-03
  2.836471400E+00  2.119065000E-02
  1.099965700E+00  5.843696001E-02
  4.433964000E-01  2.020920800E-01
  1.822264000E-01  4.582953101E-01
  7.572410000E-02  3.691239601E-01
  3.168540000E-02  6.611471001E-02
  1.108990000E-02  1.405160000E-03
 
   2
   s  14
  9.497934400E+03  9.668999974E-05
  1.416811200E+03  6.087099984E-04
  3.214599400E+02  3.101519992E-03
  9.112416300E+01  1.266904997E-02
  2.999989100E+01  4.248012989E-02
  1.101763100E+01  1.150183297E-01
  4.372801000E+00  2.398650094E-01
  1.831256000E+00  3.584300090E-01
  8.022610000E-01  3.048527792E-01
  3.626480000E-01  8.824261976E-02
  1.139950000E-01 -8.445899977E-04
  5.123700000E-02 -7.943959979E-03
  2.246800000E-02 -3.764419990E-03
  7.860000000E-03 -8.868999976E-05
   s  14
  9.497934400E+03 -1.244999993E-05
  1.416811200E+03 -7.838999954E-05
  3.214599400E+02 -4.007099976E-04
  9.112416300E+01 -1.645249990E-03
  2.999989100E+01 -5.634599967E-03
  1.101763100E+01 -1.590780991E-02
  4.372801000E+00 -3.612581979E-02
  1.831256000E+00 -6.459927962E-02
  8.022610000E-01 -1.008321794E-01
  3.626480000E-01 -9.757613942E-02
  1.139950000E-01  2.301215886E-01
  5.123700000E-02  6.102389764E-01
  2.246800000E-02  2.849406083E-01
  7.860000000E-03  4.026899976E-03
   p   9
  1.311950400E+01  1.524940000E-03
  3.077424200E+00  8.314830000E-03
  1.098800500E+00  1.933203000E-02
  4.357784000E-01  4.934293000E-02
  1.802432000E-01  1.623554000E-01
  7.613330000E-02  3.847505400E-01
  3.254650000E-02  4.336100400E-01
  1.401820000E-02  1.287005900E-01
  4.906400000E-03 -1.018520000E-03
 
[MO]
Sym=     1a  
Ene=    -5.0226
Spin= Alpha
Occup=    1.00000
   1         0.99709118
   2        -0.00326475
   3        -0.00000000
   4        -0.00000000
   5         0.00746074
   6         0.02338892
   7         0.00183807
   8         0.00000000
   9         0.00000000
  10        -0.00624354
Sym=     1a  
Ene=    -5.0209
Spin= Beta
Occup=    1.00000
   1         0.99700652
   2        -0.00389642
   3        -0.00000000
   4        -0.00000000
   5         0.00783609
   6         0.02346476
   7         0.00201885
   8         0.00000000
   9         0.00000000
  10        -0.00660099
Sym=     2a  
Ene=    -2.8486
Spin= Alpha
Occup=    1.00000
   1        -0.08863491
   2        -0.01135662
   3         0.00000000
   4         0.00000000
   5         0.01503191
   6         0.99883477
   7         0.01278733
   8        -0.00000000
   9        -0.00000000
  10        -0.02010455
Sym=     2a  
Ene=    -2.8435
Spin= Beta
Occup=    1.00000
   1        -0.08860345
   2        -0.01030820
   3         0.00000000
   4        -0.00000000
   5         0.01586704
   6         0.99822618
   7         0.01155665
   8         0.00000000
   9         0.00000000
  10        -0.02067488
Sym=     3a  
Ene=    -0.4025
Spin= Alpha
Occup=    1.00000
   1         0.00512337
   2         0.94306959
   3         0.00000000
   4         0.00000000
   5        -0.15198316
   6        -0.19674018
   7         0.10390721
   8        -0.00000000
   9        -0.00000000
  10         0.03099100
Sym=     3a  
Ene=    -0.3705
Spin= Beta
Occup=    1.00000
   1         0.01701184
   2        -0.88521554
   3         0.00000000
   4         0.00000000
   5         0.03353757
   6         0.22688662
   7        -0.11099966
   8        -0.00000000
   9        -0.00000000
  10         0.11319944
Sym=     4a  
Ene=    -0.2079
Spin= Alpha
Occup=    1.00000
   1        -0.00134381
   2        -0.30495756
   3        -0.00000000
   4        -0.00000000
   5         0.29464431
   6        -0.03248819
   7         0.73559612
   8        -0.00000000
   9        -0.00000000
  10         0.50939702
Sym=     4a  
Ene=    -0.0612
Spin= Beta
Occup=    0.00000
   1        -0.00000000
   2        -0.00000000
   3        -0.14988181
   4         0.70589380
   5         0.00000000
   6        -0.00000000
   7         0.00000000
   8        -0.07230206
   9         0.34051880
  10        -0.00000000
Sym=     5a  
Ene=    -0.0712
Spin= Alpha
Occup=    0.00000
   1         0.00000000
   2        -0.00000000
   3        -0.14536145
   4         0.63819715
   5         0.00000000
   6         0.00000000
   7         0.00000000
   8        -0.09368980
   9         0.41133715
  10         0.00000000
Sym=     5a  
Ene=    -0.0612
Spin= Beta
Occup=    0.00000
   1        -0.00000000
   2        -0.00000000
   3         0.70589380
   4         0.14988181
   5         0.00000000
   6        -0.00000000
   7         0.00000000
   8         0.34051880
   9         0.07230206
  10        -0.00000000
Sym=     6a  
Ene=    -0.0712
Spin= Alpha
Occup=    0.00000
   1         0.00000000
   2        -0.00000000
   3         0.63819715
   4         0.14536145
   5         0.00000000
   6         0.00000000
   7         0.00000000
   8         0.41133715
   9         0.09368980
  10         0.00000000
Sym=     6a  
Ene=     0.0436
Spin= Beta
Occup=    0.00000
   1        -0.01210914
   2        -0.32869567
   3        -0.00000000
   4        -0.00000000
   5         0.28450183
   6        -0.02149492
   7         0.78583663
   8         0.00000000
   9         0.00000000
  10         0.48175836
Sym=     7a  
Ene=     0.1345
Spin= Alpha
Occup=    0.00000
   1         0.33705698
   2         1.25748321
   3         0.00000000
   4         0.00000000
   5        -0.97252835
   6         0.03300150
   7        -0.92160391
   8        -0.00000000
   9        -0.00000000
  10         1.44832381
Sym=     7a  
Ene=     0.1627
Spin= Beta
Occup=    0.00000
   1         0.00000000
   2         0.00000000
   3         0.50688188
   4        -1.12008044
   5        -0.00000000
   6         0.00000000
   7        -0.00000000
   8        -0.56995518
   9         1.25945643
  10         0.00000000
Sym=     8a  
Ene=     0.1362
Spin= Alpha
Occup=    0.00000
   1         0.00000000
   2         0.00000000
   3         0.48940037
   4        -1.16804185
   5        -0.00000000
   6         0.00000000
   7        -0.00000000
   8        -0.52622641
   9         1.25593383
  10         0.00000000
Sym=     8a  
Ene=     0.1627
Spin= Beta
Occup=    0.00000
   1         0.00000000
   2         0.00000000
   3        -1.12008044
   4        -0.50688188
   5        -0.00000000
   6         0.00000000
   7        -0.00000000
   8         1.25945643
   9         0.56995518
  10         0.00000000
Sym=     9a  
Ene=     0.1362
Spin= Alpha
Occup=    0.00000
   1         0.00000000
   2         0.00000000
   3        -1.16804185
   4        -0.48940037
   5        -0.00000000
   6         0.00000000
   7        -0.00000000
   8         1.25593383
   9         0.52622641
  10         0.00000000
Sym=     9a  
Ene=     0.1767
Spin= Beta
Occup=    0.00000
   1         0.35908197
   2         1.47316853
   3         0.00000000
   4         0.00000000
   5        -0.93224235
   6        -0.04068117
   7        -1.01974494
   8        -0.00000000
   9        -0.00000000
  10         1.48892980
Sym=    10a  
Ene=     0.2769
Spin= Alpha
Occup=    0.00000
   1        -0.40408995
   2        -2.22316064
   3         0.00000000
   4         0.00000000
   5        -0.80036490
   6         0.91458085
   7         2.07048764
   8        -0.00000000
   9        -0.00000000
  10        -0.74792533
Sym=    10a  
Ene=     0.2795
Spin= Beta
Occup=    0.00000
   1        -0.38434702
   2        -2.10813469
   3         0.00000000
   4         0.00000000
   5        -0.86321268
   6         0.90825477
   7         2.00460983
   8        -0.00000000
   9        -0.00000000
  10        -0.67500732
