[Molden Format]
[N_Atoms]
                     2
[Atoms] (AU)
B1          1      5           0.00000000      0.00000000      0.00000000
C2          2      6           0.00000000      0.00000000      5.10226054
[Charge] (Mulliken)
  6.108106297505422E-002
 -6.108106297506488E-002
[GTO] (AU)
   1
   s  14
  3.336021700E+04  1.039699991E-04
  4.972095200E+03  5.254399956E-04
  1.125641700E+03  2.509059979E-03
  3.164913600E+02  1.031887991E-02
  1.020072600E+02  3.636632969E-02
  3.629587300E+01  1.064607991E-01
  1.397141000E+01  2.403999880E-01
  5.741156000E+00  3.748581168E-01
  2.494268000E+00  3.100066974E-01
  1.114202000E+00  7.922455933E-02
  4.215490000E-01 -4.947589958E-03
  1.696330000E-01 -7.737119935E-03
  6.853500000E-02 -1.501079987E-03
  2.398700000E-02 -1.333299989E-04
   s  14
  3.336021700E+04 -2.030000008E-05
  4.972095200E+03 -1.025700004E-04
  1.125641700E+03 -4.911300020E-04
  3.164913600E+02 -2.026570008E-03
  1.020072600E+02 -7.261010030E-03
  3.629587300E+01 -2.197722009E-02
  1.397141000E+01 -5.408428022E-02
  5.741156000E+00 -1.022402604E-01
  2.494268000E+00 -1.423595206E-01
  1.114202000E+00 -4.658690019E-02
  4.215490000E-01  3.799402916E-01
  1.696330000E-01  5.890463624E-01
  6.853500000E-02  1.749075107E-01
  2.398700000E-02 -1.142030005E-03
   p   9
  5.500000000E+01  1.229800005E-03
  1.336610100E+01  8.827380035E-03
  4.135394000E+00  3.843340015E-02
  1.481256000E+00  1.150031805E-01
  6.021360000E-01  2.733674011E-01
  2.556360000E-01  4.061972116E-01
  1.111510000E-01  3.014967912E-01
  4.764800000E-02  7.684809030E-02
  1.667700000E-02 -8.170000032E-06
 
   2
   s  14
  5.055750100E+04  1.128874000E-04
  7.524785600E+03  5.295373000E-04
  1.694327600E+03  2.450038300E-03
  4.728227900E+02  1.005398470E-02
  1.517107500E+02  3.545398060E-02
  5.391874600E+01  1.044071086E-01
  2.065931100E+01  2.412894918E-01
  8.383976000E+00  3.834225483E-01
  3.577015000E+00  3.078514393E-01
  1.547118000E+00  6.872442990E-02
  6.130130000E-01  2.224445000E-04
  2.460680000E-01  1.976748900E-03
  9.908700000E-02  2.057859400E-03
  3.468000000E-02  4.182020000E-04
   s  14
  5.055750100E+04 -2.507420000E-05
  7.524785600E+03 -1.175945000E-04
  1.694327600E+03 -5.456275000E-04
  4.728227900E+02 -2.245077100E-03
  1.517107500E+02 -8.043471800E-03
  5.391874600E+01 -2.442588710E-02
  2.065931100E+01 -6.136791180E-02
  8.383976000E+00 -1.177767835E-01
  3.577015000E+00 -1.550487783E-01
  1.547118000E+00 -1.933316860E-02
  6.130130000E-01  3.996930678E-01
  2.460680000E-01  5.589420949E-01
  9.908700000E-02  1.711195023E-01
  3.468000000E-02  7.456244600E-03
   p   9
  8.333315500E+01  1.344656000E-03
  1.955761100E+01  1.023555500E-02
  6.080365000E+00  4.520067100E-02
  2.179317000E+00  1.410756198E-01
  8.651500000E-01  3.047388085E-01
  3.619440000E-01  3.995281011E-01
  1.547400000E-01  2.719163432E-01
  6.542900000E-02  5.857669330E-02
  2.290000000E-02 -1.263813000E-04
 
[MO]
Sym=     1a  
Ene=   -11.1950
Spin= Alpha
Occup=    1.00000
   1        -0.00003337
   2        -0.00043225
   3         0.00000002
   4         0.00000001
   5        -0.00047331
   6         1.00000621
   7        -0.00225162
   8        -0.00000003
   9         0.00000011
  10        -0.00035391
Sym=     1a  
Ene=   -11.1950
Spin= Beta
Occup=    1.00000
   1        -0.00003337
   2        -0.00043225
   3         0.00000002
   4         0.00000001
   5        -0.00047331
   6         1.00000621
   7        -0.00225162
   8        -0.00000003
   9         0.00000011
  10        -0.00035391
Sym=     2a  
Ene=    -7.6614
Spin= Alpha
Occup=    1.00000
   1         0.99990148
   2         0.01409887
   3        -0.00000004
   4         0.00000015
   5         0.00016673
   6        -0.00002108
   7        -0.00013221
   8        -0.00000004
   9         0.00000005
  10         0.00004418
Sym=     2a  
Ene=    -7.6614
Spin= Beta
Occup=    1.00000
   1         0.99990148
   2         0.01409887
   3        -0.00000004
   4         0.00000015
   5         0.00016673
   6        -0.00002108
   7        -0.00013221
   8        -0.00000004
   9         0.00000005
  10         0.00004418
Sym=     3a  
Ene=    -0.6559
Spin= Alpha
Occup=    1.00000
   1        -0.00552176
   2         0.16142558
   3         0.00000256
   4        -0.00000094
   5         0.03377296
   6         0.00104117
   7         0.96631691
   8         0.00002328
   9        -0.00000888
  10         0.00208639
Sym=     3a  
Ene=    -0.6559
Spin= Beta
Occup=    1.00000
   1        -0.00552176
   2         0.16142558
   3         0.00000256
   4        -0.00000094
   5         0.03377296
   6         0.00104117
   7         0.96631691
   8         0.00002328
   9        -0.00000888
  10         0.00208639
Sym=     4a  
Ene=    -0.4880
Spin= Alpha
Occup=    1.00000
   1         0.01358943
   2        -0.97976513
   3         0.00002733
   4        -0.00001561
   5        -0.01311369
   6         0.00555149
   7         0.25171779
   8        -0.00003846
   9        -0.00002629
  10         0.06657044
Sym=     4a  
Ene=    -0.4880
Spin= Beta
Occup=    1.00000
   1         0.01358943
   2        -0.97976513
   3         0.00002733
   4        -0.00001561
   5        -0.01311369
   6         0.00555149
   7         0.25171779
   8        -0.00003846
   9        -0.00002629
  10         0.06657044
Sym=     5a  
Ene=    -0.2862
Spin= Alpha
Occup=    1.00000
   1         0.00000182
   2         0.00012238
   3        -0.07024335
   4        -0.02483151
   5        -0.00008263
   6         0.00000067
   7         0.00001440
   8        -0.93582195
   9        -0.33081978
  10         0.00037363
Sym=     5a  
Ene=    -0.2862
Spin= Beta
Occup=    1.00000
   1         0.00000182
   2         0.00012238
   3        -0.07024335
   4        -0.02483151
   5        -0.00008263
   6         0.00000067
   7         0.00001440
   8        -0.93582195
   9        -0.33081978
  10         0.00037363
Sym=     6a  
Ene=     0.2110
Spin= Alpha
Occup=    0.00000
   1        -0.00715647
   2        -0.20040946
   3         0.00269630
   4        -0.00363000
   5        -0.36597289
   6         0.00601210
   7         0.09574153
   8         0.00027345
   9        -0.00232793
  10        -1.00805054
Sym=     6a  
Ene=     0.2110
Spin= Beta
Occup=    0.00000
   1        -0.00715647
   2        -0.20040946
   3         0.00269630
   4        -0.00363000
   5        -0.36597289
   6         0.00601210
   7         0.09574153
   8         0.00027345
   9        -0.00232793
  10        -1.00805054
Sym=     7a  
Ene=    -0.0006
Spin= Alpha
Occup=    1.00000
   1         0.00055693
   2         0.05112113
   3         0.00107235
   4        -0.00100144
   5        -0.96346809
   6         0.01344645
   7         0.17961680
   8         0.00013899
   9        -0.00002706
  10         0.18199516
Sym=     7a  
Ene=    -0.0006
Spin= Beta
Occup=    0.00000
   1         0.00055693
   2         0.05112113
   3         0.00107235
   4        -0.00100144
   5        -0.96346809
   6         0.01344645
   7         0.17961680
   8         0.00013899
   9        -0.00002706
  10         0.18199516
Sym=     8a  
Ene=     0.0950
Spin= Alpha
Occup=    0.00000
   1         0.00003443
   2         0.00094852
   3         0.31315275
   4        -0.88612195
   5         0.00302992
   6        -0.00004687
   7        -0.00071432
   8         0.09596176
   9        -0.27141435
  10         0.00473771
Sym=     8a  
Ene=     0.0950
Spin= Beta
Occup=    0.00000
   1         0.00003443
   2         0.00094852
   3         0.31315275
   4        -0.88612195
   5         0.00302992
   6        -0.00004687
   7        -0.00071432
   8         0.09596176
   9        -0.27141435
  10         0.00473771
Sym=     9a  
Ene=     0.1056
Spin= Alpha
Occup=    0.00000
   1        -0.00000902
   2        -0.00026161
   3        -0.94208049
   4        -0.33294703
   5        -0.00113534
   6         0.00001722
   7         0.00025561
   8         0.12898217
   9         0.04562011
  10        -0.00124766
Sym=     9a  
Ene=     0.1056
Spin= Beta
Occup=    0.00000
   1        -0.00000902
   2        -0.00026161
   3        -0.94208049
   4        -0.33294703
   5        -0.00113534
   6         0.00001722
   7         0.00025561
   8         0.12898217
   9         0.04562011
  10        -0.00124766
Sym=    10a  
Ene=     0.1747
Spin= Alpha
Occup=    0.00000
   1        -0.00000666
   2        -0.00019851
   3         0.11575620
   4        -0.32745338
   5        -0.00003454
   6         0.00000124
   7         0.00004660
   8        -0.31986630
   9         0.90483603
  10        -0.00096544
Sym=    10a  
Ene=     0.1747
Spin= Beta
Occup=    0.00000
   1        -0.00000666
   2        -0.00019851
   3         0.11575620
   4        -0.32745338
   5        -0.00003454
   6         0.00000124
   7         0.00004660
   8        -0.31986630
   9         0.90483603
  10        -0.00096544
