[Molden Format]
[N_Atoms]
                     2
[Atoms] (AU)
B1          1      5           0.00000000      0.00000000      0.00000000
C2          2      6           0.00000000      0.00000000      5.10226054
[Charge] (Mulliken)
  1.052423176485728E-002
 -1.052423176490880E-002
[GTO] (AU)
   1
   s  14
  3.336021700E+04  1.039699991E-04
  4.972095200E+03  5.254399956E-04
  1.125641700E+03  2.509059979E-03
  3.164913600E+02  1.031887991E-02
  1.020072600E+02  3.636632969E-02
  3.629587300E+01  1.064607991E-01
  1.397141000E+01  2.403999880E-01
  5.741156000E+00  3.748581168E-01
  2.494268000E+00  3.100066974E-01
  1.114202000E+00  7.922455933E-02
  4.215490000E-01 -4.947589958E-03
  1.696330000E-01 -7.737119935E-03
  6.853500000E-02 -1.501079987E-03
  2.398700000E-02 -1.333299989E-04
   s  14
  3.336021700E+04 -2.030000008E-05
  4.972095200E+03 -1.025700004E-04
  1.125641700E+03 -4.911300020E-04
  3.164913600E+02 -2.026570008E-03
  1.020072600E+02 -7.261010030E-03
  3.629587300E+01 -2.197722009E-02
  1.397141000E+01 -5.408428022E-02
  5.741156000E+00 -1.022402604E-01
  2.494268000E+00 -1.423595206E-01
  1.114202000E+00 -4.658690019E-02
  4.215490000E-01  3.799402916E-01
  1.696330000E-01  5.890463624E-01
  6.853500000E-02  1.749075107E-01
  2.398700000E-02 -1.142030005E-03
   p   9
  5.500000000E+01  1.229800005E-03
  1.336610100E+01  8.827380035E-03
  4.135394000E+00  3.843340015E-02
  1.481256000E+00  1.150031805E-01
  6.021360000E-01  2.733674011E-01
  2.556360000E-01  4.061972116E-01
  1.111510000E-01  3.014967912E-01
  4.764800000E-02  7.684809030E-02
  1.667700000E-02 -8.170000032E-06
 
   2
   s  14
  5.055750100E+04  1.128874000E-04
  7.524785600E+03  5.295373000E-04
  1.694327600E+03  2.450038300E-03
  4.728227900E+02  1.005398470E-02
  1.517107500E+02  3.545398060E-02
  5.391874600E+01  1.044071086E-01
  2.065931100E+01  2.412894918E-01
  8.383976000E+00  3.834225483E-01
  3.577015000E+00  3.078514393E-01
  1.547118000E+00  6.872442990E-02
  6.130130000E-01  2.224445000E-04
  2.460680000E-01  1.976748900E-03
  9.908700000E-02  2.057859400E-03
  3.468000000E-02  4.182020000E-04
   s  14
  5.055750100E+04 -2.507420000E-05
  7.524785600E+03 -1.175945000E-04
  1.694327600E+03 -5.456275000E-04
  4.728227900E+02 -2.245077100E-03
  1.517107500E+02 -8.043471800E-03
  5.391874600E+01 -2.442588710E-02
  2.065931100E+01 -6.136791180E-02
  8.383976000E+00 -1.177767835E-01
  3.577015000E+00 -1.550487783E-01
  1.547118000E+00 -1.933316860E-02
  6.130130000E-01  3.996930678E-01
  2.460680000E-01  5.589420949E-01
  9.908700000E-02  1.711195023E-01
  3.468000000E-02  7.456244600E-03
   p   9
  8.333315500E+01  1.344656000E-03
  1.955761100E+01  1.023555500E-02
  6.080365000E+00  4.520067100E-02
  2.179317000E+00  1.410756198E-01
  8.651500000E-01  3.047388085E-01
  3.619440000E-01  3.995281011E-01
  1.547400000E-01  2.719163432E-01
  6.542900000E-02  5.857669330E-02
  2.290000000E-02 -1.263813000E-04
 
[MO]
Sym=     1a  
Ene=   -11.2620
Spin= Alpha
Occup=    1.00000
   1        -0.00004156
   2        -0.00056482
   3         0.00000000
   4         0.00000000
   5        -0.00066728
   6         1.00001241
   7         0.00024877
   8         0.00000000
   9         0.00000000
  10        -0.00019040
Sym=     1a  
Ene=   -11.2130
Spin= Beta
Occup=    1.00000
   1        -0.00002858
   2        -0.00026736
   3         0.00000000
   4        -0.00000000
   5        -0.00022143
   6         0.99999262
   7        -0.00483711
   8         0.00000000
   9        -0.00000000
  10        -0.00012132
Sym=     2a  
Ene=    -7.6313
Spin= Alpha
Occup=    1.00000
   1         0.99991759
   2         0.01289779
   3         0.00000000
   4         0.00000000
   5         0.00010112
   6        -0.00001104
   7        -0.00007152
   8         0.00000000
   9        -0.00000000
  10         0.00005633
Sym=     2a  
Ene=    -7.6483
Spin= Beta
Occup=    1.00000
   1         0.99988132
   2         0.01561049
   3        -0.00000000
   4         0.00000000
   5        -0.00008251
   6        -0.00002144
   7        -0.00020865
   8         0.00000000
   9         0.00000000
  10         0.00025172
Sym=     3a  
Ene=    -0.8009
Spin= Alpha
Occup=    1.00000
   1        -0.00388168
   2         0.04989432
   3        -0.00000000
   4        -0.00000000
   5         0.01649756
   6        -0.00056272
   7         0.99142868
   8         0.00000000
   9         0.00000000
  10         0.00553973
Sym=     3a  
Ene=    -0.5778
Spin= Beta
Occup=    1.00000
   1        -0.01144963
   2         0.54247861
   3         0.00000000
   4         0.00000000
   5         0.01948331
   6         0.00099777
   7         0.78477697
   8        -0.00000000
   9        -0.00000000
  10        -0.03606707
Sym=     4a  
Ene=    -0.4310
Spin= Alpha
Occup=    1.00000
   1        -0.01306222
   2         0.98225530
   3        -0.00000000
   4        -0.00000000
   5         0.07725194
   6        -0.00590663
   7        -0.15132596
   8        -0.00000000
   9        -0.00000000
  10        -0.09558318
Sym=     4a  
Ene=    -0.5099
Spin= Beta
Occup=    1.00000
   1         0.01112116
   2        -0.83634277
   3         0.00000000
   4         0.00000000
   5         0.08161114
   6         0.00584054
   7         0.60518939
   8        -0.00000000
   9        -0.00000000
  10         0.01584365
Sym=     5a  
Ene=    -0.4106
Spin= Alpha
Occup=    1.00000
   1        -0.00000000
   2         0.00000000
   3         0.02182588
   4        -0.01797626
   5         0.00000000
   6        -0.00000000
   7        -0.00000000
   8         0.77022371
   9        -0.63437273
  10         0.00000000
Sym=     5a  
Ene=    -0.3031
Spin= Beta
Occup=    1.00000
   1        -0.00000000
   2         0.00000000
   3         0.63415051
   4         0.76995390
   5         0.00000000
   6        -0.00000000
   7        -0.00000000
   8         0.02037698
   9         0.02474071
  10        -0.00000000
Sym=     6a  
Ene=    -0.4096
Spin= Alpha
Occup=    1.00000
   1        -0.00000000
   2         0.00000000
   3         0.01442828
   4         0.01751809
   5         0.00000000
   6        -0.00000000
   7        -0.00000000
   8         0.63468460
   9         0.77060237
  10         0.00000000
Sym=     6a  
Ene=     0.0709
Spin= Beta
Occup=    0.00000
   1         0.00351283
   2         0.02491504
   3         0.00000000
   4         0.00000000
   5        -0.79845984
   6         0.01165395
   7         0.19519259
   8         0.00000000
   9         0.00000000
  10         0.48987066
Sym=     7a  
Ene=     0.0581
Spin= Alpha
Occup=    0.00000
   1         0.00370662
   2         0.22139886
   3         0.00000000
   4         0.00000000
   5        -0.58246478
   6         0.00700756
   7         0.07616565
   8        -0.00000000
   9        -0.00000000
  10         0.71662653
Sym=     7a  
Ene=     0.0987
Spin= Beta
Occup=    0.00000
   1        -0.00000000
   2        -0.00000000
   3        -0.75553039
   4         0.62227100
   5         0.00000000
   6        -0.00000000
   7        -0.00000000
   8        -0.11777944
   9         0.09700567
  10        -0.00000000
Sym=     8a  
Ene=     0.1303
Spin= Alpha
Occup=    0.00000
   1        -0.00000000
   2        -0.00000000
   3        -0.77309970
   4         0.63674145
   5        -0.00000000
   6         0.00000000
   7         0.00000000
   8         0.07010664
   9        -0.05774133
  10        -0.00000000
Sym=     8a  
Ene=     0.2328
Spin= Beta
Occup=    0.00000
   1        -0.00000000
   2        -0.00000000
   3        -0.06013283
   4        -0.07301028
   5        -0.00000000
   6         0.00000000
   7         0.00000000
   8         0.63666915
   9         0.77301191
  10        -0.00000000
Sym=     9a  
Ene=     0.1796
Spin= Alpha
Occup=    0.00000
   1        -0.00000000
   2        -0.00000000
   3         0.63683173
   4         0.77320930
   5        -0.00000000
   6         0.00000000
   7         0.00000000
   8        -0.05420592
   9        -0.06581412
  10        -0.00000000
Sym=     9a  
Ene=     0.2361
Spin= Beta
Occup=    0.00000
   1        -0.00000000
   2        -0.00000000
   3        -0.16532797
   4         0.13616765
   5        -0.00000000
   6         0.00000000
   7         0.00000000
   8         0.76438702
   9        -0.62956551
  10        -0.00000000
Sym=    10a  
Ene=     0.2100
Spin= Alpha
Occup=    0.00000
   1         0.00591907
   2         0.11169688
   3         0.00000000
   4         0.00000000
   5         0.84736327
   6        -0.01233483
   7        -0.16411237
   8        -0.00000000
   9        -0.00000000
  10         0.72871726
Sym=    10a  
Ene=     0.2398
Spin= Beta
Occup=    0.00000
   1         0.00631497
   2         0.18536028
   3        -0.00000000
   4        -0.00000000
   5         0.64726508
   6        -0.01025247
   7        -0.13532127
   8         0.00000000
   9         0.00000000
  10         0.90123477
