[Molden Format]
[N_Atoms]
                     2
[Atoms] (AU)
B1          1      5           0.00000000      0.00000000      0.00000000
C2          2      6           0.00000000      0.00000000      5.10226054
[Charge] (Mulliken)
  0.000000000000000E+000
  0.000000000000000E+000
[GTO] (AU)
   1
   s  14
  3.336021700E+04  1.039699991E-04
  4.972095200E+03  5.254399956E-04
  1.125641700E+03  2.509059979E-03
  3.164913600E+02  1.031887991E-02
  1.020072600E+02  3.636632969E-02
  3.629587300E+01  1.064607991E-01
  1.397141000E+01  2.403999880E-01
  5.741156000E+00  3.748581168E-01
  2.494268000E+00  3.100066974E-01
  1.114202000E+00  7.922455933E-02
  4.215490000E-01 -4.947589958E-03
  1.696330000E-01 -7.737119935E-03
  6.853500000E-02 -1.501079987E-03
  2.398700000E-02 -1.333299989E-04
   s  14
  3.336021700E+04 -2.030000008E-05
  4.972095200E+03 -1.025700004E-04
  1.125641700E+03 -4.911300020E-04
  3.164913600E+02 -2.026570008E-03
  1.020072600E+02 -7.261010030E-03
  3.629587300E+01 -2.197722009E-02
  1.397141000E+01 -5.408428022E-02
  5.741156000E+00 -1.022402604E-01
  2.494268000E+00 -1.423595206E-01
  1.114202000E+00 -4.658690019E-02
  4.215490000E-01  3.799402916E-01
  1.696330000E-01  5.890463624E-01
  6.853500000E-02  1.749075107E-01
  2.398700000E-02 -1.142030005E-03
   p   9
  5.500000000E+01  1.229800005E-03
  1.336610100E+01  8.827380035E-03
  4.135394000E+00  3.843340015E-02
  1.481256000E+00  1.150031805E-01
  6.021360000E-01  2.733674011E-01
  2.556360000E-01  4.061972116E-01
  1.111510000E-01  3.014967912E-01
  4.764800000E-02  7.684809030E-02
  1.667700000E-02 -8.170000032E-06
 
   2
   s  14
  5.055750100E+04  1.128874000E-04
  7.524785600E+03  5.295373000E-04
  1.694327600E+03  2.450038300E-03
  4.728227900E+02  1.005398470E-02
  1.517107500E+02  3.545398060E-02
  5.391874600E+01  1.044071086E-01
  2.065931100E+01  2.412894918E-01
  8.383976000E+00  3.834225483E-01
  3.577015000E+00  3.078514393E-01
  1.547118000E+00  6.872442990E-02
  6.130130000E-01  2.224445000E-04
  2.460680000E-01  1.976748900E-03
  9.908700000E-02  2.057859400E-03
  3.468000000E-02  4.182020000E-04
   s  14
  5.055750100E+04 -2.507420000E-05
  7.524785600E+03 -1.175945000E-04
  1.694327600E+03 -5.456275000E-04
  4.728227900E+02 -2.245077100E-03
  1.517107500E+02 -8.043471800E-03
  5.391874600E+01 -2.442588710E-02
  2.065931100E+01 -6.136791180E-02
  8.383976000E+00 -1.177767835E-01
  3.577015000E+00 -1.550487783E-01
  1.547118000E+00 -1.933316860E-02
  6.130130000E-01  3.996930678E-01
  2.460680000E-01  5.589420949E-01
  9.908700000E-02  1.711195023E-01
  3.468000000E-02  7.456244600E-03
   p   9
  8.333315500E+01  1.344656000E-03
  1.955761100E+01  1.023555500E-02
  6.080365000E+00  4.520067100E-02
  2.179317000E+00  1.410756198E-01
  8.651500000E-01  3.047388085E-01
  3.619440000E-01  3.995281011E-01
  1.547400000E-01  2.719163432E-01
  6.542900000E-02  5.857669330E-02
  2.290000000E-02 -1.263813000E-04
 
[MO]
Sym=     1a  
Ene=   -11.3280
Spin= Alpha
Occup=    2.00000
   1        -0.00003050
   2         0.00024873
   3        -0.00000000
   4        -0.00000000
   5         0.00040963
   6         0.99999258
   7         0.00000597
   8         0.00000000
   9         0.00000000
  10        -0.00000421
Sym=     2a  
Ene=    -7.6963
Spin= Alpha
Occup=    2.00000
   1         0.99999579
   2         0.00000571
   3        -0.00000000
   4         0.00000000
   5         0.00000500
   6         0.00004471
   7         0.00022198
   8         0.00000000
   9        -0.00000000
  10        -0.00046411
Sym=     3a  
Ene=    -0.7338
Spin= Alpha
Occup=    2.00000
   1        -0.00285587
   2         0.19435892
   3         0.00000000
   4        -0.00000000
   5         0.12143608
   6        -0.00301682
   7         0.93057323
   8        -0.00000000
   9         0.00000000
  10        -0.06942444
Sym=     4a  
Ene=    -0.5249
Spin= Alpha
Occup=    2.00000
   1         0.00376019
   2        -0.73541137
   3         0.00000000
   4        -0.00000000
   5        -0.06512112
   6         0.00519230
   7         0.30349770
   8         0.00000000
   9        -0.00000000
  10         0.53903621
Sym=     5a  
Ene=    -0.4395
Spin= Alpha
Occup=    1.50000
   1         0.00000000
   2         0.00000000
   3         0.09411774
   4         0.11427306
   5        -0.00000000
   6         0.00000000
   7         0.00000000
   8         0.62288886
   9         0.75628057
  10         0.00000000
Sym=     6a  
Ene=    -0.4395
Spin= Alpha
Occup=    1.50000
   1        -0.00000000
   2        -0.00000000
   3         0.11427306
   4        -0.09411774
   5         0.00000000
   6        -0.00000000
   7        -0.00000000
   8         0.75628057
   9        -0.62288886
  10        -0.00000000
Sym=     7a  
Ene=    -0.4205
Spin= Alpha
Occup=    0.00000
   1         0.00579516
   2         0.63901322
   3         0.00000000
   4        -0.00000000
   5        -0.35322824
   6         0.00170879
   7        -0.00023269
   8         0.00000000
   9        -0.00000000
  10         0.70793231
Sym=     8a  
Ene=    -0.3068
Spin= Alpha
Occup=    0.00000
   1        -0.00000000
   2        -0.00000000
   3         0.96639685
   4        -0.21927833
   5        -0.00000000
   6         0.00000000
   7         0.00000000
   8        -0.20449567
   9         0.04640068
  10        -0.00000000
Sym=     9a  
Ene=    -0.3068
Spin= Alpha
Occup=    0.00000
   1        -0.00000000
   2        -0.00000000
   3         0.21927833
   4         0.96639685
   5        -0.00000000
   6         0.00000000
   7         0.00000000
   8        -0.04640068
   9        -0.20449567
  10        -0.00000000
Sym=    10a  
Ene=    -0.2668
Spin= Alpha
Occup=    0.00000
   1         0.00471128
   2         0.20501708
   3         0.00000000
   4         0.00000000
   5         0.95904764
   6        -0.01539878
   7        -0.28370238
   8        -0.00000000
   9         0.00000000
  10         0.50715002
