[Molden Format]
[N_Atoms]
                     2
[Atoms] (AU)
B1          1      5           0.00000000      0.00000000      0.00000000
N2          2      7           0.00000000      0.00000000      3.77945225
[Charge] (Mulliken)
  0.279076289513803     
 -0.279076289513828     
[GTO] (AU)
   1
   s  14
  3.336021700E+04  1.039699991E-04
  4.972095200E+03  5.254399956E-04
  1.125641700E+03  2.509059979E-03
  3.164913600E+02  1.031887991E-02
  1.020072600E+02  3.636632969E-02
  3.629587300E+01  1.064607991E-01
  1.397141000E+01  2.403999880E-01
  5.741156000E+00  3.748581168E-01
  2.494268000E+00  3.100066974E-01
  1.114202000E+00  7.922455933E-02
  4.215490000E-01 -4.947589958E-03
  1.696330000E-01 -7.737119935E-03
  6.853500000E-02 -1.501079987E-03
  2.398700000E-02 -1.333299989E-04
   s  14
  3.336021700E+04 -2.030000008E-05
  4.972095200E+03 -1.025700004E-04
  1.125641700E+03 -4.911300020E-04
  3.164913600E+02 -2.026570008E-03
  1.020072600E+02 -7.261010030E-03
  3.629587300E+01 -2.197722009E-02
  1.397141000E+01 -5.408428022E-02
  5.741156000E+00 -1.022402604E-01
  2.494268000E+00 -1.423595206E-01
  1.114202000E+00 -4.658690019E-02
  4.215490000E-01  3.799402916E-01
  1.696330000E-01  5.890463624E-01
  6.853500000E-02  1.749075107E-01
  2.398700000E-02 -1.142030005E-03
   p   9
  5.500000000E+01  1.229800005E-03
  1.336610100E+01  8.827380035E-03
  4.135394000E+00  3.843340015E-02
  1.481256000E+00  1.150031805E-01
  6.021360000E-01  2.733674011E-01
  2.556360000E-01  4.061972116E-01
  1.111510000E-01  3.014967912E-01
  4.764800000E-02  7.684809030E-02
  1.667700000E-02 -8.170000032E-06
 
   2
   s  14
  7.476171500E+04  1.182599996E-04
  1.112365400E+04  5.172899983E-04
  2.512685700E+03  2.266659992E-03
  7.037772900E+02  9.145289970E-03
  2.254787900E+02  3.239342989E-02
  7.961581000E+01  9.770792967E-02
  3.023728300E+01  2.317036792E-01
  1.226362200E+01  3.768898887E-01
  5.265086000E+00  3.177420689E-01
  2.333471000E+00  8.211308973E-02
  9.018560000E-01  3.312089989E-03
  3.583360000E-01  3.720819988E-03
  1.410930000E-01  3.165419989E-03
  4.938300000E-02  4.595799985E-04
   s  14
  7.476171500E+04 -2.707000010E-05
  1.112365400E+04 -1.183700004E-04
  2.512685700E+03 -5.203800020E-04
  7.037772900E+02 -2.102930008E-03
  2.254787900E+02 -7.568200028E-03
  7.961581000E+01 -2.346767009E-02
  3.023728300E+01 -6.042901023E-02
  1.226362200E+01 -1.170549104E-01
  5.265086000E+00 -1.555321506E-01
  2.333471000E+00 -2.468935009E-02
  9.018560000E-01  3.625054514E-01
  3.583360000E-01  5.550845021E-01
  1.410930000E-01  2.148376908E-01
  4.938300000E-02  8.983850034E-03
   p   9
  1.266665700E+02  1.233630000E-03
  2.983738900E+01  9.493409996E-03
  9.394038000E+00  4.293961998E-02
  3.405104000E+00  1.362925399E-01
  1.350000000E+00  2.921362499E-01
  5.576960000E-01  3.887887598E-01
  2.324490000E-01  2.946801399E-01
  9.426400000E-02  8.012875997E-02
  3.299200000E-02  5.405199998E-04
 
[MO]
Sym=     1a  
Ene=   -15.4430
Spin= Alpha
Occup=    2.00000
   1        -0.00008831
   2        -0.00089071
   3        -0.00000000
   4        -0.00000000
   5        -0.00084584
   6         1.00002874
   7        -0.00491800
   8        -0.00000000
   9        -0.00000000
  10        -0.00050348
Sym=     2a  
Ene=    -7.7810
Spin= Alpha
Occup=    2.00000
   1         0.99999307
   2         0.00359752
   3        -0.00000000
   4        -0.00000000
   5         0.00092533
   6         0.00009520
   7         0.00265945
   8        -0.00000000
   9        -0.00000000
  10         0.00123068
Sym=     3a  
Ene=    -0.8842
Spin= Alpha
Occup=    2.00000
   1        -0.01187978
   2         0.09722019
   3        -0.00000000
   4        -0.00000000
   5         0.07476700
   6         0.00124917
   7         0.95046070
   8        -0.00000000
   9        -0.00000001
  10        -0.02782855
Sym=     4a  
Ene=    -0.3134
Spin= Alpha
Occup=    2.00000
   1         0.00000000
   2        -0.00000009
   3         0.24571160
   4         0.28841325
   5        -0.00000002
   6         0.00000000
   7         0.00000004
   8         0.56988372
   9         0.66892249
  10         0.00000004
Sym=     5a  
Ene=    -0.3134
Spin= Alpha
Occup=    2.00000
   1        -0.00000000
   2         0.00000003
   3         0.28841325
   4        -0.24571160
   5         0.00000001
   6        -0.00000000
   7        -0.00000001
   8         0.66892249
   9        -0.56988372
  10        -0.00000001
Sym=     6a  
Ene=    -0.5147
Spin= Alpha
Occup=    1.93117
   1         0.00310330
   2        -0.97716903
   3        -0.00000002
   4        -0.00000004
   5         0.05659777
   6         0.01404252
   7         0.27057953
   8        -0.00000004
   9        -0.00000008
  10         0.11902438
Sym=     7a  
Ene=    -0.0017
Spin= Alpha
Occup=    0.06883
   1         0.00114337
   2        -0.01081912
   3         0.00000003
   4         0.00000006
   5        -0.97904997
   6         0.03356793
   7         0.37856130
   8        -0.00000003
   9        -0.00000007
  10         0.18985132
Sym=     8a  
Ene=     0.0603
Spin= Alpha
Occup=    0.00000
   1        -0.00000000
   2        -0.00000001
   3        -0.62922940
   4         0.69048482
   5         0.00000002
   6        -0.00000000
   7        -0.00000001
   8         0.33273532
   9        -0.36512707
  10        -0.00000002
Sym=     9a  
Ene=     0.0603
Spin= Alpha
Occup=    0.00000
   1         0.00000000
   2         0.00000002
   3        -0.69048482
   4        -0.62922940
   5        -0.00000005
   6         0.00000000
   7         0.00000002
   8         0.36512707
   9         0.33273532
  10         0.00000006
Sym=    10a  
Ene=     0.3245
Spin= Alpha
Occup=    0.00000
   1        -0.02225339
   2        -0.38465128
   3        -0.00000001
   4        -0.00000003
   5        -0.47266660
   6         0.02185265
   7         0.21677600
   8         0.00000002
   9         0.00000004
  10        -1.04115885
