   This run of MOLCAS is using the pymolcas driver

                             OPE
                             OPE          NMOL  CASOP  ENMOLC A   SO
                 OPE        NMOLC        AS  OP EN  MO LC     AS  OP
                OPENM       OL CA        SO  PE NM  OL CA     SOP EN
                OP EN      MO   LC       AS  OP ENMOL  CASO   PENMOL
                OP  EN     MO   LC       AS  OP EN     MO     LC ASO
               OP   E  NMOL  C  AS       OP  EN MO     LC     AS  OP
               OP  E   NMO   LC AS        OPEN  MO     LCASOP EN   M
               O  PEN   MO  LCA  SO
            OPE   NMO   L   CAS    OP
        OPENMOL  CASOP     ENMOL   CASOPE
     OPENMOLCA   SOPENMOLCASOPEN   MOLCASOPE
    OPENMOLCAS   OP           EN   MOL    CAS
    OPENMOLCAS       OP  ENM        O     LCA
    OPENMOLCAS    OPEN  MOLCASO     P  E  NMO
    OPENMOLCAS     OP               E  N  MOL
    OPENMOLCA   SO           PENM   O  L  CAS    OPEN    MO    LCAS
    OPENMOLCA   SOP           ENM   O  L  CAS   OP  EN  MOLC  AS   O
    OPENMOLCA   SOPE           NM      O  LCA   S      OP  EN MO
    OPENMOLC                AS         O  PEN   M      OL  CA  SOPE
    OPENMO        LCASOPE  NMOL        C  ASO   P      ENMOLC     AS
    OPE     NMO      LCA  SO     P     E   NM   OL  CA SO  PE N   MO
          OPENMOLCA            SOPE   NMO        LCAS  O    P  ENMO
     OPENMOLCASOPENMOLCASOPENMOLCASOPENMOLCA
        OPENMOLCASOPENMOLCASOPENMOLCASOPE
            OPENMOLCASOPENMOLCASOPENM
               OPENMOLCASOPENMOLCA        version: 44d3b5344-dirty
                   OPENMOLCASO
                       OPE                tag:

 OpenMolcas is free software; you can redistribute it and/or modify it
 under the terms of the GNU Lesser General Public License version 2.1.
 OpenMolcas is distributed in the hope that it will be useful, but it
 is provided "as is" and without any express or implied warranties.
 For more details see the full text of the license in the file
 LICENSE or in <http://www.gnu.org/licenses/>.

                 Copyright (C) The OpenMolcas Authors
           For the author list and the recommended citation,
                   consult the file CONTRIBUTORS.md

           *************************************************
           * pymolcas version py2.28                       *
           *   build c4a6d18ded8cb6cad61d2372a9abd97c      *
           *   (after the EMIL interpreter by V. Veryazov) *
           *************************************************

configuration info
------------------
C Compiler ID: GNU
C flags: -std=gnu99
Fortran Compiler ID: Intel
Fortran flags: -fpp -i8 -r8 -heap-arrays
Definitions: _MOLCAS_;_I8_;_LINUX_
Parallel: OFF (GA=OFF)


   ------------------------------------------------------------------------------
  |
  |              Project: O3_123
  |       Submitted from: /home/grierjones/DDCASPT2/ozone/basis_sets/MB/O3/O3_123
  |         Scratch area: /tmp/MOLCASTMP/O3_123
  |      Save outputs to: /home/grierjones/DDCASPT2/ozone/basis_sets/MB/O3/O3_123
  |               Molcas: /home/grierjones/Test/build
  |
  | Scratch area is empty
  |
  |       MOLCAS_DRIVER = /usr/local/pymolcas
  | MOLCAS_KEEP_WORKDIR = NO
  |  MOLCAS_NEW_WORKDIR = YES
  |       MOLCAS_NPROCS = 1
  |       MOLCAS_SOURCE = /home/grierjones/Test/build
  |    MOLCAS_STRUCTURE = 0
  |
   ------------------------------------------------------------------------------

++ ---------   Input file   ---------

&GATEWAY
coord=O3_123.xyz
Basis = ANO-RCC-MB
Group = nosymm
Expert
End of Input

&SEWARD
End of Input

&MOTRA
Frozen=0

>>> COPY $WorkDir/GMJ_one_int_indx.csv $CurrDir/O3_123.GMJ_one_int_indx.csv

>>> COPY $WorkDir/GMJ_one_int.csv $CurrDir/O3_123.GMJ_one_int.csv

>>> COPY $WorkDir/GMJ_two_int_indx.csv $CurrDir/O3_123.GMJ_two_int_indx.csv

>>> COPY $WorkDir/GMJ_two_int.csv $CurrDir/O3_123.GMJ_two_int.csv

&SCF

>>> COPY $WorkDir/O3_123.scf.h5 $CurrDir/

&RASSCF
Title= RASSCF
FileOrb
/home/grierjones/DDCASPT2/ozone/basis_sets/MB/O3/O3_122/O3_122.RasOrb

NACTEL
4 0 0
Inactive
10
RAS2
3
Symmetry
1
Spin
1
orblisting
all
ITERation
200 100
CIMX
200
SDAV
500
PRWF
0
PRSD

>>> COPY $WorkDir/O3_123.rasscf.h5 $CurrDir/

>>> COPY $WorkDir/GMJ_Fock_MO.csv $CurrDir/O3_123.GMJ_Fock_MO.csv

&CASPT2
Frozen
0
Imaginary Shift
0.0

>>> FOREACH i IN (B,E,F,G,H)

  >>> FOREACH j IN (P,M)

    >>> IF (-FILE GMJ_e2_${i}_${j}.csv)

      >>> COPY $WorkDir/GMJ_RHS_${i}_${j}.csv $CurrDir/GMJ_RHS_${i}_${j}.csv

      >>> COPY $WorkDir/GMJ_IVECW_${i}_${j}.csv $CurrDir/GMJ_IVECW_${i}_${j}.csv

      >>> COPY $WorkDir/GMJ_e2_${i}_${j}.csv $CurrDir/GMJ_e2_${i}_${j}.csv

    >>> END IF

  >>> END FOREACH

>>> END FOREACH

>>> FOREACH i IN (A,C,D)

  >>> IF (-FILE GMJ_e2_$i.csv)

    >>> COPY $WorkDir/GMJ_RHS_$i.csv $CurrDir/GMJ_RHS_$i.csv

    >>> COPY $WorkDir/GMJ_IVECW_$i.csv $CurrDir/GMJ_IVECW_$i.csv

    >>> COPY $WorkDir/GMJ_e2_$i.csv $CurrDir/GMJ_e2_$i.csv

  >>> END IF

>>> END FOREACH

-- ----------------------------------

--- Start Module: gateway at Tue Jul 30 20:43:20 2024 ---
 
()()()()()()()()()()()()()()()()()()()()()()()()()()()()()()()()()()()()()()()()()()()()()()()()()()

                                              &GATEWAY

                                   only a single process is used
                       available to each process: 2.0 GB of memory, 1 thread?
()()()()()()()()()()()()()()()()()()()()()()()()()()()()()()()()()()()()()()()()()()()()()()()()()()
 
 ###############################################################################
 ###############################################################################
 ###                                                                         ###
 ###                                                                         ###
 ###                                                                         ###
 ###    WARNING: EXPERT option is ON!                                        ###
 ###                                                                         ###
 ###                                                                         ###
 ###############################################################################
 ###############################################################################
 
++    Symmetry information:
      ---------------------
 
                    Character Table for C1 
 
                             E  
                    a        1  x, y, xy, Rz, z, xz, Ry, yz, Rx, I
--
 
 
++    Basis set information:
      ----------------------
 
 
      Basis set label: O.ANO-RCC...2S1P.
 
      Electronic valence basis set:
      ------------------
      Associated Effective Charge   8.000000 au
      Associated Actual Charge      8.000000 au
      Nuclear Model: Point charge
 
      Shell  nPrim  nBasis  Cartesian Spherical Contaminant
         s      14       2        X                  
         p       9       1        X                  
--
 
 
++    Molecular structure info:
      -------------------------
 
                    ************************************************ 
                    **** Cartesian Coordinates / Bohr, Angstrom **** 
                    ************************************************ 
 
     Center  Label                x              y              z                     x              y              z
        1      O1               1.152372       2.122404       0.000000              0.609809       1.123128       0.000000
        2      O2               0.000000       0.000000       0.000000              0.000000       0.000000       0.000000
        3      O3               1.152372      -2.122404       0.000000              0.609809      -1.123128       0.000000
 
                    *************************************** 
                    *    InterNuclear Distances / Bohr    * 
                    *************************************** 
 
               1 O1            2 O2            3 O3    
    1 O1       0.000000
    2 O2       2.415070        0.000000
    3 O3       4.244809        2.415070        0.000000
 
                    ******************************************* 
                    *    InterNuclear Distances / Angstrom    * 
                    ******************************************* 
 
               1 O1            2 O2            3 O3    
    1 O1       0.000000
    2 O2       1.278000        0.000000
    3 O3       2.246256        1.278000        0.000000
 
                    ************************************** 
                    *    Valence Bond Angles / Degree    * 
                    ************************************** 
                          Atom centers                 Phi
                      1 O1       2 O2       3 O3       123.00
--
 
 
            Nuclear Potential Energy             68.07778247 au
 
 ###############################################################################
 ###############################################################################
 ###                                                                         ###
 ###                                                                         ###
 ###    There were warnings during the execution                             ###
 ###    Please, check the output with care!                                  ###
 ###                                                                         ###
 ###                                                                         ###
 ###############################################################################
 ###############################################################################
--- Stop Module: gateway at Tue Jul 30 20:43:20 2024 /rc=_RC_ALL_IS_WELL_ ---
*** files: xmldump
    saved to directory /home/grierjones/DDCASPT2/ozone/basis_sets/MB/O3/O3_123

--- Start Module: seward at Tue Jul 30 20:43:20 2024 ---
 
()()()()()()()()()()()()()()()()()()()()()()()()()()()()()()()()()()()()()()()()()()()()()()()()()()

                                              &SEWARD

                                   only a single process is used
                       available to each process: 2.0 GB of memory, 1 thread?
()()()()()()()()()()()()()()()()()()()()()()()()()()()()()()()()()()()()()()()()()()()()()()()()()()
 
 ###############################################################################
 ###############################################################################
 ###                                                                         ###
 ###                                                                         ###
 ###                                                                         ###
 ###    WARNING: EXPERT option is ON!                                        ###
 ###                                                                         ###
 ###                                                                         ###
 ###############################################################################
 ###############################################################################
               SEWARD will generate:
                  Multipole Moment integrals up to order  2
                  Kinetic Energy integrals
                  Nuclear Attraction integrals (point charge)
                  One-Electron Hamiltonian integrals
                  Velocity integrals
                  Relativistic Douglas-Kroll-Hess integrals:
                    - Parametrization         : EXP
                    - DKH order of Hamiltonian: 2
                    - DKH order of Properties : 0
                         - multipole moment operators
                         - electric potential operators
                         - contact operators
                  Atomic mean-field integrals
                  Two-Electron Repulsion integrals
 
                   Integrals are discarded if absolute value <: 0.10E-13
                   Integral cutoff threshold is set to       <: 0.10E-15
 
            Nuclear Potential Energy             68.07778247 au
 
 
      Basis set specifications :
      Symmetry species         a  
      Basis functions           15
 
 
  Input file to MOLDEN was generated!
 
 ###############################################################################
 ###############################################################################
 ###                                                                         ###
 ###                                                                         ###
 ###    There were warnings during the execution                             ###
 ###    Please, check the output with care!                                  ###
 ###                                                                         ###
 ###                                                                         ###
 ###############################################################################
 ###############################################################################
--- Stop Module: seward at Tue Jul 30 20:43:20 2024 /rc=_RC_ALL_IS_WELL_ ---
*** files: O3_123.GssOrb O3_123.guessorb.h5 O3_123.guessorb.molden xmldump
    saved to directory /home/grierjones/DDCASPT2/ozone/basis_sets/MB/O3/O3_123

*** symbolic link created: INPORB -> O3_123.GssOrb
--- Start Module: motra at Tue Jul 30 20:43:20 2024 ---
 
()()()()()()()()()()()()()()()()()()()()()()()()()()()()()()()()()()()()()()()()()()()()()()()()()()

                                               &MOTRA

                                   only a single process is used
                       available to each process: 2.0 GB of memory, 1 thread?
()()()()()()()()()()()()()()()()()()()()()()()()()()()()()()()()()()()()()()()()()()()()()()()()()()
 
 
      *** WARNING: Default frozen orbitals is overwritten by user input.
      *** Default values:   3
 
      Header of the integral files:
      
       Integrals generated by seward 4.2.0  , Tue Jul 30 20:43:20 2024
 
 
      Header of MO coefficients source file:
      *Guess orbitals                                                                 
 
 
      Cartesian coordinates in Angstrom:
      -----------------------------------------------------
      No.  Label        X            Y            Z        
      -----------------------------------------------------
       1   O1         0.60980900   1.12312800   0.00000000
       2   O2         0.00000000   0.00000000   0.00000000
       3   O3         0.60980900  -1.12312800   0.00000000
      -----------------------------------------------------
      Nuclear repulsion energy =   68.07778247
 
      Orbital specifications:
      -----------------------
 
      Symmetry species:              1
      Number of basis functions:    15
      Frozen orbitals:               0
      Deleted orbitals:              0
      Number of orbitals used:      15

       SYMMETRY  BASIS FUNCTIONS       ORBITALS      INTEGRALS   CPU(SEC)  I/O(SEC)
 
        1 1 1 1   15  15  15  15    15  15  15  15        7260       0.00      0.00

       TOTAL CPU TIME(SEC)    0.04TOTAL I/O TIME(SEC)    0.08
 
--- Stop Module: motra at Tue Jul 30 20:43:20 2024 /rc=_RC_ALL_IS_WELL_ ---
*** files: xmldump
    saved to directory /home/grierjones/DDCASPT2/ozone/basis_sets/MB/O3/O3_123

>>> COPY /tmp/MOLCASTMP/O3_123/GMJ_one_int_indx.csv /home/grierjones/DDCASPT2/ozone/basis_sets/MB/O3/O3_123/O3_123.GMJ_one_int_indx.csv

>>> COPY /tmp/MOLCASTMP/O3_123/GMJ_one_int.csv /home/grierjones/DDCASPT2/ozone/basis_sets/MB/O3/O3_123/O3_123.GMJ_one_int.csv

>>> COPY /tmp/MOLCASTMP/O3_123/GMJ_two_int_indx.csv /home/grierjones/DDCASPT2/ozone/basis_sets/MB/O3/O3_123/O3_123.GMJ_two_int_indx.csv

>>> COPY /tmp/MOLCASTMP/O3_123/GMJ_two_int.csv /home/grierjones/DDCASPT2/ozone/basis_sets/MB/O3/O3_123/O3_123.GMJ_two_int.csv

*** symbolic link created: INPORB -> O3_123.GssOrb
--- Start Module: scf at Tue Jul 30 20:43:20 2024 ---
 
()()()()()()()()()()()()()()()()()()()()()()()()()()()()()()()()()()()()()()()()()()()()()()()()()()

                                                &SCF

                                   only a single process is used
                       available to each process: 2.0 GB of memory, 1 thread?
()()()()()()()()()()()()()()()()()()()()()()()()()()()()()()()()()()()()()()()()()()()()()()()()()()
 
++    Input section:
      --------------
 
      Header of the integral files:
      
       Integrals generated by seward 4.2.0  , Tue Jul 30 20:43:20 2024
 
 
      Cartesian coordinates in Angstrom:
      -----------------------------------------------------
      No.  Label        X            Y            Z        
      -----------------------------------------------------
       1   O1         0.60980900   1.12312800   0.00000000
       2   O2         0.00000000   0.00000000   0.00000000
       3   O3         0.60980900  -1.12312800   0.00000000
      -----------------------------------------------------
      Nuclear repulsion energy =   68.07778247
--
 
++    Orbital specifications:
      -----------------------
 
      Symmetry species               1
                                     a
      Frozen orbitals                0
      Occupied orbitals             12
      Secondary orbitals             3
      Deleted orbitals               0
      Total number of orbitals      15
      Number of basis functions     15
--
 
      Molecular charge                           0.000
 
++    Optimization specifications:
      ----------------------------
 
      SCF Algorithm: Conventional
      Minimized density differences are used
      Number of density matrices in core                5
      Maximum number of NDDO SCF iterations           400
      Maximum number of HF SCF iterations             400
      Threshold for SCF energy change            0.10E-08
      Threshold for density matrix               0.10E-03
      Threshold for Fock matrix                  0.15E-03
      Threshold for linear dependence            0.10E-08
      Threshold at which DIIS is turned on       0.15E+00
      Threshold at which QNR/C2DIIS is turned on 0.75E-01
      Threshold for Norm(delta) (QNR/C2DIIS)     0.20E-04
      DIIS extrapolation of the SCF procedure
      All orbitals punched on: SCFORB
--
 
      Input vectors read from INPORB
      Orbital file label: *Guess orbitals
 
 
++ Convergence information
                                   SCF        iterations: Energy and convergence statistics
 
Iter     Tot. SCF        One-elec.       Two-elec.     Energy      Max Dij or  Max Fij      DNorm      TNorm      AccCon     Time
         Energy          Energy          Energy        Change      Delta Norm                                                in Sec.
   1  -223.897527225  -439.813728937   147.838419238   0.00E+00    0.62E+00*   0.26E+00*    0.74E+01   0.49E+02   None         0.
   2  -224.155683544  -442.791149129   150.557683110  -0.26E+00*   0.42E+00*   0.14E+00*    0.24E+01   0.50E+02   EDIIS        0.
   3  -224.213111597  -441.429767141   149.138873070  -0.57E-01*   0.13E+00*   0.79E-01*    0.54E+00   0.50E+02   EDIIS        0.
   4  -224.243265721  -442.209979443   149.888931248  -0.30E-01*   0.16E-01*   0.23E-01*    0.92E-01   0.50E+02   c2DIIS       0.
   5  -224.247991868  -442.005617169   149.679842826  -0.47E-02*   0.56E-02*   0.34E-02*    0.18E-01   0.50E+02   QNRc2DIIS    0.
   6  -224.248075219  -442.011528328   149.685670635  -0.83E-04*   0.94E-02*   0.19E-02*    0.69E-02   0.50E+02   QNRc2DIIS    0.
   7  -224.248125379  -442.008894613   149.682986760  -0.50E-04*   0.12E-02*   0.97E-03*    0.42E-02   0.50E+02   QNRc2DIIS    0.
   8  -224.248127484  -442.013859304   149.687949346  -0.21E-05*   0.56E-03*   0.39E-03*    0.41E-03   0.50E+02   QNRc2DIIS    0.
   9  -224.248128172  -442.011471506   149.685560859  -0.69E-06*   0.46E-04*   0.25E-04     0.13E-03   0.50E+02   QNRc2DIIS    0.
  10  -224.248128176  -442.011536211   149.685625562  -0.32E-08*   0.26E-05    0.19E-05     0.29E-04   0.50E+02   QNRc2DIIS    0.
  11  -224.248128176  -442.011534726   149.685624077  -0.14E-10    0.55E-06    0.49E-06     0.95E-04   0.50E+02   QNRc2DIIS    0.
 
       Convergence after 11 Macro Iterations
--
 
 *****************************************************************************************************************************
 *                                                                                                                           *
 *                                             SCF/KS-DFT Program, Final results                                             *
 *                                                                                                                           *
 *                                                                                                                           *
 *                                                                                                                           *
 *                                                       Final Results                                                       *
 *                                                                                                                           *
 *****************************************************************************************************************************
 
::    Total SCF energy                               -224.2481281756
      One-electron energy                            -442.0115347263
      Two-electron energy                             149.6856240766
      Nuclear repulsion energy                         68.0777824741
      Kinetic energy (interpolated)                   224.7473943875
      Virial theorem                                    0.9977785450
      Total spin, S(S+1)                                0.0000000000
      Total spin, S                                     0.0000000000
      Max non-diagonal density matrix element           0.0000005654
      Max non-diagonal Fock matrix element              0.0000000817
 
 
      All orbitals with orbital energies smaller than  E(LUMO)+0.5 are printed
 
++    Molecular orbitals:
      -------------------
 
      Title: SCF orbitals

      Molecular orbitals for symmetry species 1: a  
 
          Orbital            1         2         3         4         5         6         7         8         9        10    
          Energy          -21.0600  -20.7942  -20.7941   -1.8041   -1.4866   -1.1312   -0.8673   -0.8304   -0.8196   -0.6205
          Occ. No.          2.0000    2.0000    2.0000    2.0000    2.0000    2.0000    2.0000    2.0000    2.0000    2.0000
 
        1 O1     1s         0.0010   -0.7071    0.7071   -0.0189    0.0132    0.0095   -0.0165    0.0000   -0.0245    0.0039
        2 O1     2s        -0.0004   -0.0003    0.0001    0.2876   -0.5629    0.6014   -0.2856    0.0000   -0.4348    0.0615
        3 O1     2px       -0.0001    0.0006   -0.0006   -0.0546    0.0493    0.0852    0.1660   -0.0000   -0.3284   -0.5435
        4 O1     2py        0.0002    0.0012   -0.0010   -0.0950    0.0999    0.0839   -0.3061    0.0000   -0.2666    0.4891
        5 O1     2pz        0.0000   -0.0000   -0.0000    0.0000   -0.0000   -0.0000    0.0000    0.3442    0.0000   -0.0000
        6 O2     1s         1.0000    0.0000   -0.0017   -0.0231   -0.0000   -0.0158   -0.0067    0.0000   -0.0000   -0.0000
        7 O2     2s        -0.0000    0.0000   -0.0011    0.6551   -0.0000   -0.6580   -0.0793    0.0000   -0.0000   -0.0000
        8 O2     2px        0.0015    0.0000   -0.0002    0.1465   -0.0000    0.2147    0.7130   -0.0000    0.0000    0.0000
        9 O2     2py        0.0000    0.0006    0.0000   -0.0000   -0.3434    0.0000   -0.0000   -0.0000    0.5904   -0.1591
       10 O2     2pz        0.0000   -0.0000   -0.0000    0.0000    0.0000    0.0000    0.0000    0.7349    0.0000   -0.0000
       11 O3     1s         0.0010    0.7071    0.7071   -0.0189   -0.0132    0.0095   -0.0165    0.0000    0.0245   -0.0039
       12 O3     2s        -0.0004    0.0003    0.0001    0.2876    0.5629    0.6014   -0.2856   -0.0000    0.4348   -0.0615
       13 O3     2px       -0.0001   -0.0006   -0.0006   -0.0546   -0.0493    0.0852    0.1660   -0.0000    0.3284    0.5435
       14 O3     2py       -0.0002    0.0012    0.0010    0.0950    0.0999   -0.0839    0.3061   -0.0000   -0.2666    0.4891
       15 O3     2pz       -0.0000    0.0000    0.0000   -0.0000    0.0000    0.0000    0.0000    0.3442    0.0000    0.0000
 
          Orbital           11        12        13        14        15    
          Energy           -0.5856   -0.5265   -0.1067    0.2317    0.3907
          Occ. No.          2.0000    2.0000    0.0000    0.0000    0.0000
 
        1 O1     1s         0.0069   -0.0000    0.0000   -0.0257   -0.0463
        2 O1     2s         0.0608   -0.0000    0.0000   -0.3043   -0.4410
        3 O1     2px        0.6578    0.0000   -0.0000    0.2377    0.4185
        4 O1     2py       -0.1204   -0.0000    0.0000    0.7008    0.5515
        5 O1     2pz        0.0000   -0.7221    0.6377    0.0000   -0.0000
        6 O2     1s         0.0180    0.0000   -0.0000    0.0830    0.0000
        7 O2     2s         0.2149    0.0000   -0.0000    0.8257    0.0000
        8 O2     2px       -0.5292   -0.0000    0.0000    0.5859    0.0000
        9 O2     2py       -0.0000    0.0000   -0.0000   -0.0000    1.0160
       10 O2     2pz       -0.0000   -0.0000   -0.7438   -0.0000    0.0000
       11 O3     1s         0.0069   -0.0000    0.0000   -0.0257    0.0463
       12 O3     2s         0.0608   -0.0000    0.0000   -0.3043    0.4410
       13 O3     2px        0.6578    0.0000   -0.0000    0.2377   -0.4185
       14 O3     2py        0.1204   -0.0000    0.0000   -0.7008    0.5515
       15 O3     2pz       -0.0000    0.7221    0.6377   -0.0000   -0.0000
--
 
 
++    Molecular charges:
      ------------------
 
      Mulliken charges per centre and basis function type
      ---------------------------------------------------
 
                O1      O2      O3    
      1s       2.0001  2.0001  2.0001
      2s       1.9164  1.7643  1.9164
      2px      1.7446  1.6860  1.7446
      2pz      1.3534  1.2933  1.3534
      2py      1.0478  1.1319  1.0478
      Total    8.0622  7.8755  8.0622
 
      N-E     -0.0622  0.1245 -0.0622
 
      Total electronic charge=   24.000000
 
      Total            charge=   -0.000000
--
 
 
  Input file to MOLDEN was generated!
 
 
++    Static properties:
      ------------------
 
 
      LoProp Charges per center
 

                   O1       O2       O3    
      Nuclear      8.0000   8.0000   8.0000
      Electronic  -8.1100  -7.7799  -8.1100
 
      Total       -0.1100   0.2201  -0.1100
--
 
 
++    Natural Bond Order analysis
      ---------------------------
      Based on LoProp computed density
      -------------------------------------------------------------------------------------
      Atom A       Atom B       Bond Order | Atom A       Atom B       Bond Order
        O1           O2             2.000  |   O2           O3             2.000
      -------------------------------------------------------------------------------------
      NBO located     12.000 core electrons.
      NBO located      3.953 lone pair electrons.
      NBO located      8.000 electrons involved in    2 bonds.
      The remaining    0.047 electrons are to be considered as diffuse
--
 
 
++    Molecular properties:
      ---------------------
 
      Charge (e):
                      =   -0.0000
      Dipole Moment (Debye):
      Origin of the operator (Ang)=    0.0000    0.0000    0.0000
                   X= -1.9191E-01               Y= -1.6608E-11               Z=  2.4152E-14           Total=  1.9191E-01
      Quadrupole Moment (Debye*Ang):
      Origin of the operator (Ang)=    0.4065    0.0000    0.0000
                  XX= -1.7391E+01              XY= -1.4731E-11              XZ= -1.4079E-13              YY= -1.8432E+01
                  YZ=  7.5839E-14              ZZ= -1.5778E+01
      In traceless form (Debye*Ang)
                  XX= -2.8565E-01              XY= -2.2097E-11              XZ= -2.1118E-13              YY= -1.8480E+00
                  YZ=  1.1376E-13              ZZ=  2.1337E+00
--
 
 
  Input file to MOLDEN was generated!
 
 ###############################################################################
 ###############################################################################
 ###                                                                         ###
 ###                                                                         ###
 ###    RunFile label nBas                                                   ###
 ###    was used       78 times                                              ###
 ###                                                                         ###
 ###                                                                         ###
 ###############################################################################
 ###############################################################################
--- Stop Module: scf at Tue Jul 30 20:43:20 2024 /rc=_RC_ALL_IS_WELL_ ---
*** files: O3_123.LprOrb O3_123.LoProp.molden O3_123.scf.molden O3_123.ScfOrb O3_123.scf.h5 xmldump
    saved to directory /home/grierjones/DDCASPT2/ozone/basis_sets/MB/O3/O3_123

>>> COPY /tmp/MOLCASTMP/O3_123/O3_123.scf.h5 /home/grierjones/DDCASPT2/ozone/basis_sets/MB/O3/O3_123/

*** symbolic link created: INPORB -> O3_123.ScfOrb
--- Start Module: rasscf at Tue Jul 30 20:43:20 2024 ---
 
()()()()()()()()()()()()()()()()()()()()()()()()()()()()()()()()()()()()()()()()()()()()()()()()()()

                                              &RASSCF

                                   only a single process is used
                       available to each process: 2.0 GB of memory, 1 thread?
()()()()()()()()()()()()()()()()()()()()()()()()()()()()()()()()()()()()()()()()()()()()()()()()()()
 
 
      Header of the ONEINT file:
      --------------------------
      
      Integrals generated by seward 4.2.0  , Tue Jul 30 20:43:20 2024
 
 
      OrdInt status: non-squared
 
 
      Cartesian coordinates in Angstrom:
      -----------------------------------------------------
      No.  Label        X            Y            Z        
      -----------------------------------------------------
       1   O1         0.60980900   1.12312800   0.00000000
       2   O2         0.00000000   0.00000000   0.00000000
       3   O3         0.60980900  -1.12312800   0.00000000
      -----------------------------------------------------
      Nuclear repulsion energy =   68.07778247
 
++    Wave function specifications:
      -----------------------------
 
      Number of closed shell electrons          20
      Number of electrons in active shells       4
      Max number of holes in RAS1 space          0
      Max nr of electrons in RAS3 space          0
      Number of inactive orbitals               10
      Number of active orbitals                  3
      Number of secondary orbitals               2
      Spin quantum number                      0.0
      State symmetry                             1
--
 
++    Orbital specifications:
      -----------------------
 
      Symmetry species                           1
                                                 a
      Frozen orbitals                            0
      Inactive orbitals                         10
      Active orbitals                            3
      RAS1 orbitals                              0
      RAS2 orbitals                              3
      RAS3 orbitals                              0
      Secondary orbitals                         2
      Deleted orbitals                           0
      Number of basis functions                 15
--
 
++    CI expansion specifications:
      ----------------------------
 
      Number of CSFs                             6
      Number of determinants                     6
      Number of root(s) required                 1
      Root chosen for geometry opt.              1
      CI root used                               1
         
      highest root included in the CI            1
      max. size of the explicit Hamiltonian      6
--
 
++    Optimization specifications:
      ----------------------------
 
      RASSCF algorithm: Conventional
      Maximum number of macro iterations       200
      Maximum number of SX iterations          100
      Threshold for RASSCF energy            0.100E-07
      Threshold for max MO rotation          0.100E+00
      Threshold for max BLB element          0.100E-03
      Level shift parameter                  0.500E+00
      Make Quasi-Newton update
--
 
      The MO-coefficients are taken from the file:
      /home/grierjones/DDCASPT2/ozone/basis_sets/MB/O3/O3_122/O3_122.RasOrb                                                           
      Title: RASSCF average (pseudo-natural) orbitals                                      
 
      Total molecular charge    0.00
 
      ************************************************************************************************************************
      *                                                                                                                      *
      *                                            Wave function control section                                             *
      *                                                                                                                      *
      ************************************************************************************************************************
 
 
                                         RASSCF iterations: Energy and convergence statistics
                                         ----------------------------------------------------
 
      Iter CI   SX   CI       RASSCF       Energy    max ROT     max BLB   max BLB  Level Ln srch  Step   QN   Walltime
          iter iter root      energy       change     param      element    value   shift minimum  type update hh:mm:ss
 Nr of preliminary CI iterations:   1
        1   1    3    1  -224.36467525    0.00E+00   0.25E-02    7  14 1 -0.66E-02*  0.24   0.00    SX    NO    0:00:00
        2   1    3    1  -224.36473344   -0.58E-04* -0.13E-02    9  15 1  0.34E-02*  0.24   0.00    SX    NO    0:00:00
        3   1    3    1  -224.36475239   -0.19E-04* -0.84E-03    7  14 1 -0.22E-02*  0.24   0.00    SX    NO    0:00:00
        4   1    3    1  -224.36475953   -0.71E-05*  0.47E-03    9  15 1  0.12E-02*  0.24   0.00    SX    NO    0:00:00
        5   1    3    1  -224.36476211   -0.26E-05*  0.70E-03    7  14 1 -0.75E-03*  0.24   2.50    LS   YES    0:00:00
        6   1    3    1  -224.36476371   -0.16E-05*  0.13E-03   10  14 1 -0.18E-03*  0.24   1.09    QN   YES    0:00:00
        7   1    3    1  -224.36476376   -0.48E-07* -0.82E-04   10  14 1 -0.80E-04   0.24   1.47    QN   YES    0:00:00
        8   1    2    1  -224.36476377   -0.13E-07*  0.14E-04    7  14 1  0.26E-04   0.24   1.15    QN   YES    0:00:00
        9   1    2    1  -224.36476377   -0.80E-09  -0.39E-05    4  14 1  0.61E-05   0.24   1.22    QN   YES    0:00:00
      Convergence after  9 iterations
       10   1    2    1  -224.36476377   -0.62E-10  -0.39E-05    4  14 1  0.38E-05   0.24   1.22    QN   YES    0:00:00
 
      ************************************************************************************************************************
                                                      Wave function printout:
                       occupation of active orbitals, and spin coupling of open shells (u,d: Spin up or down)
      ************************************************************************************************************************
 
      Note: transformation to natural orbitals
      has been made, which may change the order of the CSFs.
 
      printout of CI-coefficients larger than  0.00 for root  1
      energy=    -224.364764
      conf/sym  111     Coeff  Weight
             1  220  -0.87161 0.75971
 
   + sqrt(     1/1     )  |220|
 
             2  2ud   0.00000 0.00000
 
   + sqrt(     1/2     )  |2ab|
   - sqrt(     1/2     )  |2ba|
 
             3  202   0.48634 0.23653
 
   + sqrt(     1/1     )  |202|
 
             4  u2d   0.00000 0.00000
 
   - sqrt(     1/2     )  |a2b|
   + sqrt(     1/2     )  |b2a|
 
             5  ud2  -0.00000 0.00000
 
   + sqrt(     1/2     )  |ab2|
   - sqrt(     1/2     )  |ba2|
 
             6  022   0.06131 0.00376
 
   + sqrt(     1/1     )  |022|
 
 
      Natural orbitals and occupation numbers for root  1
      sym 1:   1.992482   1.526940   0.480579
 
      ************************************************************************************************************************
      *                                                                                                                      *
      *                                                    Final results                                                     *
      *                                                                                                                      *
      ************************************************************************************************************************
 
 
++    Wave function specifications:
      -----------------------------
 
      Number of closed shell electrons          20
      Number of electrons in active shells       4
      Max number of holes in RAS1 space          0
      Max nr of electrons in RAS3 space          0
      Number of inactive orbitals               10
      Number of active orbitals                  3
      Number of secondary orbitals               2
      Spin quantum number                      0.0
      State symmetry                             1
--
 
++    Orbital specifications:
      -----------------------
 
      Symmetry species                           1
                                                 a
      Frozen orbitals                            0
      Inactive orbitals                         10
      Active orbitals                            3
      RAS1 orbitals                              0
      RAS2 orbitals                              3
      RAS3 orbitals                              0
      Secondary orbitals                         2
      Deleted orbitals                           0
      Number of basis functions                 15
--
 
++    CI expansion specifications:
      ----------------------------
 
      Number of CSFs                             6
      Number of determinants                     6
      Number of root(s) required                 1
      CI root used                               1
      highest root included in the CI            1
      Root passed to geometry opt.               1
--
 
++    Final optimization conditions:
      ------------------------------
 
      Average CI energy                            -224.36476377
      RASSCF energy for state  1                   -224.36476377
      Super-CI energy                                -0.00000000
      RASSCF energy change                           -0.00000000
      Max change in MO coefficients              -0.321E-05
      Max non-diagonal density matrix element    -0.388E-05
      Maximum BLB matrix element                  0.380E-05
      (orbital pair   4,  14 in symmetry   1)
      Norm of electronic gradient            0.692E-05
--
 
 
      Final state energy(ies):
      ------------------------
 
::    RASSCF root number  1 Total energy:   -224.36476377
 
++    Molecular orbitals:
      -------------------
 
      Pseudonatural active orbitals and approximate occupation numbers
 
 
 
 
      Molecular orbitals for symmetry species 1: a  
 
 
      Orbital                1         2         3         4         5         6         7         8         9        10
      Energy          -20.9260  -20.8252  -20.8252   -1.7706   -1.4789   -1.1184   -0.8340   -0.8103   -0.6348   -0.5774
      Occ. No.          2.0000    2.0000    2.0000    2.0000    2.0000    2.0000    2.0000    2.0000    2.0000    2.0000
 
    1 O1     1s         0.0024   -0.7071    0.7071   -0.0180    0.0112    0.0114   -0.0136   -0.0218    0.0037    0.0068
    2 O1     2s        -0.0005   -0.0002    0.0000    0.3185   -0.5881    0.6072   -0.2160   -0.3831    0.0613    0.0514
    3 O1     2px       -0.0001    0.0006   -0.0006   -0.0565    0.0475    0.1004    0.2425   -0.3704   -0.5266    0.6405
    4 O1     2py        0.0003    0.0012   -0.0010   -0.1034    0.0995    0.1185   -0.3414   -0.2921    0.5067   -0.0487
    5 O1     2pz        0.0000    0.0000   -0.0000   -0.0000    0.0000   -0.0000    0.0000   -0.0000   -0.0000    0.0000
    6 O2     1s         1.0000    0.0000   -0.0037   -0.0256    0.0000   -0.0122   -0.0092   -0.0000    0.0000    0.0239
    7 O2     2s         0.0005    0.0000   -0.0011    0.6113   -0.0000   -0.6559   -0.1398   -0.0000    0.0000    0.3002
    8 O2     2px        0.0018    0.0000   -0.0002    0.1450   -0.0000    0.1395    0.6292    0.0000   -0.0000   -0.5861
    9 O2     2py        0.0000    0.0006    0.0000   -0.0000   -0.2991    0.0000   -0.0000    0.5313   -0.1553    0.0000
   10 O2     2pz        0.0000   -0.0000   -0.0000    0.0000   -0.0000    0.0000    0.0000    0.0000   -0.0000   -0.0000
   11 O3     1s         0.0024    0.7071    0.7071   -0.0180   -0.0112    0.0114   -0.0136    0.0218   -0.0037    0.0068
   12 O3     2s        -0.0005    0.0002    0.0000    0.3185    0.5881    0.6072   -0.2160    0.3831   -0.0613    0.0514
   13 O3     2px       -0.0001   -0.0006   -0.0006   -0.0565   -0.0475    0.1004    0.2425    0.3704    0.5266    0.6405
   14 O3     2py       -0.0003    0.0012    0.0010    0.1034    0.0995   -0.1185    0.3414   -0.2921    0.5067    0.0487
   15 O3     2pz       -0.0000   -0.0000    0.0000    0.0000    0.0000    0.0000   -0.0000   -0.0000   -0.0000   -0.0000
 
 
      Orbital               11        12        13        14        15
      Energy            0.0000    0.0000    0.0000    0.2370    0.4253
      Occ. No.          1.9925    1.5269    0.4806    0.0000    0.0000
 
    1 O1     1s         0.0000    0.0000    0.0000   -0.0273   -0.0482
    2 O1     2s        -0.0000   -0.0000    0.0000   -0.3207   -0.4558
    3 O1     2px       -0.0000    0.0000   -0.0000    0.2113    0.4049
    4 O1     2py        0.0000   -0.0000    0.0000    0.6868    0.5220
    5 O1     2pz        0.2252   -0.7221    0.6888    0.0000    0.0000
    6 O2     1s         0.0000    0.0000    0.0000    0.0810    0.0000
    7 O2     2s         0.0000    0.0000    0.0000    0.8263    0.0000
    8 O2     2px       -0.0000   -0.0000    0.0000    0.6476    0.0000
    9 O2     2py       -0.0000   -0.0000   -0.0000   -0.0000    1.0621
   10 O2     2pz        0.8556   -0.0000   -0.6010    0.0000   -0.0000
   11 O3     1s        -0.0000    0.0000   -0.0000   -0.0273    0.0482
   12 O3     2s         0.0000   -0.0000   -0.0000   -0.3207    0.4558
   13 O3     2px        0.0000    0.0000    0.0000    0.2113   -0.4049
   14 O3     2py        0.0000    0.0000    0.0000   -0.6868    0.5220
   15 O3     2pz        0.2252    0.7221    0.6888   -0.0000    0.0000
--
 
      Von Neumann Entropy (Root  1) =  0.79699
 

      Mulliken population analysis for root number:  1
      -----------------------------------------------
 
 
++    Molecular charges:
      ------------------
 
      Mulliken charges per centre and basis function type
      ---------------------------------------------------
 
                O1      O2      O3    
      1s       2.0001  2.0001  2.0001
      2s       1.9072  1.7489  1.9072
      2px      1.7856  1.5808  1.7856
      2pz      1.1449  1.7102  1.1449
      2py      1.1491  0.9861  1.1491
      Total    7.9869  8.0261  7.9869
 
      N-E      0.0131 -0.0261  0.0131
 
      Total electronic charge=   24.000000
 
      Total            charge=   -0.000000
--
 
 

      Expectation values of various properties for root number:  1
      -----------------------------------------------------------
 
 
++    Molecular properties:
      ---------------------
 
      Charge (e):
                      =   -0.0000
      Dipole Moment (Debye):
      Origin of the operator (Ang)=    0.0000    0.0000    0.0000
                   X=  3.1195E-01               Y= -2.3368E-11               Z= -3.3065E-13           Total=  3.1195E-01
      Quadrupole Moment (Debye*Ang):
      Origin of the operator (Ang)=    0.4065    0.0000    0.0000
                  XX= -1.7544E+01              XY= -1.5306E-11              XZ= -1.4599E-12              YY= -1.7775E+01
                  YZ=  7.0870E-10              ZZ= -1.5512E+01
      In traceless form (Debye*Ang)
                  XX= -9.0061E-01              XY= -2.2959E-11              XZ= -2.1898E-12              YY= -1.2473E+00
                  YZ=  1.0631E-09              ZZ=  2.1479E+00
--
 

      LoProp population analysis for root number:  1
      -----------------------------------------------
 
 
++    LoProp analysis:
      ----------------
 
 
 
  Input file to MOLDEN was generated!
 
 
++    Static properties:
      ------------------
 
 
      LoProp Charges per center
 

                   O1       O2       O3    
      Nuclear      8.0000   8.0000   8.0000
      Electronic  -8.0186  -7.9629  -8.0186
 
      Total       -0.0186   0.0371  -0.0186
--
 
 
      Natural Bond Order analysis for root number:  1
 
++    Natural Bond Order analysis
      ---------------------------
      Based on LoProp computed density
      -------------------------------------------------------------------------------------
      Atom A       Atom B       Bond Order | Atom A       Atom B       Bond Order
        O1           O2             1.965  |   O2           O3             1.965
      -------------------------------------------------------------------------------------
      NBO located     12.000 core electrons.
      NBO located      3.948 lone pair electrons.
      NBO located      7.862 electrons involved in    2 bonds.
      The remaining    0.190 electrons are to be considered as diffuse
--
 
--
 
 
  Input file to MOLDEN was generated!
 
      Average orbitals are written to the RASORB file
      Natural orbitals for root   1 are written to the RASORB.1 file
      Spin density orbitals for root   1 are written to the SPDORB.1 file
 
--- Stop Module: rasscf at Tue Jul 30 20:43:21 2024 /rc=_RC_ALL_IS_WELL_ ---
*** files: O3_123.LprOrb O3_123.rasscf.molden O3_123.LoProp.molden O3_123.RasOrb O3_123.RasOrb.1 O3_123.rasscf.h5 O3_123.SpdOrb.1 xmldump
    saved to directory /home/grierjones/DDCASPT2/ozone/basis_sets/MB/O3/O3_123

>>> COPY /tmp/MOLCASTMP/O3_123/O3_123.rasscf.h5 /home/grierjones/DDCASPT2/ozone/basis_sets/MB/O3/O3_123/

>>> COPY /tmp/MOLCASTMP/O3_123/GMJ_Fock_MO.csv /home/grierjones/DDCASPT2/ozone/basis_sets/MB/O3/O3_123/O3_123.GMJ_Fock_MO.csv

*** symbolic link created: INPORB -> O3_123.RasOrb
--- Start Module: caspt2 at Tue Jul 30 20:43:21 2024 ---
 
()()()()()()()()()()()()()()()()()()()()()()()()()()()()()()()()()()()()()()()()()()()()()()()()()()

                                              &CASPT2

                                   only a single process is used
                       available to each process: 2.0 GB of memory, 1 thread?
()()()()()()()()()()()()()()()()()()()()()()()()()()()()()()()()()()()()()()()()()()()()()()()()()()
 
 Cholesky algorithm in CASPT2 =    1
 
 ###############################################################################
 ###############################################################################
 ###                                                                         ###
 ###                                                                         ###
 ###    User changed nr of frozen orbitals.                                  ###
 ###                                                                         ###
 ###                                                                         ###
 ###############################################################################
 ###############################################################################
 
++    Wave function specifications:
      -----------------------------
 
      Number of closed shell electrons          20
      Number of electrons in active shells       4
      Max number of holes in RAS1 space          0
      Max number of electrons in RAS3 space      0
      Number of inactive orbitals               10
      Number of active orbitals                  3
      Number of secondary orbitals               2
      Spin quantum number                      0.0
      State symmetry                             1
      Number of CSFs                             6
      Number of root(s) available                1
      Root passed to geometry opt.               1
      A file JOBMIX will be created.
      This is a CASSCF or RASSCF reference function
--
 
++    Orbital specifications:
      -----------------------
 
      Symmetry species                           1
                                                 a
      Frozen orbitals                            0
      Inactive orbitals                         10
      Active orbitals                            3
      Secondary orbitals                         2
      Deleted orbitals                           0
      Number of basis functions                 15
--
 
      Type of Fock operator: STANDARD
      Type of 0-order Hamiltonian: STANDARD WITH DEFAULT IPEA
        "IP-EA" denominator shift =      0.25
      The input orbitals and the CI vector will be transformed.
 
--------------------------------------------------------------------------------
 Estimated memory requirements:
  POLY3 :                   250202
  RHS:                      251368
  SIGMA :                   251440
  PRPCTL:                        0
 Available workspace:    230399382
 
++ CASPT2 computation for group   1
 
********************************************************************************
 Multi-State initialization phase begins for group   1
--------------------------------------------------------------------------------
********************************************************************************
 Compute H0 matrices for state    1
--------------------------------------------------------------------------------
--------------------------------------------------------------------------------
 H0 matrices have been computed.
 
********************************************************************************
  CASPT2 EQUATION SOLUTION
--------------------------------------------------------------------------------
 
  Total nr of CASPT2 parameters:
   Before reduction:        2100
   After  reduction:        1232
-------------------------------------------------------------------------------------------------------------------
 
  FINAL CASPT2 RESULT:
 
  Correlation energy /Case, /Symm, and sums:
 VJTU     -0.00000000 -0.00000000
 VJTIP    -0.00078052 -0.00078052
 VJTIM     0.00000000  0.00000000
 ATVX     -0.00000000 -0.00000000
 AIVX     -0.04610199 -0.04610199
 VJAIP    -0.00000000 -0.00000000
 VJAIM    -0.00000000 -0.00000000
 BVATP    -0.00057331 -0.00057331
 BVATM    -0.00000054 -0.00000054
 BJATP    -0.00000000 -0.00000000
 BJATM    -0.00000000 -0.00000000
 BJAIP    -0.04370261 -0.04370261
 BJAIM    -0.00662534 -0.00662534
 Summed:  -0.09778432 -0.09778432
 
      Reference energy:        -224.3647637709
      E2 (Non-variational):      -0.0977843191
      E2 (Variational):          -0.0977843364
      Total energy:            -224.4625481073
      Residual norm:              0.0000005690
      Reference weight:           0.95262
 
      Contributions to the CASPT2 correlation energy
      Active & Virtual Only:         -0.0005738551
      One Inactive Excited:          -0.0461019897
      Two Inactive Excited:          -0.0511084743
 
 
++ Denominators, etc.
----------------------------------------------------------------------------------------------------
 Report on small energy denominators, large coefficients, and large energy contributions.
CASE  SYMM ACTIVE-MIX  NON-ACTIVE INDICES          DENOMINATOR     RHS VALUE       COEFFICIENT     CONTRIBUTION
AIVX     1  Mu1.0006  In1.004 Se1.014               2.72213174     -0.06836827      0.02511571     -0.00171712
AIVX     1  Mu1.0003  In1.005 Se1.014               1.99573547     -0.05635213      0.02823627     -0.00159117
AIVX     1  Mu1.0001  In1.007 Se1.014               0.99379124      0.02597486     -0.02613714     -0.00067891
AIVX     1  Mu1.0004  In1.007 Se1.014               1.59030486     -0.05530616      0.03477708     -0.00192339
AIVX     1  Mu1.0005  In1.007 Se1.014               1.62700349     -0.05879377      0.03613623     -0.00212459
AIVX     1  Mu1.0002  In1.008 Se1.014               1.24904367      0.06639683     -0.05315813     -0.00352953
AIVX     1  Mu1.0003  In1.008 Se1.014               1.32718997      0.03437327     -0.02589929     -0.00089024
AIVX     1  Mu1.0002  In1.009 Se1.014               1.07355417     -0.05232346      0.04873854     -0.00255017
AIVX     1  Mu1.0003  In1.009 Se1.014               1.15170047     -0.03632628      0.03154143     -0.00114578
AIVX     1  Mu1.0005  In1.010 Se1.014               1.37043508      0.03476465     -0.02536760     -0.00088190
AIVX     1  Mu1.0001  In1.008 Se1.015               1.15837808      0.03879074     -0.03348711     -0.00129899
AIVX     1  Mu1.0004  In1.008 Se1.015               1.75489169     -0.08167296      0.04654017     -0.00380107
AIVX     1  Mu1.0005  In1.008 Se1.015               1.79159033     -0.08508524      0.04749146     -0.00404082
AIVX     1  Mu1.0006  In1.008 Se1.015               1.95008677     -0.07088246      0.03634836     -0.00257646
AIVX     1  Mu1.0002  In1.010 Se1.015               1.20440474     -0.05435741      0.04513218     -0.00245327
AIVX     1  Mu1.0003  In1.010 Se1.015               1.28255104     -0.03580685      0.02791846     -0.00099967
BJAIP    1  Se1.014 In1.007 Se1.014 In1.007         2.14203149      0.06204969     -0.02896768     -0.00179744
BJAIP    1  Se1.014 In1.007 Se1.015 In1.008         2.30661833      0.07649477     -0.03316317     -0.00253681
BJAIP    1  Se1.014 In1.008 Se1.014 In1.008         2.09468884      0.06413589     -0.03061834     -0.00196373
BJAIP    1  Se1.015 In1.008 Se1.015 In1.008         2.47120517      0.11300748     -0.04572970     -0.00516780
BJAIP    1  Se1.014 In1.008 Se1.014 In1.009         1.91919935     -0.05143179      0.02679856     -0.00137830
BJAIP    1  Se1.014 In1.009 Se1.014 In1.009         1.74370986      0.04960068     -0.02844549     -0.00141092
BJAIP    1  Se1.014 In1.008 Se1.015 In1.010         2.05004992     -0.08405808      0.04100294     -0.00344663
BJAIP    1  Se1.015 In1.010 Se1.015 In1.010         2.00541100      0.05482698     -0.02733952     -0.00149894
BJAIM    1  Se1.014 In1.007 Se1.014 In1.008         2.30661833      0.08028819     -0.03480775     -0.00279465
--
 
   (Skipping property calculation,
    use PROP keyword to activate)
--
 
  Total CASPT2 energies:
::    CASPT2 Root  1     Total energy:   -224.46254811
 
  A NEW JOBIPH FILE NAMED 'JOBMIX' IS PREPARED.
********************************************************************************
--- Stop Module: caspt2 at Tue Jul 30 20:43:21 2024 /rc=_RC_ALL_IS_WELL_ ---
*** files: xmldump
    saved to directory /home/grierjones/DDCASPT2/ozone/basis_sets/MB/O3/O3_123

>>> EXPORT i = B

>>> EXPORT j = P

>>> IF (-FILE GMJ_e2_${i}_${j}.csv)

>>> COPY /tmp/MOLCASTMP/O3_123/GMJ_RHS_B_P.csv /home/grierjones/DDCASPT2/ozone/basis_sets/MB/O3/O3_123/GMJ_RHS_B_P.csv

>>> COPY /tmp/MOLCASTMP/O3_123/GMJ_IVECW_B_P.csv /home/grierjones/DDCASPT2/ozone/basis_sets/MB/O3/O3_123/GMJ_IVECW_B_P.csv

>>> COPY /tmp/MOLCASTMP/O3_123/GMJ_e2_B_P.csv /home/grierjones/DDCASPT2/ozone/basis_sets/MB/O3/O3_123/GMJ_e2_B_P.csv

>>> END FOREACH

>>> EXPORT j = M

>>> IF (-FILE GMJ_e2_${i}_${j}.csv)
(Skipped)

>>> END FOREACH

>>> END FOREACH

>>> EXPORT i = E

>>> EXPORT j = P

>>> IF (-FILE GMJ_e2_${i}_${j}.csv)

>>> COPY /tmp/MOLCASTMP/O3_123/GMJ_RHS_E_P.csv /home/grierjones/DDCASPT2/ozone/basis_sets/MB/O3/O3_123/GMJ_RHS_E_P.csv

>>> COPY /tmp/MOLCASTMP/O3_123/GMJ_IVECW_E_P.csv /home/grierjones/DDCASPT2/ozone/basis_sets/MB/O3/O3_123/GMJ_IVECW_E_P.csv

>>> COPY /tmp/MOLCASTMP/O3_123/GMJ_e2_E_P.csv /home/grierjones/DDCASPT2/ozone/basis_sets/MB/O3/O3_123/GMJ_e2_E_P.csv

>>> END FOREACH

>>> EXPORT j = M

>>> IF (-FILE GMJ_e2_${i}_${j}.csv)

>>> COPY /tmp/MOLCASTMP/O3_123/GMJ_RHS_E_M.csv /home/grierjones/DDCASPT2/ozone/basis_sets/MB/O3/O3_123/GMJ_RHS_E_M.csv

>>> COPY /tmp/MOLCASTMP/O3_123/GMJ_IVECW_E_M.csv /home/grierjones/DDCASPT2/ozone/basis_sets/MB/O3/O3_123/GMJ_IVECW_E_M.csv

>>> COPY /tmp/MOLCASTMP/O3_123/GMJ_e2_E_M.csv /home/grierjones/DDCASPT2/ozone/basis_sets/MB/O3/O3_123/GMJ_e2_E_M.csv

>>> END FOREACH

>>> END FOREACH

>>> EXPORT i = F

>>> EXPORT j = P

>>> IF (-FILE GMJ_e2_${i}_${j}.csv)

>>> COPY /tmp/MOLCASTMP/O3_123/GMJ_RHS_F_P.csv /home/grierjones/DDCASPT2/ozone/basis_sets/MB/O3/O3_123/GMJ_RHS_F_P.csv

>>> COPY /tmp/MOLCASTMP/O3_123/GMJ_IVECW_F_P.csv /home/grierjones/DDCASPT2/ozone/basis_sets/MB/O3/O3_123/GMJ_IVECW_F_P.csv

>>> COPY /tmp/MOLCASTMP/O3_123/GMJ_e2_F_P.csv /home/grierjones/DDCASPT2/ozone/basis_sets/MB/O3/O3_123/GMJ_e2_F_P.csv

>>> END FOREACH

>>> EXPORT j = M

>>> IF (-FILE GMJ_e2_${i}_${j}.csv)

>>> COPY /tmp/MOLCASTMP/O3_123/GMJ_RHS_F_M.csv /home/grierjones/DDCASPT2/ozone/basis_sets/MB/O3/O3_123/GMJ_RHS_F_M.csv

>>> COPY /tmp/MOLCASTMP/O3_123/GMJ_IVECW_F_M.csv /home/grierjones/DDCASPT2/ozone/basis_sets/MB/O3/O3_123/GMJ_IVECW_F_M.csv

>>> COPY /tmp/MOLCASTMP/O3_123/GMJ_e2_F_M.csv /home/grierjones/DDCASPT2/ozone/basis_sets/MB/O3/O3_123/GMJ_e2_F_M.csv

>>> END FOREACH

>>> END FOREACH

>>> EXPORT i = G

>>> EXPORT j = P

>>> IF (-FILE GMJ_e2_${i}_${j}.csv)

>>> COPY /tmp/MOLCASTMP/O3_123/GMJ_RHS_G_P.csv /home/grierjones/DDCASPT2/ozone/basis_sets/MB/O3/O3_123/GMJ_RHS_G_P.csv

>>> COPY /tmp/MOLCASTMP/O3_123/GMJ_IVECW_G_P.csv /home/grierjones/DDCASPT2/ozone/basis_sets/MB/O3/O3_123/GMJ_IVECW_G_P.csv

>>> COPY /tmp/MOLCASTMP/O3_123/GMJ_e2_G_P.csv /home/grierjones/DDCASPT2/ozone/basis_sets/MB/O3/O3_123/GMJ_e2_G_P.csv

>>> END FOREACH

>>> EXPORT j = M

>>> IF (-FILE GMJ_e2_${i}_${j}.csv)

>>> COPY /tmp/MOLCASTMP/O3_123/GMJ_RHS_G_M.csv /home/grierjones/DDCASPT2/ozone/basis_sets/MB/O3/O3_123/GMJ_RHS_G_M.csv

>>> COPY /tmp/MOLCASTMP/O3_123/GMJ_IVECW_G_M.csv /home/grierjones/DDCASPT2/ozone/basis_sets/MB/O3/O3_123/GMJ_IVECW_G_M.csv

>>> COPY /tmp/MOLCASTMP/O3_123/GMJ_e2_G_M.csv /home/grierjones/DDCASPT2/ozone/basis_sets/MB/O3/O3_123/GMJ_e2_G_M.csv

>>> END FOREACH

>>> END FOREACH

>>> EXPORT i = H

>>> EXPORT j = P

>>> IF (-FILE GMJ_e2_${i}_${j}.csv)

>>> COPY /tmp/MOLCASTMP/O3_123/GMJ_RHS_H_P.csv /home/grierjones/DDCASPT2/ozone/basis_sets/MB/O3/O3_123/GMJ_RHS_H_P.csv

>>> COPY /tmp/MOLCASTMP/O3_123/GMJ_IVECW_H_P.csv /home/grierjones/DDCASPT2/ozone/basis_sets/MB/O3/O3_123/GMJ_IVECW_H_P.csv

>>> COPY /tmp/MOLCASTMP/O3_123/GMJ_e2_H_P.csv /home/grierjones/DDCASPT2/ozone/basis_sets/MB/O3/O3_123/GMJ_e2_H_P.csv

>>> END FOREACH

>>> EXPORT j = M

>>> IF (-FILE GMJ_e2_${i}_${j}.csv)

>>> COPY /tmp/MOLCASTMP/O3_123/GMJ_RHS_H_M.csv /home/grierjones/DDCASPT2/ozone/basis_sets/MB/O3/O3_123/GMJ_RHS_H_M.csv

>>> COPY /tmp/MOLCASTMP/O3_123/GMJ_IVECW_H_M.csv /home/grierjones/DDCASPT2/ozone/basis_sets/MB/O3/O3_123/GMJ_IVECW_H_M.csv

>>> COPY /tmp/MOLCASTMP/O3_123/GMJ_e2_H_M.csv /home/grierjones/DDCASPT2/ozone/basis_sets/MB/O3/O3_123/GMJ_e2_H_M.csv

>>> END FOREACH

>>> END FOREACH

>>> EXPORT i = A

>>> IF (-FILE GMJ_e2_$i.csv)

>>> COPY /tmp/MOLCASTMP/O3_123/GMJ_RHS_A.csv /home/grierjones/DDCASPT2/ozone/basis_sets/MB/O3/O3_123/GMJ_RHS_A.csv

>>> COPY /tmp/MOLCASTMP/O3_123/GMJ_IVECW_A.csv /home/grierjones/DDCASPT2/ozone/basis_sets/MB/O3/O3_123/GMJ_IVECW_A.csv

>>> COPY /tmp/MOLCASTMP/O3_123/GMJ_e2_A.csv /home/grierjones/DDCASPT2/ozone/basis_sets/MB/O3/O3_123/GMJ_e2_A.csv

>>> END FOREACH

>>> EXPORT i = C

>>> IF (-FILE GMJ_e2_$i.csv)

>>> COPY /tmp/MOLCASTMP/O3_123/GMJ_RHS_C.csv /home/grierjones/DDCASPT2/ozone/basis_sets/MB/O3/O3_123/GMJ_RHS_C.csv

>>> COPY /tmp/MOLCASTMP/O3_123/GMJ_IVECW_C.csv /home/grierjones/DDCASPT2/ozone/basis_sets/MB/O3/O3_123/GMJ_IVECW_C.csv

>>> COPY /tmp/MOLCASTMP/O3_123/GMJ_e2_C.csv /home/grierjones/DDCASPT2/ozone/basis_sets/MB/O3/O3_123/GMJ_e2_C.csv

>>> END FOREACH

>>> EXPORT i = D

>>> IF (-FILE GMJ_e2_$i.csv)

>>> COPY /tmp/MOLCASTMP/O3_123/GMJ_RHS_D.csv /home/grierjones/DDCASPT2/ozone/basis_sets/MB/O3/O3_123/GMJ_RHS_D.csv

>>> COPY /tmp/MOLCASTMP/O3_123/GMJ_IVECW_D.csv /home/grierjones/DDCASPT2/ozone/basis_sets/MB/O3/O3_123/GMJ_IVECW_D.csv

>>> COPY /tmp/MOLCASTMP/O3_123/GMJ_e2_D.csv /home/grierjones/DDCASPT2/ozone/basis_sets/MB/O3/O3_123/GMJ_e2_D.csv

>>> END FOREACH

.########################.
.# Non-zero return code #.
.########################.

    Timing: Wall=1.12 User=0.78 System=0.34
************************************************
*** WorkDir at /tmp/MOLCASTMP/O3_123 cleaned ***
************************************************
