[Molden Format]
[N_Atoms]
                     2
[Atoms] (AU)
B1          1      5           0.00000000      0.00000000      0.00000000
B2          2      5           0.00000000      0.00000000      1.32280829
[Charge] (Mulliken)
  8.908429549592256E-013
 -8.899547765395255E-013
[GTO] (AU)
   1
   s  14
  3.336021700E+04  1.039699991E-04
  4.972095200E+03  5.254399956E-04
  1.125641700E+03  2.509059979E-03
  3.164913600E+02  1.031887991E-02
  1.020072600E+02  3.636632969E-02
  3.629587300E+01  1.064607991E-01
  1.397141000E+01  2.403999880E-01
  5.741156000E+00  3.748581168E-01
  2.494268000E+00  3.100066974E-01
  1.114202000E+00  7.922455933E-02
  4.215490000E-01 -4.947589958E-03
  1.696330000E-01 -7.737119935E-03
  6.853500000E-02 -1.501079987E-03
  2.398700000E-02 -1.333299989E-04
   s  14
  3.336021700E+04 -2.030000008E-05
  4.972095200E+03 -1.025700004E-04
  1.125641700E+03 -4.911300020E-04
  3.164913600E+02 -2.026570008E-03
  1.020072600E+02 -7.261010030E-03
  3.629587300E+01 -2.197722009E-02
  1.397141000E+01 -5.408428022E-02
  5.741156000E+00 -1.022402604E-01
  2.494268000E+00 -1.423595206E-01
  1.114202000E+00 -4.658690019E-02
  4.215490000E-01  3.799402916E-01
  1.696330000E-01  5.890463624E-01
  6.853500000E-02  1.749075107E-01
  2.398700000E-02 -1.142030005E-03
   p   9
  5.500000000E+01  1.229800005E-03
  1.336610100E+01  8.827380035E-03
  4.135394000E+00  3.843340015E-02
  1.481256000E+00  1.150031805E-01
  6.021360000E-01  2.733674011E-01
  2.556360000E-01  4.061972116E-01
  1.111510000E-01  3.014967912E-01
  4.764800000E-02  7.684809030E-02
  1.667700000E-02 -8.170000032E-06
 
   2
   s  14
  3.336021700E+04  1.039699991E-04
  4.972095200E+03  5.254399956E-04
  1.125641700E+03  2.509059979E-03
  3.164913600E+02  1.031887991E-02
  1.020072600E+02  3.636632969E-02
  3.629587300E+01  1.064607991E-01
  1.397141000E+01  2.403999880E-01
  5.741156000E+00  3.748581168E-01
  2.494268000E+00  3.100066974E-01
  1.114202000E+00  7.922455933E-02
  4.215490000E-01 -4.947589958E-03
  1.696330000E-01 -7.737119935E-03
  6.853500000E-02 -1.501079987E-03
  2.398700000E-02 -1.333299989E-04
   s  14
  3.336021700E+04 -2.030000008E-05
  4.972095200E+03 -1.025700004E-04
  1.125641700E+03 -4.911300020E-04
  3.164913600E+02 -2.026570008E-03
  1.020072600E+02 -7.261010030E-03
  3.629587300E+01 -2.197722009E-02
  1.397141000E+01 -5.408428022E-02
  5.741156000E+00 -1.022402604E-01
  2.494268000E+00 -1.423595206E-01
  1.114202000E+00 -4.658690019E-02
  4.215490000E-01  3.799402916E-01
  1.696330000E-01  5.890463624E-01
  6.853500000E-02  1.749075107E-01
  2.398700000E-02 -1.142030005E-03
   p   9
  5.500000000E+01  1.229800005E-03
  1.336610100E+01  8.827380035E-03
  4.135394000E+00  3.843340015E-02
  1.481256000E+00  1.150031805E-01
  6.021360000E-01  2.733674011E-01
  2.556360000E-01  4.061972116E-01
  1.111510000E-01  3.014967912E-01
  4.764800000E-02  7.684809030E-02
  1.667700000E-02 -8.170000032E-06
 
[MO]
Sym=     1a  
Ene=    -8.5151
Spin= Alpha
Occup=    1.00000
   1         0.68560872
   2         0.00565214
   3        -0.00000000
   4        -0.00000000
   5         0.02025526
   6         0.68560872
   7         0.00565214
   8        -0.00000000
   9         0.00000000
  10        -0.02025526
Sym=     1a  
Ene=    -8.5151
Spin= Beta
Occup=    1.00000
   1         0.68560872
   2         0.00565214
   3        -0.00000000
   4        -0.00000000
   5         0.02025526
   6         0.68560872
   7         0.00565214
   8        -0.00000000
   9         0.00000000
  10        -0.02025526
Sym=     2a  
Ene=    -8.1489
Spin= Alpha
Occup=    1.00000
   1        -0.73313936
   2        -0.03566336
   3        -0.00000000
   4        -0.00000000
   5        -0.01107712
   6         0.73313936
   7         0.03566336
   8        -0.00000000
   9         0.00000000
  10        -0.01107712
Sym=     2a  
Ene=    -8.1489
Spin= Beta
Occup=    1.00000
   1        -0.73313936
   2        -0.03566336
   3        -0.00000000
   4        -0.00000000
   5        -0.01107712
   6         0.73313936
   7         0.03566336
   8        -0.00000000
   9         0.00000000
  10        -0.01107712
Sym=     3a  
Ene=    -0.8055
Spin= Alpha
Occup=    1.00000
   1        -0.15898070
   2         0.48127341
   3         0.00000000
   4         0.00000000
   5         0.20657728
   6        -0.15898070
   7         0.48127341
   8        -0.00000000
   9         0.00000000
  10        -0.20657728
Sym=     3a  
Ene=    -0.8055
Spin= Beta
Occup=    1.00000
   1        -0.15898070
   2         0.48127341
   3         0.00000000
   4         0.00000000
   5         0.20657728
   6        -0.15898070
   7         0.48127341
   8        -0.00000000
   9         0.00000000
  10        -0.20657728
Sym=     4a  
Ene=    -0.5883
Spin= Alpha
Occup=    1.00000
   1         0.00000000
   2         0.00000000
   3        -0.23627852
   4         0.47548270
   5         0.00000000
   6        -0.00000000
   7        -0.00000000
   8        -0.23627852
   9         0.47548270
  10        -0.00000000
Sym=     4a  
Ene=    -0.5883
Spin= Beta
Occup=    1.00000
   1         0.00000000
   2         0.00000000
   3        -0.23627852
   4         0.47548270
   5         0.00000000
   6        -0.00000000
   7        -0.00000000
   8        -0.23627852
   9         0.47548270
  10        -0.00000000
Sym=     5a  
Ene=    -0.5883
Spin= Alpha
Occup=    1.00000
   1         0.00000000
   2        -0.00000000
   3         0.47548270
   4         0.23627852
   5        -0.00000000
   6         0.00000000
   7         0.00000000
   8         0.47548270
   9         0.23627852
  10         0.00000000
Sym=     5a  
Ene=    -0.5883
Spin= Beta
Occup=    1.00000
   1         0.00000000
   2        -0.00000000
   3         0.47548270
   4         0.23627852
   5        -0.00000000
   6         0.00000000
   7         0.00000000
   8         0.47548270
   9         0.23627852
  10         0.00000000
Sym=     6a  
Ene=    -0.0837
Spin= Alpha
Occup=    0.00000
   1         0.03347800
   2        -0.50235038
   3        -0.00000000
   4        -0.00000000
   5         0.44144567
   6        -0.03347800
   7         0.50235038
   8        -0.00000000
   9        -0.00000000
  10         0.44144567
Sym=     6a  
Ene=    -0.0837
Spin= Beta
Occup=    0.00000
   1         0.03347800
   2        -0.50235038
   3        -0.00000000
   4        -0.00000000
   5         0.44144567
   6        -0.03347800
   7         0.50235038
   8        -0.00000000
   9        -0.00000000
  10         0.44144567
Sym=     7a  
Ene=     0.0763
Spin= Alpha
Occup=    0.00000
   1         0.23974452
   2         0.30687490
   3        -0.00000000
   4        -0.00000000
   5        -1.04151631
   6         0.23974452
   7         0.30687490
   8        -0.00000000
   9        -0.00000000
  10         1.04151631
Sym=     7a  
Ene=     0.0763
Spin= Beta
Occup=    0.00000
   1         0.23974452
   2         0.30687490
   3        -0.00000000
   4        -0.00000000
   5        -1.04151631
   6         0.23974452
   7         0.30687490
   8        -0.00000000
   9        -0.00000000
  10         1.04151631
Sym=     8a  
Ene=     0.4268
Spin= Alpha
Occup=    0.00000
   1        -0.00000000
   2         0.00000000
   3        -1.47115806
   4         0.21034600
   5         0.00000000
   6        -0.00000000
   7         0.00000000
   8         1.47115806
   9        -0.21034600
  10        -0.00000000
Sym=     8a  
Ene=     0.4268
Spin= Beta
Occup=    0.00000
   1        -0.00000000
   2         0.00000000
   3        -1.47115806
   4         0.21034600
   5         0.00000000
   6        -0.00000000
   7         0.00000000
   8         1.47115806
   9        -0.21034600
  10        -0.00000000
Sym=     9a  
Ene=     0.4268
Spin= Alpha
Occup=    0.00000
   1        -0.00000000
   2        -0.00000000
   3        -0.21034600
   4        -1.47115806
   5        -0.00000000
   6         0.00000000
   7         0.00000000
   8         0.21034600
   9         1.47115806
  10        -0.00000000
Sym=     9a  
Ene=     0.4268
Spin= Beta
Occup=    0.00000
   1        -0.00000000
   2        -0.00000000
   3        -0.21034600
   4        -1.47115806
   5        -0.00000000
   6         0.00000000
   7         0.00000000
   8         0.21034600
   9         1.47115806
  10        -0.00000000
Sym=    10a  
Ene=     4.1784
Spin= Alpha
Occup=    0.00000
   1        -2.94234109
   2        -9.77497254
   3        -0.00000000
   4         0.00000000
   5        -3.37415042
   6         2.94234109
   7         9.77497254
   8        -0.00000000
   9        -0.00000000
  10        -3.37415042
Sym=    10a  
Ene=     4.1784
Spin= Beta
Occup=    0.00000
   1        -2.94234109
   2        -9.77497254
   3        -0.00000000
   4         0.00000000
   5        -3.37415042
   6         2.94234109
   7         9.77497254
   8        -0.00000000
   9        -0.00000000
  10        -3.37415042
