[Molden Format]
[N_Atoms]
                     2
[Atoms] (AU)
B1          1      5           0.00000000      0.00000000      0.00000000
B2          2      5           0.00000000      0.00000000      1.32280829
[Charge] (Mulliken)
  0.000000000000000E+000
  0.000000000000000E+000
[GTO] (AU)
   1
   s  14
  3.336021700E+04  1.039699991E-04
  4.972095200E+03  5.254399956E-04
  1.125641700E+03  2.509059979E-03
  3.164913600E+02  1.031887991E-02
  1.020072600E+02  3.636632969E-02
  3.629587300E+01  1.064607991E-01
  1.397141000E+01  2.403999880E-01
  5.741156000E+00  3.748581168E-01
  2.494268000E+00  3.100066974E-01
  1.114202000E+00  7.922455933E-02
  4.215490000E-01 -4.947589958E-03
  1.696330000E-01 -7.737119935E-03
  6.853500000E-02 -1.501079987E-03
  2.398700000E-02 -1.333299989E-04
   s  14
  3.336021700E+04 -2.030000008E-05
  4.972095200E+03 -1.025700004E-04
  1.125641700E+03 -4.911300020E-04
  3.164913600E+02 -2.026570008E-03
  1.020072600E+02 -7.261010030E-03
  3.629587300E+01 -2.197722009E-02
  1.397141000E+01 -5.408428022E-02
  5.741156000E+00 -1.022402604E-01
  2.494268000E+00 -1.423595206E-01
  1.114202000E+00 -4.658690019E-02
  4.215490000E-01  3.799402916E-01
  1.696330000E-01  5.890463624E-01
  6.853500000E-02  1.749075107E-01
  2.398700000E-02 -1.142030005E-03
   p   9
  5.500000000E+01  1.229800005E-03
  1.336610100E+01  8.827380035E-03
  4.135394000E+00  3.843340015E-02
  1.481256000E+00  1.150031805E-01
  6.021360000E-01  2.733674011E-01
  2.556360000E-01  4.061972116E-01
  1.111510000E-01  3.014967912E-01
  4.764800000E-02  7.684809030E-02
  1.667700000E-02 -8.170000032E-06
 
   2
   s  14
  3.336021700E+04  1.039699991E-04
  4.972095200E+03  5.254399956E-04
  1.125641700E+03  2.509059979E-03
  3.164913600E+02  1.031887991E-02
  1.020072600E+02  3.636632969E-02
  3.629587300E+01  1.064607991E-01
  1.397141000E+01  2.403999880E-01
  5.741156000E+00  3.748581168E-01
  2.494268000E+00  3.100066974E-01
  1.114202000E+00  7.922455933E-02
  4.215490000E-01 -4.947589958E-03
  1.696330000E-01 -7.737119935E-03
  6.853500000E-02 -1.501079987E-03
  2.398700000E-02 -1.333299989E-04
   s  14
  3.336021700E+04 -2.030000008E-05
  4.972095200E+03 -1.025700004E-04
  1.125641700E+03 -4.911300020E-04
  3.164913600E+02 -2.026570008E-03
  1.020072600E+02 -7.261010030E-03
  3.629587300E+01 -2.197722009E-02
  1.397141000E+01 -5.408428022E-02
  5.741156000E+00 -1.022402604E-01
  2.494268000E+00 -1.423595206E-01
  1.114202000E+00 -4.658690019E-02
  4.215490000E-01  3.799402916E-01
  1.696330000E-01  5.890463624E-01
  6.853500000E-02  1.749075107E-01
  2.398700000E-02 -1.142030005E-03
   p   9
  5.500000000E+01  1.229800005E-03
  1.336610100E+01  8.827380035E-03
  4.135394000E+00  3.843340015E-02
  1.481256000E+00  1.150031805E-01
  6.021360000E-01  2.733674011E-01
  2.556360000E-01  4.061972116E-01
  1.111510000E-01  3.014967912E-01
  4.764800000E-02  7.684809030E-02
  1.667700000E-02 -8.170000032E-06
 
[MO]
Sym=     1a  
Ene=    -8.0710
Spin= Alpha
Occup=    2.00000
   1         0.68842296
   2         0.00921582
   3        -0.00000000
   4         0.00000000
   5         0.00788962
   6         0.68842296
   7         0.00921582
   8         0.00000000
   9        -0.00000000
  10        -0.00788962
Sym=     2a  
Ene=    -7.4121
Spin= Alpha
Occup=    2.00000
   1        -0.71827582
   2         0.00897694
   3         0.00000000
   4         0.00000000
   5         0.00898241
   6         0.71827582
   7        -0.00897694
   8        -0.00000000
   9         0.00000000
  10         0.00898241
Sym=     3a  
Ene=    -0.8957
Spin= Alpha
Occup=    2.00000
   1        -0.12836131
   2         0.51616271
   3         0.00000000
   4         0.00000000
   5         0.07338209
   6        -0.12836131
   7         0.51616271
   8         0.00000000
   9        -0.00000000
  10        -0.07338209
Sym=     4a  
Ene=    -0.5514
Spin= Alpha
Occup=    2.00000
   1        -0.00000000
   2        -0.00000000
   3        -0.21669522
   4         0.48472107
   5        -0.00000000
   6         0.00000000
   7         0.00000000
   8        -0.21669522
   9         0.48472107
  10        -0.00000000
Sym=     5a  
Ene=    -0.5514
Spin= Alpha
Occup=    2.00000
   1         0.00000000
   2         0.00000000
   3         0.48472107
   4         0.21669522
   5         0.00000000
   6        -0.00000000
   7        -0.00000000
   8         0.48472107
   9         0.21669522
  10         0.00000000
Sym=     6a  
Ene=    -0.4887
Spin= Alpha
Occup=    0.00000
   1         0.10456313
   2        -0.28443602
   3        -0.00000000
   4         0.00000000
   5         0.51648612
   6        -0.10456313
   7         0.28443602
   8        -0.00000000
   9         0.00000000
  10         0.51648612
Sym=     7a  
Ene=    -0.1338
Spin= Alpha
Occup=    0.00000
   1         0.24981758
   2         0.24355569
   3        -0.00000000
   4         0.00000000
   5        -1.05943074
   6         0.24981758
   7         0.24355569
   8         0.00000000
   9        -0.00000000
  10         1.05943074
Sym=     8a  
Ene=    -0.0704
Spin= Alpha
Occup=    0.00000
   1         0.00000000
   2         0.00000000
   3        -1.43540242
   4         0.38493037
   5         0.00000000
   6        -0.00000000
   7        -0.00000000
   8         1.43540242
   9        -0.38493037
  10         0.00000000
Sym=     9a  
Ene=    -0.0704
Spin= Alpha
Occup=    0.00000
   1        -0.00000000
   2        -0.00000000
   3        -0.38493037
   4        -1.43540242
   5        -0.00000000
   6         0.00000000
   7         0.00000000
   8         0.38493037
   9         1.43540242
  10        -0.00000000
Sym=    10a  
Ene=    -0.0022
Spin= Alpha
Occup=    0.00000
   1        -2.94433890
   2        -9.78379944
   3        -0.00000000
   4         0.00000000
   5        -3.36348769
   6         2.94433890
   7         9.78379944
   8        -0.00000000
   9         0.00000000
  10        -3.36348769
