[Molden Format]
[N_Atoms]
                     2
[Atoms] (AU)
B1          1      5           0.00000000      0.00000000      0.00000000
B2          2      5           0.00000000      0.00000000      1.32280829
[Charge] (Mulliken)
   1.00000000000034     
  0.999999999999653     
[GTO] (AU)
   1
   s  14
  3.336021700E+04  1.039699991E-04
  4.972095200E+03  5.254399956E-04
  1.125641700E+03  2.509059979E-03
  3.164913600E+02  1.031887991E-02
  1.020072600E+02  3.636632969E-02
  3.629587300E+01  1.064607991E-01
  1.397141000E+01  2.403999880E-01
  5.741156000E+00  3.748581168E-01
  2.494268000E+00  3.100066974E-01
  1.114202000E+00  7.922455933E-02
  4.215490000E-01 -4.947589958E-03
  1.696330000E-01 -7.737119935E-03
  6.853500000E-02 -1.501079987E-03
  2.398700000E-02 -1.333299989E-04
   s  14
  3.336021700E+04 -2.030000008E-05
  4.972095200E+03 -1.025700004E-04
  1.125641700E+03 -4.911300020E-04
  3.164913600E+02 -2.026570008E-03
  1.020072600E+02 -7.261010030E-03
  3.629587300E+01 -2.197722009E-02
  1.397141000E+01 -5.408428022E-02
  5.741156000E+00 -1.022402604E-01
  2.494268000E+00 -1.423595206E-01
  1.114202000E+00 -4.658690019E-02
  4.215490000E-01  3.799402916E-01
  1.696330000E-01  5.890463624E-01
  6.853500000E-02  1.749075107E-01
  2.398700000E-02 -1.142030005E-03
   p   9
  5.500000000E+01  1.229800005E-03
  1.336610100E+01  8.827380035E-03
  4.135394000E+00  3.843340015E-02
  1.481256000E+00  1.150031805E-01
  6.021360000E-01  2.733674011E-01
  2.556360000E-01  4.061972116E-01
  1.111510000E-01  3.014967912E-01
  4.764800000E-02  7.684809030E-02
  1.667700000E-02 -8.170000032E-06
 
   2
   s  14
  3.336021700E+04  1.039699991E-04
  4.972095200E+03  5.254399956E-04
  1.125641700E+03  2.509059979E-03
  3.164913600E+02  1.031887991E-02
  1.020072600E+02  3.636632969E-02
  3.629587300E+01  1.064607991E-01
  1.397141000E+01  2.403999880E-01
  5.741156000E+00  3.748581168E-01
  2.494268000E+00  3.100066974E-01
  1.114202000E+00  7.922455933E-02
  4.215490000E-01 -4.947589958E-03
  1.696330000E-01 -7.737119935E-03
  6.853500000E-02 -1.501079987E-03
  2.398700000E-02 -1.333299989E-04
   s  14
  3.336021700E+04 -2.030000008E-05
  4.972095200E+03 -1.025700004E-04
  1.125641700E+03 -4.911300020E-04
  3.164913600E+02 -2.026570008E-03
  1.020072600E+02 -7.261010030E-03
  3.629587300E+01 -2.197722009E-02
  1.397141000E+01 -5.408428022E-02
  5.741156000E+00 -1.022402604E-01
  2.494268000E+00 -1.423595206E-01
  1.114202000E+00 -4.658690019E-02
  4.215490000E-01  3.799402916E-01
  1.696330000E-01  5.890463624E-01
  6.853500000E-02  1.749075107E-01
  2.398700000E-02 -1.142030005E-03
   p   9
  5.500000000E+01  1.229800005E-03
  1.336610100E+01  8.827380035E-03
  4.135394000E+00  3.843340015E-02
  1.481256000E+00  1.150031805E-01
  6.021360000E-01  2.733674011E-01
  2.556360000E-01  4.061972116E-01
  1.111510000E-01  3.014967912E-01
  4.764800000E-02  7.684809030E-02
  1.667700000E-02 -8.170000032E-06
 
[MO]
Sym=     1a  
Ene=    -9.5116
Spin= Alpha
Occup=    2.00000
   1         0.68592524
   2         0.00458306
   3         0.00000000
   4         0.00000000
   5         0.01991684
   6         0.68592524
   7         0.00458306
   8        -0.00000000
   9         0.00000000
  10        -0.01991684
Sym=     2a  
Ene=    -9.1487
Spin= Alpha
Occup=    2.00000
   1        -0.73323546
   2        -0.03518709
   3         0.00000000
   4        -0.00000000
   5        -0.01171194
   6         0.73323546
   7         0.03518709
   8        -0.00000000
   9         0.00000000
  10        -0.01171194
Sym=     3a  
Ene=    -1.6098
Spin= Alpha
Occup=    2.00000
   1        -0.19520268
   2         0.42352679
   3         0.00000000
   4         0.00000000
   5         0.37700558
   6        -0.19520268
   7         0.42352679
   8        -0.00000000
   9         0.00000000
  10        -0.37700558
Sym=     4a  
Ene=    -1.1710
Spin= Alpha
Occup=    1.00000
   1        -0.00000000
   2         0.00000000
   3         0.52673344
   4         0.06680731
   5        -0.00000000
   6         0.00000000
   7        -0.00000000
   8         0.52673344
   9         0.06680731
  10        -0.00000000
Sym=     5a  
Ene=     0.0000
Spin= Alpha
Occup=    1.00000
   1        -0.00000000
   2         0.00000000
   3         0.06680731
   4        -0.52673344
   5        -0.00000000
   6         0.00000000
   7        -0.00000000
   8         0.06680731
   9        -0.52673344
  10        -0.00000000
Sym=     6a  
Ene=    -0.7903
Spin= Alpha
Occup=    0.00000
   1         0.00927810
   2        -0.57960784
   3         0.00000000
   4        -0.00000000
   5         0.41475963
   6        -0.00927810
   7         0.57960784
   8         0.00000000
   9        -0.00000000
  10         0.41475963
Sym=     7a  
Ene=    -0.7190
Spin= Alpha
Occup=    0.00000
   1         0.21027148
   2         0.38266474
   3        -0.00000000
   4         0.00000000
   5        -0.99262822
   6         0.21027148
   7         0.38266474
   8        -0.00000000
   9        -0.00000000
  10         0.99262822
Sym=     8a  
Ene=    -0.3474
Spin= Alpha
Occup=    0.00000
   1        -0.00000000
   2         0.00000000
   3        -1.37952715
   4         0.55268103
   5         0.00000000
   6        -0.00000000
   7         0.00000000
   8         1.37952715
   9        -0.55268103
  10         0.00000000
Sym=     9a  
Ene=    -0.3474
Spin= Alpha
Occup=    0.00000
   1        -0.00000000
   2        -0.00000000
   3        -0.55268103
   4        -1.37952715
   5        -0.00000000
   6         0.00000000
   7         0.00000000
   8         0.55268103
   9         1.37952715
  10         0.00000000
Sym=    10a  
Ene=     3.4051
Spin= Alpha
Occup=    0.00000
   1        -2.94249297
   2        -9.77069765
   3        -0.00000000
   4         0.00000000
   5        -3.37753243
   6         2.94249297
   7         9.77069765
   8        -0.00000000
   9        -0.00000000
  10        -3.37753243
