   This run of MOLCAS is using the pymolcas driver

                             OPE
                             OPE          NMOL  CASOP  ENMOLC A   SO
                 OPE        NMOLC        AS  OP EN  MO LC     AS  OP
                OPENM       OL CA        SO  PE NM  OL CA     SOP EN
                OP EN      MO   LC       AS  OP ENMOL  CASO   PENMOL
                OP  EN     MO   LC       AS  OP EN     MO     LC ASO
               OP   E  NMOL  C  AS       OP  EN MO     LC     AS  OP
               OP  E   NMO   LC AS        OPEN  MO     LCASOP EN   M
               O  PEN   MO  LCA  SO
            OPE   NMO   L   CAS    OP
        OPENMOL  CASOP     ENMOL   CASOPE
     OPENMOLCA   SOPENMOLCASOPEN   MOLCASOPE
    OPENMOLCAS   OP           EN   MOL    CAS
    OPENMOLCAS       OP  ENM        O     LCA
    OPENMOLCAS    OPEN  MOLCASO     P  E  NMO
    OPENMOLCAS     OP               E  N  MOL
    OPENMOLCA   SO           PENM   O  L  CAS    OPEN    MO    LCAS
    OPENMOLCA   SOP           ENM   O  L  CAS   OP  EN  MOLC  AS   O
    OPENMOLCA   SOPE           NM      O  LCA   S      OP  EN MO
    OPENMOLC                AS         O  PEN   M      OL  CA  SOPE
    OPENMO        LCASOPE  NMOL        C  ASO   P      ENMOLC     AS
    OPE     NMO      LCA  SO     P     E   NM   OL  CA SO  PE N   MO
          OPENMOLCA            SOPE   NMO        LCAS  O    P  ENMO
     OPENMOLCASOPENMOLCASOPENMOLCASOPENMOLCA
        OPENMOLCASOPENMOLCASOPENMOLCASOPE
            OPENMOLCASOPENMOLCASOPENM
               OPENMOLCASOPENMOLCA        version: f37762c57
                   OPENMOLCASO
                       OPE                tag:

 OpenMolcas is free software; you can redistribute it and/or modify it
 under the terms of the GNU Lesser General Public License version 2.1.
 OpenMolcas is distributed in the hope that it will be useful, but it
 is provided "as is" and without any express or implied warranties.
 For more details see the full text of the license in the file
 LICENSE or in <http://www.gnu.org/licenses/>.

                 Copyright (C) The OpenMolcas Authors
           For the author list and the recommended citation,
                   consult the file CONTRIBUTORS.md

           *************************************************
           * pymolcas version py2.28                       *
           *   build c4a6d18ded8cb6cad61d2372a9abd97c      *
           *   (after the EMIL interpreter by V. Veryazov) *
           *************************************************

configuration info
------------------
C Compiler ID: Intel
C flags: -std=gnu99 -gcc-sys
Fortran Compiler ID: IntelLLVM
Fortran flags: -standard-semantics -fltconsistency -fpp -i8 -heap-arrays
Definitions: _MOLCAS_;_I8_;_LINUX_
Parallel: OFF (GA=OFF)


   -------------------------------------------------------------------------------------------
  |
  |              Project: ozone_126.25
  |       Submitted from: /home/grierjones/DDCASPT2/ozone/multistate/ANO-RCC-VTZP/ozone_126.25
  |         Scratch area: /tmp/ozone_126.25
  |      Save outputs to: /home/grierjones/DDCASPT2/ozone/multistate/ANO-RCC-VTZP/ozone_126.25
  |               Molcas: /home/grierjones/Test/build
  |
  | Scratch area is empty
  |
  |       MOLCAS_DRIVER = /usr/local/pymolcas
  | MOLCAS_KEEP_WORKDIR = NO
  |  MOLCAS_NEW_WORKDIR = YES
  |       MOLCAS_NPROCS = 1
  |        MOLCAS_PRINT = NORMAL
  |       MOLCAS_SOURCE = /home/grierjones/Test
  |    MOLCAS_STRUCTURE = 0
  |
   -------------------------------------------------------------------------------------------

++ ---------   Input file   ---------

&GATEWAY
coord=ozone_126.25.xyz
Basis = ANO-RCC-VTZP
Group = nosymm
End of Input

&SEWARD
End of Input

&SCF
FileOrb
/home/grierjones/DDCASPT2/ozone/multistate/ANO-RCC-VTZP/ozone_126.00/ozone_126.00.ScfOrb

>>> COPY $WorkDir/ozone_126.25.scf.h5 $CurrDir/

&RASSCF
Title= RASSCF
FileOrb
/home/grierjones/DDCASPT2/ozone/multistate/ANO-RCC-VTZP/ozone_126.00/ozone_126.00.RasOrb
CIROOT
3 3 1
NACTEL
4 0 0
Inactive
10
RAS2
3
Symmetry
1
Spin
1
orblisting
all

>>> COPY $WorkDir/ozone_126.25.rasscf.h5 $CurrDir/

>>> COPY $WorkDir/GMJ_Fock_MO.csv $CurrDir/ozone_126.25.GMJ_Fock_MO.csv

&MOTRA
Frozen=0
LUMORB

>>> COPY $WorkDir/GMJ_one_int_indx.csv $CurrDir/ozone_126.25.GMJ_one_int_indx.csv

>>> COPY $WorkDir/GMJ_one_int.csv $CurrDir/ozone_126.25.GMJ_one_int.csv

>>> COPY $WorkDir/GMJ_two_int_indx.csv $CurrDir/ozone_126.25.GMJ_two_int_indx.csv

>>> COPY $WorkDir/GMJ_two_int.csv $CurrDir/ozone_126.25.GMJ_two_int.csv

&CASPT2
Frozen
0

MAXITER
50

>>> FOREACH k IN (1,2,3)

  >>> FOREACH i IN (B,E,F,G,H)

    >>> FOREACH j IN (P,M)

      >>> IF (-FILE GMJ_e2_${i}_${j}_${k}_.csv)

        >>> COPY $WorkDir/GMJ_RHS_${i}_${j}_${k}_.csv $CurrDir/GMJ_RHS_${i}_${j}_${k}_.csv

        >>> COPY $WorkDir/GMJ_IVECW_${i}_${j}_${k}_.csv $CurrDir/GMJ_IVECW_${i}_${j}_${k}_.csv

        >>> COPY $WorkDir/GMJ_IVECX_${i}_${j}_${k}_.csv $CurrDir/GMJ_IVECX_${i}_${j}_${k}_.csv

        >>> COPY $WorkDir/GMJ_IVECC2_${i}_${j}_${k}_.csv $CurrDir/GMJ_IVECC2_${i}_${j}_${k}_.csv

        >>> COPY $WorkDir/GMJ_e2_${i}_${j}_${k}_.csv $CurrDir/GMJ_e2_${i}_${j}_${k}_.csv

      >>> END IF

    >>> END FOREACH

  >>> END FOREACH

>>> END FOREACH

>>> FOREACH j IN (1,2,3)

  >>> FOREACH i IN (A,C,D)

    >>> IF (-FILE GMJ_e2_${i}_${j}_.csv)

      >>> COPY $WorkDir/GMJ_RHS_${i}_${j}_.csv $CurrDir/GMJ_RHS_${i}_${j}_.csv

      >>> COPY $WorkDir/GMJ_IVECW_${i}_${j}_.csv $CurrDir/GMJ_IVECW_${i}_${j}_.csv

      >>> COPY $WorkDir/GMJ_IVECX_${i}_${j}_.csv $CurrDir/GMJ_IVECX_${i}_${j}_.csv

      >>> COPY $WorkDir/GMJ_IVECC2_${i}_${j}_.csv $CurrDir/GMJ_IVECC2_${i}_${j}_.csv

      >>> COPY $WorkDir/GMJ_e2_${i}_${j}_.csv $CurrDir/GMJ_e2_${i}_${j}_.csv

    >>> END IF

  >>> END FOREACH

>>> END FOREACH

-- ----------------------------------

--- Start Module: gateway at Fri Apr 11 18:53:17 2025 ---
 
()()()()()()()()()()()()()()()()()()()()()()()()()()()()()()()()()()()()()()()()()()()()()()()()()()

                                              &GATEWAY

                                   only a single process is used
                       available to each process: 2.0 GB of memory, 1 thread?
()()()()()()()()()()()()()()()()()()()()()()()()()()()()()()()()()()()()()()()()()()()()()()()()()()
 
 
++    Symmetry information:
      ---------------------
 
                    Character Table for C1 
 
                             E  
                    a        1  x, y, xy, Rz, z, xz, Ry, yz, Rx, I
--
 
 
++    Basis set information:
      ----------------------
 
 
      Basis set label: O.ANO-RCC...4S3P2D1F.
 
      Electronic valence basis set:
      ------------------
      Associated Effective Charge   8.000000 au
      Associated Actual Charge      8.000000 au
      Nuclear Model: Point charge
 
      Shell  nPrim  nBasis  Cartesian Spherical Contaminant
         s      14       4        X                  
         p       9       3        X                  
         d       4       2                 X         
         f       3       1                 X         
--
 
 
++    Molecular structure info:
      -------------------------
 
                    ************************************************ 
                    **** Cartesian Coordinates / Bohr, Angstrom **** 
                    ************************************************ 
 
     Center  Label                x              y              z                     x              y              z
        1      O1               1.091721       2.154229       0.000000              0.577714       1.139969       0.000000
        2      O2               0.000000       0.000000       0.000000              0.000000       0.000000       0.000000
        3      O3               1.091721      -2.154229       0.000000              0.577714      -1.139969       0.000000
 
                    *************************************** 
                    *    InterNuclear Distances / Bohr    * 
                    *************************************** 
 
               1 O1            2 O2            3 O3    
    1 O1       0.000000
    2 O2       2.415069        0.000000
    3 O3       4.308458        2.415069        0.000000
 
                    ******************************************* 
                    *    InterNuclear Distances / Angstrom    * 
                    ******************************************* 
 
               1 O1            2 O2            3 O3    
    1 O1       0.000000
    2 O2       1.278000        0.000000
    3 O3       2.279938        1.278000        0.000000
 
                    ************************************** 
                    *    Valence Bond Angles / Degree    * 
                    ************************************** 
                          Atom centers                 Phi
                      1 O1       2 O2       3 O3       126.25
--
 
 
            Nuclear Potential Energy             67.85505517 au
 
--- Stop Module: gateway at Fri Apr 11 18:53:17 2025 /rc=_RC_ALL_IS_WELL_ ---
*** files: xmldump
    saved to directory /home/grierjones/DDCASPT2/ozone/multistate/ANO-RCC-VTZP/ozone_126.25

--- Start Module: seward at Fri Apr 11 18:53:17 2025 ---
 
()()()()()()()()()()()()()()()()()()()()()()()()()()()()()()()()()()()()()()()()()()()()()()()()()()

                                              &SEWARD

                                   only a single process is used
                       available to each process: 2.0 GB of memory, 1 thread?
()()()()()()()()()()()()()()()()()()()()()()()()()()()()()()()()()()()()()()()()()()()()()()()()()()
 
               SEWARD will generate:
                  Multipole Moment integrals up to order  2
                  Kinetic Energy integrals
                  Nuclear Attraction integrals (point charge)
                  One-Electron Hamiltonian integrals
                  Velocity integrals
                  Relativistic Douglas-Kroll-Hess integrals:
                    - Parametrization         : EXP
                    - DKH order of Hamiltonian: 2
                    - DKH order of Properties : 0
                         - multipole moment operators
                         - electric potential operators
                         - contact operators
                  Atomic mean-field integrals
                  Two-Electron Repulsion integrals
 
                   Integrals are discarded if absolute value <: 0.10E-13
                   Integral cutoff threshold is set to       <: 0.10E-15
 
            Nuclear Potential Energy             67.85505517 au
 
 
      Basis set specifications :
      Symmetry species         a  
      Basis functions           90
 
 
  Input file to MOLDEN was generated!
 
forrtl: warning (525): IEEE_DIVIDE_BY_ZERO is signaling
forrtl: warning (526): IEEE_INVALID is signaling
forrtl: warning (528): IEEE_UNDERFLOW is signaling
--- Stop Module: seward at Fri Apr 11 18:53:19 2025 /rc=_RC_ALL_IS_WELL_ ---
*** files: ozone_126.25.GssOrb ozone_126.25.guessorb.h5 ozone_126.25.guessorb.molden xmldump
    saved to directory /home/grierjones/DDCASPT2/ozone/multistate/ANO-RCC-VTZP/ozone_126.25
--- Module seward spent 2 seconds ---

*** symbolic link created: INPORB -> ozone_126.25.GssOrb
--- Start Module: scf at Fri Apr 11 18:53:19 2025 ---
 
()()()()()()()()()()()()()()()()()()()()()()()()()()()()()()()()()()()()()()()()()()()()()()()()()()

                                                &SCF

                                   only a single process is used
                       available to each process: 2.0 GB of memory, 1 thread?
()()()()()()()()()()()()()()()()()()()()()()()()()()()()()()()()()()()()()()()()()()()()()()()()()()
 
++    Input section:
      --------------
 
      Header of the integral files:
      
       Integrals generated by seward 4.2.0  , Fri Apr 11 18:53:17 2025
 
 
      Cartesian coordinates in Angstrom:
      -----------------------------------------------------
      No.  Label        X            Y            Z        
      -----------------------------------------------------
       1   O1         0.57771400   1.13996900   0.00000000
       2   O2         0.00000000   0.00000000   0.00000000
       3   O3         0.57771400  -1.13996900   0.00000000
      -----------------------------------------------------
      Nuclear repulsion energy =   67.85505517
--
 
++    Orbital specifications:
      -----------------------
 
      Symmetry species               1
                                     a
      Frozen orbitals                0
      Occupied orbitals             12
      Secondary orbitals            78
      Deleted orbitals               0
      Total number of orbitals      90
      Number of basis functions     90
--
 
      Molecular charge                           0.000
 
++    Optimization specifications:
      ----------------------------
 
      SCF Algorithm: Conventional
      Minimized density differences are used
      Number of density matrices in core                5
      Maximum number of NDDO SCF iterations           400
      Maximum number of HF SCF iterations             400
      Threshold for SCF energy change            0.10E-08
      Threshold for density matrix               0.10E-03
      Threshold for Fock matrix                  0.15E-03
      Threshold for linear dependence            0.10E-08
      Threshold at which DIIS is turned on       0.15E+00
      Threshold at which QNR/C2DIIS is turned on 0.75E-01
      Threshold for Norm(delta) (QNR/C2DIIS)     0.20E-04
      DIIS extrapolation of the SCF procedure
      All orbitals punched on: SCFORB
--
 
      Input vectors read from INPORB
      Orbital file label: * SCF orbitals
 
 
++ Convergence information
                                   SCF        iterations: Energy and convergence statistics
 
Iter     Tot. SCF        One-elec.       Two-elec.     Energy      Max Dij or  Max Fij      DNorm      TNorm      AccCon     Time
         Energy          Energy          Energy        Change      Delta Norm                                                in Sec.
   1  -224.508480912  -443.341047426   150.977511348   0.00E+00    0.11E-02*   0.60E-03*    0.75E+01   0.11E+03   None         0.
   2  -224.508486176  -443.340630983   150.977089640  -0.53E-05*   0.61E-03*   0.32E-03*    0.70E-02   0.11E+03   EDIIS        0.
   3  -224.508487235  -443.341357605   150.977815203  -0.11E-05*   0.45E-03*   0.31E-03*    0.11E-02   0.11E+03   c2DIIS       0.
   4  -224.508487570  -443.340411292   150.976868555  -0.34E-06*   0.31E-03*   0.14E-03     0.13E-02   0.11E+03   QNRc2DIIS    0.
   5  -224.508487578  -443.341840329   150.978297585  -0.78E-08*   0.16E-03*   0.16E-03*    0.54E-03   0.11E+03   QNRc2DIIS    0.
   6  -224.508487698  -443.341143103   150.977600239  -0.12E-06*   0.71E-04*   0.14E-04     0.49E-04   0.11E+03   QNRc2DIIS    0.
   7  -224.508487702  -443.341098507   150.977555638  -0.43E-08*   0.35E-05    0.93E-06     0.43E-04   0.11E+03   QNRc2DIIS    0.
   8  -224.508487702  -443.341125779   150.977582910  -0.15E-10    0.12E-05    0.54E-06     0.34E-03   0.11E+03   QNRc2DIIS    0.
 
       Convergence after  8 Macro Iterations
--
 
 *****************************************************************************************************************************
 *                                                                                                                           *
 *                                             SCF/KS-DFT Program, Final results                                             *
 *                                                                                                                           *
 *                                                                                                                           *
 *                                                                                                                           *
 *                                                       Final Results                                                       *
 *                                                                                                                           *
 *****************************************************************************************************************************
 
::    Total SCF energy                               -224.5084877022
      One-electron energy                            -443.3411257793
      Two-electron energy                             150.9775829103
      Nuclear repulsion energy                         67.8550551669
      Kinetic energy (interpolated)                   225.0296641022
      Virial theorem                                    0.9976839658
      Total spin, S(S+1)                                0.0000000000
      Total spin, S                                     0.0000000000
      Max non-diagonal density matrix element           0.0000014350
      Max non-diagonal Fock matrix element              0.0000002194
 
 
      All orbitals with orbital energies smaller than  E(LUMO)+0.5 are printed
 
++    Molecular orbitals:
      -------------------
 
      Title: SCF orbitals

      Molecular orbitals for symmetry species 1: a  
 
          Orbital            1         2         3         4         5         6         7         8         9        10    
          Energy          -20.9288  -20.7315  -20.7315   -1.7411   -1.4448   -1.0897   -0.8321   -0.8031   -0.7770   -0.5788
          Occ. No.          2.0000    2.0000    2.0000    2.0000    2.0000    2.0000    2.0000    2.0000    2.0000    2.0000
 
        1 O1     1s         0.0023   -0.6843    0.7277   -0.0132    0.0120    0.0107   -0.0108   -0.0230   -0.0000    0.0071
        2 O1     2s         0.0033    0.0050   -0.0056    0.3369   -0.5681    0.6060   -0.2333   -0.4296   -0.0000    0.0639
        3 O1     3s         0.0019    0.0036   -0.0039   -0.0092    0.0195    0.0181   -0.0206   -0.0512   -0.0000    0.0177
        4 O1     4s         0.0003    0.0007   -0.0007   -0.0005    0.0040    0.0029   -0.0041   -0.0109   -0.0000    0.0041
        5 O1     2px       -0.0008   -0.0012    0.0012   -0.0462    0.0573    0.0995    0.1879   -0.3095   -0.0000   -0.5667
        6 O1     3px       -0.0006   -0.0013    0.0011    0.0119   -0.0080   -0.0166   -0.0102    0.0278    0.0000   -0.0086
        7 O1     4px       -0.0000    0.0005   -0.0007    0.0024    0.0000    0.0007   -0.0005    0.0018   -0.0000    0.0040
        8 O1     2py       -0.0020   -0.0020    0.0025   -0.1115    0.0740    0.1045   -0.3220   -0.2836   -0.0000    0.4429
        9 O1     3py       -0.0011   -0.0021    0.0025    0.0141   -0.0157   -0.0176    0.0312    0.0394   -0.0000   -0.0045
       10 O1     4py        0.0005    0.0013   -0.0015    0.0011   -0.0036    0.0011    0.0039    0.0034   -0.0000   -0.0032
       11 O1     2pz       -0.0000    0.0000    0.0000    0.0000   -0.0000   -0.0000    0.0000   -0.0000    0.3806   -0.0000
       12 O1     3pz       -0.0000    0.0000    0.0000   -0.0000   -0.0000   -0.0000   -0.0000    0.0000   -0.0177    0.0000
       13 O1     4pz       -0.0000   -0.0000   -0.0000   -0.0000   -0.0000   -0.0000   -0.0000    0.0000   -0.0068    0.0000
       14 O1     3d2-       0.0003    0.0009   -0.0010    0.0146   -0.0141   -0.0119    0.0003    0.0265    0.0000    0.0016
       15 O1     4d2-       0.0001    0.0005   -0.0005    0.0015   -0.0017   -0.0008    0.0003    0.0023    0.0000    0.0009
       16 O1     3d1-       0.0000   -0.0000    0.0000    0.0000    0.0000   -0.0000   -0.0000    0.0000   -0.0286    0.0000
       17 O1     4d1-       0.0000   -0.0000    0.0000    0.0000    0.0000   -0.0000   -0.0000    0.0000   -0.0045    0.0000
       18 O1     3d0       -0.0003   -0.0005    0.0005   -0.0104    0.0092    0.0043   -0.0088   -0.0146   -0.0000    0.0048
       19 O1     4d0       -0.0002   -0.0004    0.0004   -0.0004    0.0010   -0.0001   -0.0006   -0.0009    0.0000    0.0005
       20 O1     3d1+       0.0000    0.0000    0.0000    0.0000    0.0000    0.0000   -0.0000    0.0000   -0.0147    0.0000
       21 O1     4d1+      -0.0000   -0.0000   -0.0000   -0.0000   -0.0000   -0.0000   -0.0000    0.0000   -0.0029    0.0000
       22 O1     3d2+      -0.0005   -0.0007    0.0008   -0.0141    0.0076    0.0044   -0.0260   -0.0112    0.0000    0.0181
       23 O1     4d2+      -0.0003   -0.0003    0.0004   -0.0019    0.0011    0.0008   -0.0024   -0.0006    0.0000    0.0029
       24 O1     4f3-       0.0001    0.0000   -0.0000    0.0019   -0.0003    0.0011    0.0072   -0.0008   -0.0000   -0.0056
       25 O1     4f2-      -0.0000    0.0000   -0.0000   -0.0000   -0.0000   -0.0000    0.0000   -0.0000    0.0055   -0.0000
       26 O1     4f1-       0.0000    0.0001   -0.0001    0.0031   -0.0028   -0.0009    0.0022    0.0033    0.0000   -0.0009
       27 O1     4f0       -0.0000    0.0000    0.0000    0.0000    0.0000    0.0000   -0.0000    0.0000   -0.0038    0.0000
       28 O1     4f1+       0.0000    0.0001   -0.0001    0.0014   -0.0015   -0.0008    0.0004    0.0016    0.0000   -0.0012
       29 O1     4f2+       0.0000   -0.0000   -0.0000    0.0000   -0.0000    0.0000   -0.0000    0.0000   -0.0045    0.0000
       30 O1     4f3+       0.0000    0.0002   -0.0002    0.0054   -0.0053   -0.0027    0.0019    0.0070    0.0000   -0.0010
       31 O2     1s         0.9991   -0.0000   -0.0008   -0.0275    0.0000   -0.0168   -0.0078    0.0000    0.0000    0.0000
       32 O2     2s        -0.0065    0.0003    0.0111    0.6201   -0.0000   -0.6598   -0.0840    0.0000    0.0000    0.0000
       33 O2     3s        -0.0046    0.0002    0.0064   -0.0689    0.0000   -0.0158   -0.0141    0.0000    0.0000    0.0000
       34 O2     4s        -0.0010    0.0000    0.0010   -0.0124    0.0000   -0.0041   -0.0043   -0.0000    0.0000    0.0000
       35 O2     2px       -0.0011    0.0001    0.0034    0.0929   -0.0000    0.2214    0.6741    0.0000   -0.0000   -0.0000
       36 O2     3px       -0.0019    0.0001    0.0021   -0.0374    0.0000   -0.0300   -0.0711   -0.0000    0.0000    0.0000
       37 O2     4px        0.0016   -0.0000   -0.0007   -0.0030    0.0000    0.0011   -0.0092   -0.0000    0.0000   -0.0000
       38 O2     2py        0.0000   -0.0059    0.0002   -0.0000   -0.3317    0.0000   -0.0000    0.5533    0.0000   -0.1440
       39 O2     3py        0.0000   -0.0038    0.0001    0.0000    0.0637   -0.0000    0.0000   -0.0572   -0.0000   -0.0080
       40 O2     4py       -0.0000    0.0012   -0.0000   -0.0000   -0.0019   -0.0000    0.0000   -0.0092   -0.0000   -0.0005
       41 O2     2pz        0.0000   -0.0000    0.0000    0.0000    0.0000    0.0000    0.0000   -0.0000    0.6808   -0.0000
       42 O2     3pz        0.0000   -0.0000   -0.0000    0.0000    0.0000    0.0000   -0.0000    0.0000   -0.0465    0.0000
       43 O2     4pz        0.0000    0.0000   -0.0000   -0.0000    0.0000    0.0000   -0.0000    0.0000   -0.0164    0.0000
       44 O2     3d2-       0.0000   -0.0014    0.0000   -0.0000   -0.0383    0.0000   -0.0000    0.0270    0.0000   -0.0426
       45 O2     4d2-       0.0000   -0.0006    0.0000   -0.0000   -0.0042    0.0000   -0.0000    0.0025    0.0000   -0.0075
       46 O2     3d1-       0.0000    0.0000    0.0000    0.0000    0.0000    0.0000    0.0000   -0.0000   -0.0000   -0.0000
       47 O2     4d1-      -0.0000    0.0000    0.0000    0.0000    0.0000    0.0000    0.0000   -0.0000   -0.0000   -0.0000
       48 O2     3d0        0.0005   -0.0000   -0.0011   -0.0150    0.0000   -0.0060   -0.0142   -0.0000    0.0000    0.0000
       49 O2     4d0        0.0006   -0.0000   -0.0006    0.0009   -0.0000   -0.0003   -0.0008   -0.0000   -0.0000    0.0000
       50 O2     3d1+       0.0000   -0.0000   -0.0000    0.0000   -0.0000    0.0000    0.0000   -0.0000    0.0299   -0.0000
       51 O2     4d1+      -0.0000   -0.0000   -0.0000    0.0000    0.0000    0.0000    0.0000   -0.0000    0.0044   -0.0000
       52 O2     3d2+       0.0005   -0.0000   -0.0010   -0.0145    0.0000   -0.0011    0.0190    0.0000   -0.0000    0.0000
       53 O2     4d2+       0.0002   -0.0000   -0.0005   -0.0015    0.0000   -0.0005    0.0017    0.0000   -0.0000    0.0000
       54 O2     4f3-      -0.0000    0.0000   -0.0000    0.0000    0.0023   -0.0000    0.0000   -0.0051   -0.0000   -0.0088
       55 O2     4f2-       0.0000    0.0000    0.0000   -0.0000   -0.0000    0.0000    0.0000   -0.0000   -0.0000   -0.0000
       56 O2     4f1-      -0.0000    0.0001   -0.0000    0.0000    0.0052   -0.0000    0.0000   -0.0043   -0.0000    0.0011
       57 O2     4f0       -0.0000    0.0000    0.0000    0.0000    0.0000   -0.0000   -0.0000    0.0000   -0.0061    0.0000
       58 O2     4f1+       0.0001   -0.0000   -0.0001   -0.0027    0.0000   -0.0003   -0.0019   -0.0000   -0.0000   -0.0000
       59 O2     4f2+      -0.0000    0.0000    0.0000    0.0000   -0.0000   -0.0000   -0.0000    0.0000   -0.0065    0.0000
       60 O2     4f3+       0.0001   -0.0000   -0.0002   -0.0096    0.0000   -0.0011   -0.0055   -0.0000    0.0000    0.0000
       61 O3     1s         0.0023    0.7278    0.6842   -0.0132   -0.0120    0.0107   -0.0108    0.0230    0.0000   -0.0071
       62 O3     2s         0.0033   -0.0053   -0.0053    0.3369    0.5681    0.6060   -0.2333    0.4296    0.0000   -0.0639
       63 O3     3s         0.0019   -0.0038   -0.0037   -0.0092   -0.0195    0.0181   -0.0206    0.0512    0.0000   -0.0177
       64 O3     4s         0.0003   -0.0008   -0.0007   -0.0005   -0.0040    0.0029   -0.0041    0.0109    0.0000   -0.0041
       65 O3     2px       -0.0008    0.0013    0.0011   -0.0462   -0.0573    0.0995    0.1879    0.3095    0.0000    0.5667
       66 O3     3px       -0.0006    0.0013    0.0010    0.0119    0.0080   -0.0166   -0.0102   -0.0278   -0.0000    0.0086
       67 O3     4px       -0.0000   -0.0006   -0.0007    0.0024   -0.0000    0.0007   -0.0005   -0.0018    0.0000   -0.0040
       68 O3     2py        0.0020   -0.0022   -0.0024    0.1115    0.0740   -0.1045    0.3220   -0.2835   -0.0000    0.4429
       69 O3     3py        0.0011   -0.0022   -0.0024   -0.0141   -0.0157    0.0176   -0.0312    0.0394    0.0000   -0.0045
       70 O3     4py       -0.0005    0.0014    0.0014   -0.0011   -0.0036   -0.0011   -0.0039    0.0034    0.0000   -0.0032
       71 O3     2pz       -0.0000    0.0000    0.0000   -0.0000   -0.0000   -0.0000    0.0000   -0.0000    0.3806    0.0000
       72 O3     3pz       -0.0000   -0.0000   -0.0000   -0.0000   -0.0000   -0.0000   -0.0000    0.0000   -0.0177   -0.0000
       73 O3     4pz       -0.0000   -0.0000   -0.0000   -0.0000   -0.0000   -0.0000   -0.0000    0.0000   -0.0068   -0.0000
       74 O3     3d2-      -0.0003    0.0010    0.0009   -0.0146   -0.0141    0.0119   -0.0003    0.0265    0.0000    0.0016
       75 O3     4d2-      -0.0001    0.0005    0.0005   -0.0015   -0.0017    0.0008   -0.0003    0.0023    0.0000    0.0009
       76 O3     3d1-      -0.0000    0.0000    0.0000   -0.0000   -0.0000    0.0000    0.0000   -0.0000    0.0286   -0.0000
       77 O3     4d1-      -0.0000   -0.0000   -0.0000   -0.0000   -0.0000    0.0000    0.0000   -0.0000    0.0045   -0.0000
       78 O3     3d0       -0.0003    0.0005    0.0005   -0.0104   -0.0092    0.0043   -0.0088    0.0146    0.0000   -0.0048
       79 O3     4d0       -0.0002    0.0004    0.0004   -0.0004   -0.0010   -0.0001   -0.0006    0.0009   -0.0000   -0.0005
       80 O3     3d1+       0.0000   -0.0000   -0.0000   -0.0000    0.0000    0.0000   -0.0000    0.0000   -0.0147    0.0000
       81 O3     4d1+       0.0000   -0.0000   -0.0000   -0.0000    0.0000    0.0000   -0.0000    0.0000   -0.0029    0.0000
       82 O3     3d2+      -0.0005    0.0007    0.0007   -0.0141   -0.0076    0.0044   -0.0260    0.0112    0.0000   -0.0181
       83 O3     4d2+      -0.0003    0.0003    0.0004   -0.0019   -0.0011    0.0008   -0.0024    0.0006    0.0000   -0.0029
       84 O3     4f3-      -0.0001    0.0000    0.0000   -0.0019   -0.0003   -0.0011   -0.0072   -0.0008    0.0000   -0.0056
       85 O3     4f2-      -0.0000   -0.0000   -0.0000   -0.0000   -0.0000    0.0000   -0.0000    0.0000   -0.0055   -0.0000
       86 O3     4f1-      -0.0000    0.0002    0.0001   -0.0031   -0.0028    0.0009   -0.0022    0.0033    0.0000   -0.0009
       87 O3     4f0        0.0000   -0.0000   -0.0000    0.0000    0.0000    0.0000   -0.0000    0.0000   -0.0038    0.0000
       88 O3     4f1+       0.0000   -0.0001   -0.0001    0.0014    0.0015   -0.0008    0.0004   -0.0016   -0.0000    0.0012
       89 O3     4f2+      -0.0000    0.0000    0.0000    0.0000    0.0000    0.0000   -0.0000    0.0000   -0.0045   -0.0000
       90 O3     4f3+       0.0000   -0.0002   -0.0002    0.0054    0.0053   -0.0027    0.0019   -0.0070   -0.0000    0.0010
 
          Orbital           11        12        13        14        15        16        17        18        19        20    
          Energy           -0.5399   -0.4947   -0.0463    0.1748    0.1828    0.2360    0.2597    0.3482    0.3627    0.3800
          Occ. No.          2.0000    2.0000    0.0000    0.0000    0.0000    0.0000    0.0000    0.0000    0.0000    0.0000
 
        1 O1     1s         0.0046    0.0000   -0.0000   -0.1989   -0.1316   -0.0000   -0.0075   -0.0197    0.0731    0.0000
        2 O1     2s         0.0273    0.0000   -0.0000   -1.4643   -0.9851   -0.0000    0.0431   -0.0467    0.4075    0.0000
        3 O1     3s         0.0173    0.0000   -0.0000   -0.8513   -0.5461   -0.0000   -0.1125   -0.0354    0.5744    0.0000
        4 O1     4s         0.0049    0.0000   -0.0000   -0.1917   -0.1143   -0.0000   -0.0376   -0.0022    0.1628    0.0000
        5 O1     2px        0.6581    0.0000   -0.0000    0.4326    0.2105    0.0000   -0.1577   -0.2330    0.0068    0.0000
        6 O1     3px        0.0104   -0.0000    0.0000    0.4037    0.3059   -0.0000    0.2458   -0.7626    0.2666    0.0000
        7 O1     4px       -0.0047   -0.0000    0.0000    0.0412    0.0735   -0.0000    0.1350   -0.3030    0.1410    0.0000
        8 O1     2py       -0.0683   -0.0000   -0.0000    0.5521    0.8510    0.0000   -0.4101   -0.2728   -0.0766   -0.0000
        9 O1     3py       -0.0155    0.0000   -0.0000    0.7118    0.6989    0.0000   -0.2940   -0.1776   -0.7043   -0.0000
       10 O1     4py       -0.0009    0.0000   -0.0000    0.1119    0.0796    0.0000   -0.1143   -0.0361   -0.1676    0.0000
       11 O1     2pz        0.0000   -0.7033    0.6680    0.0000   -0.0000   -0.1518   -0.0000   -0.0000   -0.0000   -0.1689
       12 O1     3pz        0.0000   -0.0333    0.1655   -0.0000   -0.0000    0.3270    0.0000   -0.0000    0.0000   -0.9216
       13 O1     4pz       -0.0000    0.0067    0.0258   -0.0000   -0.0000    0.1910    0.0000   -0.0000    0.0000   -0.3704
       14 O1     3d2-      -0.0119    0.0000   -0.0000   -0.0755   -0.0456    0.0000   -0.0068   -0.0004    0.0328   -0.0000
       15 O1     4d2-      -0.0013    0.0000   -0.0000   -0.0485   -0.0305    0.0000   -0.0022    0.0143    0.0199   -0.0000
       16 O1     3d1-       0.0000    0.0231    0.0086    0.0000    0.0000    0.0127    0.0000   -0.0000   -0.0000    0.0020
       17 O1     4d1-       0.0000    0.0057    0.0002    0.0000    0.0000    0.0042    0.0000   -0.0000   -0.0000    0.0097
       18 O1     3d0        0.0052   -0.0000    0.0000    0.0526    0.0436   -0.0000    0.0165   -0.0062   -0.0392    0.0000
       19 O1     4d0        0.0003   -0.0000    0.0000    0.0341    0.0291   -0.0000    0.0069   -0.0108   -0.0214    0.0000
       20 O1     3d1+       0.0000    0.0113    0.0052   -0.0000    0.0000    0.0038    0.0000   -0.0000   -0.0000    0.0151
       21 O1     4d1+      -0.0000    0.0027    0.0001   -0.0000    0.0000   -0.0003   -0.0000    0.0000    0.0000    0.0130
       22 O1     3d2+       0.0025    0.0000   -0.0000    0.0504    0.0508   -0.0000    0.0383    0.0023   -0.1000   -0.0000
       23 O1     4d2+      -0.0009   -0.0000   -0.0000    0.0296    0.0368   -0.0000    0.0138   -0.0007   -0.0608   -0.0000
       24 O1     4f3-       0.0016    0.0000    0.0000   -0.0028   -0.0008   -0.0000    0.0024   -0.0037    0.0107    0.0000
       25 O1     4f2-      -0.0000   -0.0041    0.0000   -0.0000   -0.0000    0.0020    0.0000   -0.0000    0.0000   -0.0056
       26 O1     4f1-      -0.0015    0.0000   -0.0000   -0.0057   -0.0046    0.0000   -0.0003    0.0053    0.0075   -0.0000
       27 O1     4f0        0.0000    0.0016    0.0015    0.0000    0.0000   -0.0016   -0.0000    0.0000   -0.0000    0.0059
       28 O1     4f1+       0.0003   -0.0000    0.0000   -0.0018   -0.0028    0.0000   -0.0006    0.0048    0.0018   -0.0000
       29 O1     4f2+      -0.0000    0.0033   -0.0006   -0.0000    0.0000   -0.0010    0.0000    0.0000   -0.0000    0.0026
       30 O1     4f3+      -0.0033   -0.0000    0.0000   -0.0089   -0.0053    0.0000    0.0017    0.0090    0.0068   -0.0000
       31 O2     1s         0.0212    0.0000   -0.0000   -0.0000    0.3146    0.0000   -0.0434   -0.0000   -0.1850   -0.0000
       32 O2     2s         0.2579    0.0000   -0.0000   -0.0000    2.2953    0.0000   -0.4409   -0.0000   -1.0701   -0.0000
       33 O2     3s         0.0516    0.0000   -0.0000   -0.0000    1.2419    0.0000   -0.0616   -0.0000   -0.7171    0.0000
       34 O2     4s         0.0128    0.0000   -0.0000   -0.0000    0.2646    0.0000   -0.0147   -0.0000   -0.1172    0.0000
       35 O2     2px       -0.5078   -0.0000    0.0000   -0.0000    0.7539    0.0000   -0.3414   -0.0000   -0.2618   -0.0000
       36 O2     3px       -0.0069   -0.0000    0.0000   -0.0000    0.7650    0.0000    0.2425   -0.0000   -0.8631   -0.0000
       37 O2     4px       -0.0018   -0.0000    0.0000   -0.0000    0.1282   -0.0000    0.1403   -0.0000   -0.1373   -0.0000
       38 O2     2py        0.0000   -0.0000    0.0000    1.3964    0.0000    0.0000   -0.0000   -0.1251   -0.0000   -0.0000
       39 O2     3py        0.0000   -0.0000    0.0000    1.3702    0.0000    0.0000   -0.0000    0.4572   -0.0000   -0.0000
       40 O2     4py        0.0000   -0.0000    0.0000    0.1399    0.0000    0.0000   -0.0000    0.2171   -0.0000   -0.0000
       41 O2     2pz       -0.0000   -0.0000   -0.8647   -0.0000    0.0000    0.0101   -0.0000    0.0000   -0.0000   -0.0000
       42 O2     3pz        0.0000    0.0000   -0.1863   -0.0000    0.0000    0.3663    0.0000    0.0000   -0.0000   -0.0000
       43 O2     4pz        0.0000    0.0000   -0.0213   -0.0000    0.0000    0.2001    0.0000    0.0000   -0.0000   -0.0000
       44 O2     3d2-       0.0000    0.0000   -0.0000    0.1356    0.0000    0.0000   -0.0000    0.0854   -0.0000   -0.0000
       45 O2     4d2-       0.0000    0.0000    0.0000    0.0838    0.0000    0.0000   -0.0000    0.0632   -0.0000   -0.0000
       46 O2     3d1-       0.0000   -0.0592    0.0000    0.0000    0.0000    0.0000   -0.0000    0.0000   -0.0000    0.0994
       47 O2     4d1-       0.0000   -0.0139    0.0000    0.0000    0.0000    0.0000   -0.0000    0.0000   -0.0000    0.0597
       48 O2     3d0        0.0188   -0.0000    0.0000    0.0000   -0.0675    0.0000   -0.0578    0.0000    0.1601    0.0000
       49 O2     4d0        0.0022    0.0000   -0.0000    0.0000   -0.0454    0.0000   -0.0285    0.0000    0.0814    0.0000
       50 O2     3d1+      -0.0000   -0.0000    0.0045    0.0000    0.0000   -0.0270   -0.0000    0.0000   -0.0000    0.0000
       51 O2     4d1+       0.0000   -0.0000    0.0011    0.0000    0.0000   -0.0110   -0.0000    0.0000   -0.0000   -0.0000
       52 O2     3d2+       0.0398   -0.0000    0.0000    0.0000   -0.0536    0.0000   -0.0862    0.0000    0.0569   -0.0000
       53 O2     4d2+       0.0083   -0.0000    0.0000    0.0000   -0.0313    0.0000   -0.0356    0.0000    0.0059   -0.0000
       54 O2     4f3-       0.0000    0.0000    0.0000   -0.0072   -0.0000    0.0000    0.0000    0.0020   -0.0000    0.0000
       55 O2     4f2-       0.0000   -0.0080    0.0000    0.0000    0.0000    0.0000   -0.0000    0.0000   -0.0000    0.0069
       56 O2     4f1-      -0.0000   -0.0000    0.0000   -0.0087   -0.0000   -0.0000    0.0000   -0.0114    0.0000    0.0000
       57 O2     4f0       -0.0000    0.0000   -0.0020   -0.0000   -0.0000   -0.0021    0.0000   -0.0000    0.0000    0.0000
       58 O2     4f1+      -0.0005   -0.0000    0.0000    0.0000   -0.0049   -0.0000   -0.0050    0.0000    0.0108    0.0000
       59 O2     4f2+       0.0000    0.0000    0.0009   -0.0000   -0.0000   -0.0018    0.0000    0.0000    0.0000    0.0000
       60 O2     4f3+       0.0053   -0.0000    0.0000    0.0000   -0.0107   -0.0000   -0.0083    0.0000    0.0155    0.0000
       61 O3     1s         0.0046   -0.0000    0.0000    0.1989   -0.1316    0.0000   -0.0075    0.0197    0.0731    0.0000
       62 O3     2s         0.0273   -0.0000    0.0000    1.4643   -0.9851   -0.0000    0.0431    0.0467    0.4075    0.0000
       63 O3     3s         0.0173    0.0000   -0.0000    0.8513   -0.5461    0.0000   -0.1125    0.0354    0.5744    0.0000
       64 O3     4s         0.0049    0.0000   -0.0000    0.1917   -0.1143    0.0000   -0.0376    0.0022    0.1628    0.0000
       65 O3     2px        0.6581    0.0000   -0.0000   -0.4326    0.2105    0.0000   -0.1577    0.2330    0.0068    0.0000
       66 O3     3px        0.0104    0.0000   -0.0000   -0.4037    0.3059   -0.0000    0.2458    0.7626    0.2665    0.0000
       67 O3     4px       -0.0047   -0.0000    0.0000   -0.0412    0.0735   -0.0000    0.1350    0.3030    0.1410    0.0000
       68 O3     2py        0.0683    0.0000   -0.0000    0.5521   -0.8509   -0.0000    0.4101   -0.2728    0.0766    0.0000
       69 O3     3py        0.0155   -0.0000   -0.0000    0.7119   -0.6989   -0.0000    0.2940   -0.1776    0.7043   -0.0000
       70 O3     4py        0.0009    0.0000   -0.0000    0.1119   -0.0796   -0.0000    0.1143   -0.0361    0.1676   -0.0000
       71 O3     2pz       -0.0000    0.7033    0.6680    0.0000   -0.0000   -0.1518   -0.0000    0.0000    0.0000    0.1689
       72 O3     3pz       -0.0000    0.0333    0.1655    0.0000   -0.0000    0.3270    0.0000    0.0000   -0.0000    0.9216
       73 O3     4pz        0.0000   -0.0067    0.0258    0.0000   -0.0000    0.1910    0.0000    0.0000   -0.0000    0.3704
       74 O3     3d2-       0.0119    0.0000    0.0000   -0.0755    0.0455   -0.0000    0.0068   -0.0004   -0.0328    0.0000
       75 O3     4d2-       0.0013    0.0000    0.0000   -0.0485    0.0305   -0.0000    0.0022    0.0143   -0.0199    0.0000
       76 O3     3d1-      -0.0000    0.0231   -0.0086    0.0000   -0.0000   -0.0127    0.0000   -0.0000    0.0000    0.0020
       77 O3     4d1-      -0.0000    0.0057   -0.0002    0.0000   -0.0000   -0.0042    0.0000   -0.0000    0.0000    0.0097
       78 O3     3d0        0.0052    0.0000   -0.0000   -0.0526    0.0436   -0.0000    0.0165    0.0062   -0.0392   -0.0000
       79 O3     4d0        0.0003    0.0000   -0.0000   -0.0341    0.0291   -0.0000    0.0069    0.0108   -0.0214    0.0000
       80 O3     3d1+       0.0000   -0.0113    0.0052    0.0000    0.0000    0.0038    0.0000   -0.0000   -0.0000   -0.0151
       81 O3     4d1+       0.0000   -0.0027    0.0001    0.0000    0.0000   -0.0003   -0.0000   -0.0000    0.0000   -0.0130
       82 O3     3d2+       0.0025   -0.0000    0.0000   -0.0504    0.0508   -0.0000    0.0383   -0.0023   -0.1000   -0.0000
       83 O3     4d2+      -0.0009   -0.0000    0.0000   -0.0296    0.0368   -0.0000    0.0138    0.0007   -0.0608   -0.0000
       84 O3     4f3-      -0.0016   -0.0000    0.0000   -0.0028    0.0008    0.0000   -0.0024   -0.0037   -0.0107   -0.0000
       85 O3     4f2-       0.0000   -0.0041   -0.0000   -0.0000    0.0000   -0.0020   -0.0000   -0.0000    0.0000   -0.0056
       86 O3     4f1-       0.0015   -0.0000    0.0000   -0.0057    0.0046   -0.0000    0.0003    0.0053   -0.0075   -0.0000
       87 O3     4f0        0.0000   -0.0016    0.0015    0.0000    0.0000   -0.0016   -0.0000   -0.0000   -0.0000   -0.0059
       88 O3     4f1+       0.0003   -0.0000   -0.0000    0.0018   -0.0028    0.0000   -0.0006   -0.0048    0.0018   -0.0000
       89 O3     4f2+       0.0000   -0.0033   -0.0006    0.0000    0.0000   -0.0010   -0.0000   -0.0000   -0.0000   -0.0026
       90 O3     4f3+      -0.0033    0.0000   -0.0000    0.0089   -0.0053   -0.0000    0.0017   -0.0090    0.0068   -0.0000
 
          Orbital           21    
          Energy            0.4226
          Occ. No.          0.0000
 
        1 O1     1s        -0.0045
        2 O1     2s        -0.0147
        3 O1     3s         0.1835
        4 O1     4s         0.0969
        5 O1     2px        0.3068
        6 O1     3px        0.7124
        7 O1     4px        0.1911
        8 O1     2py       -0.0699
        9 O1     3py        0.5120
       10 O1     4py        0.1768
       11 O1     2pz        0.0000
       12 O1     3pz        0.0000
       13 O1     4pz        0.0000
       14 O1     3d2-      -0.1153
       15 O1     4d2-      -0.0788
       16 O1     3d1-       0.0000
       17 O1     4d1-      -0.0000
       18 O1     3d0        0.0351
       19 O1     4d0        0.0244
       20 O1     3d1+      -0.0000
       21 O1     4d1+      -0.0000
       22 O1     3d2+       0.0309
       23 O1     4d2+       0.0168
       24 O1     4f3-       0.0035
       25 O1     4f2-       0.0000
       26 O1     4f1-      -0.0060
       27 O1     4f0       -0.0000
       28 O1     4f1+      -0.0051
       29 O1     4f2+      -0.0000
       30 O1     4f3+      -0.0137
       31 O2     1s         0.1172
       32 O2     2s         0.6112
       33 O2     3s         0.7579
       34 O2     4s         0.2050
       35 O2     2px       -0.5555
       36 O2     3px       -1.0374
       37 O2     4px       -0.3550
       38 O2     2py        0.0000
       39 O2     3py        0.0000
       40 O2     4py        0.0000
       41 O2     2pz        0.0000
       42 O2     3pz        0.0000
       43 O2     4pz        0.0000
       44 O2     3d2-      -0.0000
       45 O2     4d2-      -0.0000
       46 O2     3d1-      -0.0000
       47 O2     4d1-      -0.0000
       48 O2     3d0       -0.0500
       49 O2     4d0       -0.0091
       50 O2     3d1+       0.0000
       51 O2     4d1+       0.0000
       52 O2     3d2+      -0.0839
       53 O2     4d2+      -0.0396
       54 O2     4f3-      -0.0000
       55 O2     4f2-      -0.0000
       56 O2     4f1-       0.0000
       57 O2     4f0       -0.0000
       58 O2     4f1+       0.0045
       59 O2     4f2+      -0.0000
       60 O2     4f3+       0.0031
       61 O3     1s        -0.0045
       62 O3     2s        -0.0147
       63 O3     3s         0.1835
       64 O3     4s         0.0969
       65 O3     2px        0.3068
       66 O3     3px        0.7124
       67 O3     4px        0.1911
       68 O3     2py        0.0699
       69 O3     3py       -0.5120
       70 O3     4py       -0.1768
       71 O3     2pz       -0.0000
       72 O3     3pz       -0.0000
       73 O3     4pz       -0.0000
       74 O3     3d2-       0.1153
       75 O3     4d2-       0.0788
       76 O3     3d1-      -0.0000
       77 O3     4d1-      -0.0000
       78 O3     3d0        0.0351
       79 O3     4d0        0.0244
       80 O3     3d1+       0.0000
       81 O3     4d1+       0.0000
       82 O3     3d2+       0.0309
       83 O3     4d2+       0.0168
       84 O3     4f3-      -0.0035
       85 O3     4f2-       0.0000
       86 O3     4f1-       0.0060
       87 O3     4f0        0.0000
       88 O3     4f1+      -0.0051
       89 O3     4f2+       0.0000
       90 O3     4f3+      -0.0137
--
 
 
++    Molecular charges:
      ------------------
 
      Mulliken charges per centre and basis function type
      ---------------------------------------------------
 
                O1      O2      O3    
      1s       1.9979  1.9982  1.9979
      2s       1.9460  1.7048  1.9460
      2px      1.7905  1.5677  1.7905
      2pz      1.3747  1.1646  1.3747
      2py      1.0322  1.0402  1.0322
      3s      -0.0016 -0.0247 -0.0016
      3px     -0.0120 -0.0182 -0.0120
      3pz     -0.0101 -0.0139 -0.0101
      3py      0.0038  0.0032  0.0038
      4s       0.0044  0.0023  0.0044
      3d2+     0.0139  0.0380  0.0139
      3d1+     0.0033  0.0077  0.0033
      3d0      0.0057  0.0075  0.0057
      3d1-     0.0120  0.0479  0.0120
      3d2-     0.0146  0.0415  0.0146
      4px      0.0006  0.0016  0.0006
      4pz      0.0013  0.0017  0.0013
      4py      0.0027  0.0031  0.0027
      4d2+     0.0007  0.0068  0.0007
      4d1+     0.0006  0.0010  0.0006
      4d0     -0.0000 -0.0002 -0.0000
      4d1-     0.0014  0.0122  0.0014
      4d2-     0.0005  0.0048  0.0005
      4f3+     0.0027  0.0029  0.0027
      4f2+     0.0008  0.0013  0.0008
      4f1+     0.0003  0.0005  0.0003
      4f0      0.0009  0.0016  0.0009
      4f1-     0.0010  0.0012  0.0010
      4f2-     0.0014  0.0037  0.0014
      4f3-     0.0022  0.0069  0.0022
      Total    8.1920  7.6160  8.1920
 
      N-E     -0.1920  0.3840 -0.1920
 
      Total electronic charge=   24.000000
 
      Total            charge=   -0.000000
--
 
 
  Input file to MOLDEN was generated!
 
 
++    Static properties:
      ------------------
 
 
      LoProp Charges per center
 

                   O1       O2       O3    
      Nuclear      8.0000   8.0000   8.0000
      Electronic  -8.2058  -7.5884  -8.2058
 
      Total       -0.2058   0.4116  -0.2058
--
 
 
++    Natural Bond Order analysis
      ---------------------------
      Based on LoProp computed density
      -------------------------------------------------------------------------------------
      Atom A       Atom B       Bond Order | Atom A       Atom B       Bond Order
        O1           O2             1.997  |   O2           O3             1.997
      -------------------------------------------------------------------------------------
      NBO located     11.998 core electrons.
      NBO located      3.936 lone pair electrons.
      NBO located      7.988 electrons involved in    2 bonds.
      The remaining    0.078 electrons are to be considered as diffuse
--
 
 
++    Molecular properties:
      ---------------------
 
      Charge (e):
                      =   -0.0000
      Dipole Moment (Debye):
      Origin of the operator (Ang)=    0.0000    0.0000    0.0000
                   X= -6.2415E-01               Y=  4.5530E-06               Z= -8.3102E-14           Total=  6.2415E-01
      Quadrupole Moment (Debye*Ang):
      Origin of the operator (Ang)=    0.3851    0.0000    0.0000
                  XX= -1.5981E+01              XY=  9.3867E-07              XZ= -8.9270E-14              YY= -1.7212E+01
                  YZ= -6.0612E-14              ZZ= -1.4912E+01
      In traceless form (Debye*Ang)
                  XX=  8.0534E-02              XY=  1.4080E-06              XZ= -1.3391E-13              YY= -1.7648E+00
                  YZ= -9.0919E-14              ZZ=  1.6842E+00
--
 
 
  Input file to MOLDEN was generated!
 
 ###############################################################################
 ###############################################################################
 ###                                                                         ###
 ###                                                                         ###
 ###    RunFile label nBas                                                   ###
 ###    was used       78 times                                              ###
 ###                                                                         ###
 ###                                                                         ###
 ###############################################################################
 ###############################################################################
forrtl: warning (528): IEEE_UNDERFLOW is signaling
--- Stop Module: scf at Fri Apr 11 18:53:20 2025 /rc=_RC_ALL_IS_WELL_ ---
*** files: ozone_126.25.LprOrb ozone_126.25.LoProp.molden ozone_126.25.scf.molden ozone_126.25.ScfOrb ozone_126.25.scf.h5 xmldump
    saved to directory /home/grierjones/DDCASPT2/ozone/multistate/ANO-RCC-VTZP/ozone_126.25

>>> COPY /tmp/ozone_126.25/ozone_126.25.scf.h5 /home/grierjones/DDCASPT2/ozone/multistate/ANO-RCC-VTZP/ozone_126.25/

*** symbolic link created: INPORB -> ozone_126.25.ScfOrb
--- Start Module: rasscf at Fri Apr 11 18:53:20 2025 ---
 
()()()()()()()()()()()()()()()()()()()()()()()()()()()()()()()()()()()()()()()()()()()()()()()()()()

                                              &RASSCF

                                   only a single process is used
                       available to each process: 2.0 GB of memory, 1 thread?
()()()()()()()()()()()()()()()()()()()()()()()()()()()()()()()()()()()()()()()()()()()()()()()()()()
 
 
      Header of the ONEINT file:
      --------------------------
      
      Integrals generated by seward 4.2.0  , Fri Apr 11 18:53:17 2025
 
 
      OrdInt status: non-squared
 
 
      Cartesian coordinates in Angstrom:
      -----------------------------------------------------
      No.  Label        X            Y            Z        
      -----------------------------------------------------
       1   O1         0.57771400   1.13996900   0.00000000
       2   O2         0.00000000   0.00000000   0.00000000
       3   O3         0.57771400  -1.13996900   0.00000000
      -----------------------------------------------------
      Nuclear repulsion energy =   67.85505517
 
++    Wave function specifications:
      -----------------------------
 
      Number of closed shell electrons          20
      Number of electrons in active shells       4
      Max number of holes in RAS1 space          0
      Max nr of electrons in RAS3 space          0
      Number of inactive orbitals               10
      Number of active orbitals                  3
      Number of secondary orbitals              77
      Spin quantum number                      0.0
      State symmetry                             1
--
 
++    Orbital specifications:
      -----------------------
 
      Symmetry species                           1
                                                 a
      Frozen orbitals                            0
      Inactive orbitals                         10
      Active orbitals                            3
      RAS1 orbitals                              0
      RAS2 orbitals                              3
      RAS3 orbitals                              0
      Secondary orbitals                        77
      Deleted orbitals                           0
      Number of basis functions                 90
--
 
++    CI expansion specifications:
      ----------------------------
 
      Number of CSFs                             6
      Number of determinants                     6
      Number of root(s) required                 3
      Root chosen for geometry opt.              3
      CI roots used                              1     2     3
      weights                                0.333 0.333 0.333
      highest root included in the CI            3
      max. size of the explicit Hamiltonian      6
--
 
++    Optimization specifications:
      ----------------------------
 
      RASSCF algorithm: Conventional
      Maximum number of macro iterations       200
      Maximum number of SX iterations          100
      Threshold for RASSCF energy            0.100E-07
      Threshold for max MO rotation          0.100E+00
      Threshold for max BLB element          0.100E-03
      Level shift parameter                  0.500E+00
      Make Quasi-Newton update
--
 
      The MO-coefficients are taken from the file:
      /home/grierjones/DDCASPT2/ozone/multistate/ANO-RCC-VTZP/ozone_126.00/ozone_126.00.RasOrb                                        
      Title: RASSCF average (pseudo-natural) orbitals                                      
 
      Total molecular charge    0.00
 
      ************************************************************************************************************************
      *                                                                                                                      *
      *                                            Wave function control section                                             *
      *                                                                                                                      *
      ************************************************************************************************************************
 
 
                                         RASSCF iterations: Energy and convergence statistics
                                         ----------------------------------------------------
 
      Iter CI   SX   CI       RASSCF       Energy    max ROT     max BLB   max BLB  Level Ln srch  Step   QN   Walltime
          iter iter root      energy       change     param      element    value   shift minimum  type update hh:mm:ss
 Nr of preliminary CI iterations:   1
        1   1    4    0  -224.47174828    0.00E+00   0.91E-03   12  23 1  0.89E-03*  0.29   0.00    SX    NO    0:00:00
        2   1    4    0  -224.47175348   -0.52E-05*  0.60E-03   12  23 1  0.44E-03*  0.29   0.00    SX    NO    0:00:00
        3   1    4    0  -224.47175489   -0.14E-05*  0.43E-03   12  23 1  0.28E-03*  0.29   0.00    SX    NO    0:00:00
        4   1    4    0  -224.47175541   -0.53E-06*  0.29E-03    8  11 1  0.15E-03*  0.29   0.00    SX    NO    0:00:00
        5   1    4    0  -224.47175564   -0.23E-06*  0.42E-03    8  11 1  0.11E-03*  0.29   2.42    LS   YES    0:00:00
        6   1    4    0  -224.47175577   -0.13E-06* -0.35E-03   10  37 1 -0.89E-04   0.29   1.04    QN   YES    0:00:00
        7   1    4    0  -224.47175586   -0.88E-07*  0.11E-03   12  23 1 -0.99E-04   0.29   0.85    QN   YES    0:00:00
        8   1    4    0  -224.47175589   -0.32E-07*  0.16E-03   12  23 1 -0.61E-04   0.29   2.50    LS   YES    0:00:00
        9   1    4    0  -224.47175591   -0.23E-07*  0.30E-03   10  11 1 -0.39E-04   0.29   1.22    QN   YES    0:00:00
       10   1    3    0  -224.47175594   -0.25E-07*  0.39E-03   10  11 1 -0.30E-04   0.29   1.72    QN   YES    0:00:00
       11   1    3    0  -224.47175595   -0.18E-07*  0.30E-03   12  23 1  0.20E-04   0.29   1.40    QN   YES    0:00:00
       12   1    3    0  -224.47175597   -0.12E-07*  0.52E-03   10  13 1  0.24E-04   0.29   2.15    QN   YES    0:00:00
       13   1    3    0  -224.47175598   -0.18E-07* -0.28E-03    8  19 1 -0.22E-04   0.29   1.43    QN   YES    0:00:00
       14   1    3    0  -224.47175599   -0.85E-08  -0.20E-03   10  37 1  0.23E-04   0.29   2.50    QN   YES    0:00:00
      Convergence after 14 iterations
 
  Dmat in MO in SXCTL bf call to SXHAM                                                                                    
  mat. size =     3x    3
 
        1.3115246390019746
       -0.0025978776044380      1.7285779061299098
       -0.0003406218554682     -0.0001778385653307      0.9598974548681167
       15   1    3    0  -224.47175600   -0.67E-08  -0.20E-03   11  23 1  0.11E-04   0.29   2.50    QN   YES    0:00:00
 
      ************************************************************************************************************************
                                                      Wave function printout:
                       occupation of active orbitals, and spin coupling of open shells (u,d: Spin up or down)
      ************************************************************************************************************************
 
      Note: transformation to natural orbitals
      has been made, which may change the order of the CSFs.
 
      printout of CI-coefficients larger than  0.05 for root  1
      energy=    -224.496741
      conf/sym  111     Coeff  Weight
             1  220   0.89706 0.80471
             3  202  -0.09809 0.00962
             4  u2d  -0.39918 0.15935
             5  ud2  -0.14453 0.02089
             6  022  -0.07166 0.00514
 
      printout of CI-coefficients larger than  0.05 for root  2
      energy=    -224.485737
      conf/sym  111     Coeff  Weight
             1  220  -0.21954 0.04820
             2  2ud   0.36810 0.13550
             3  202  -0.35878 0.12872
             4  u2d  -0.32875 0.10808
             5  ud2  -0.52724 0.27799
             6  022   0.54911 0.30152
 
      printout of CI-coefficients larger than  0.05 for root  3
      energy=    -224.432790
      conf/sym  111     Coeff  Weight
             1  220   0.37539 0.14092
             2  2ud   0.28873 0.08337
             3  202  -0.09637 0.00929
             4  u2d   0.80378 0.64607
             6  022   0.34559 0.11943
 
      Natural orbitals and occupation numbers for root  1
      sym 1:   1.896115   1.999331   0.104554
 
      Natural orbitals and occupation numbers for root  2
      sym 1:   0.786809   1.310939   1.902252
 
      Natural orbitals and occupation numbers for root  3
      sym 1:   1.789564   1.999981   0.210455
 
      ************************************************************************************************************************
      *                                                                                                                      *
      *                                                    Final results                                                     *
      *                                                                                                                      *
      ************************************************************************************************************************
 
 
++    Wave function specifications:
      -----------------------------
 
      Number of closed shell electrons          20
      Number of electrons in active shells       4
      Max number of holes in RAS1 space          0
      Max nr of electrons in RAS3 space          0
      Number of inactive orbitals               10
      Number of active orbitals                  3
      Number of secondary orbitals              77
      Spin quantum number                      0.0
      State symmetry                             1
--
 
++    Orbital specifications:
      -----------------------
 
      Symmetry species                           1
                                                 a
      Frozen orbitals                            0
      Inactive orbitals                         10
      Active orbitals                            3
      RAS1 orbitals                              0
      RAS2 orbitals                              3
      RAS3 orbitals                              0
      Secondary orbitals                        77
      Deleted orbitals                           0
      Number of basis functions                 90
--
 
++    CI expansion specifications:
      ----------------------------
 
      Number of CSFs                             6
      Number of determinants                     6
      Number of root(s) required                 3
      CI roots used                              1     2     3
      weights                                0.333 0.333 0.333
      highest root included in the CI            3
      Root passed to geometry opt.               3
--
 
++    Final optimization conditions:
      ------------------------------
 
      Average CI energy                            -224.47175600
      RASSCF energy for state  3                   -224.43278955
      Super-CI energy                                -0.00000000
      RASSCF energy change                           -0.00000001
      Max change in MO coefficients              -0.158E-03
      Max non-diagonal density matrix element    -0.198E-03
      Maximum BLB matrix element                  0.112E-04
      (orbital pair  11,  23 in symmetry   1)
      Norm of electronic gradient            0.168E+00
--
 
 
      Final state energy(ies):
      ------------------------
 
::    RASSCF root number  1 Total energy:   -224.49674097
::    RASSCF root number  2 Total energy:   -224.48573748
::    RASSCF root number  3 Total energy:   -224.43278955
 
++    Molecular orbitals:
      -------------------
 
      Pseudonatural active orbitals and approximate occupation numbers
 
 
 
 
      Molecular orbitals for symmetry species 1: a  
 
 
      Orbital                1         2         3         4         5         6         7         8         9        10
      Energy          -20.8312  -20.7418  -20.7324   -1.7099   -1.4320   -1.0734   -0.7874   -0.7781   -0.7736   -0.5536
      Occ. No.          2.0000    2.0000    2.0000    2.0000    2.0000    2.0000    2.0000    2.0000    2.0000    2.0000
 
    1 O1     1s         0.0040    0.9989    0.0023   -0.0133    0.0106    0.0130   -0.0003   -0.0136    0.0209   -0.0003
    2 O1     2s         0.0036   -0.0074   -0.0003    0.3606   -0.5876    0.6175   -0.0103   -0.2433    0.3513   -0.0029
    3 O1     3s         0.0020   -0.0053   -0.0001   -0.0117    0.0191    0.0213   -0.0002   -0.0292    0.0468    0.0006
    4 O1     4s         0.0003   -0.0010    0.0000   -0.0010    0.0041    0.0033   -0.0001   -0.0066    0.0101    0.0003
    5 O1     2px       -0.0008    0.0017   -0.0001   -0.0386    0.0434    0.0890    0.1105    0.0635    0.1991    0.2497
    6 O1     3px       -0.0006    0.0016   -0.0002    0.0120   -0.0067   -0.0167   -0.0082   -0.0042   -0.0263    0.0055
    7 O1     4px        0.0000   -0.0009   -0.0001    0.0021    0.0001    0.0001   -0.0009   -0.0010   -0.0019   -0.0020
    8 O1     2py       -0.0022    0.0032    0.0003   -0.1176    0.0768    0.1408   -0.0783   -0.4035    0.3351   -0.1102
    9 O1     3py       -0.0012    0.0032    0.0002    0.0157   -0.0152   -0.0222    0.0052    0.0354   -0.0332   -0.0030
   10 O1     4py        0.0005   -0.0020   -0.0000    0.0010   -0.0038    0.0011    0.0012    0.0063   -0.0036    0.0005
   11 O1     2pz        0.0000    0.0000   -0.0000    0.0014   -0.0037   -0.0044   -0.3780    0.0920    0.0297   -0.7119
   12 O1     3pz       -0.0000    0.0000   -0.0000   -0.0001    0.0001    0.0003    0.0265   -0.0081   -0.0055   -0.0111
   13 O1     4pz        0.0000   -0.0000   -0.0000   -0.0000    0.0000   -0.0000    0.0049   -0.0016   -0.0007    0.0064
   14 O1     3d2-       0.0003   -0.0012   -0.0000    0.0143   -0.0134   -0.0126   -0.0041    0.0043   -0.0251   -0.0032
   15 O1     4d2-       0.0001   -0.0007   -0.0000    0.0013   -0.0016   -0.0008   -0.0004    0.0000   -0.0022   -0.0006
   16 O1     3d1-      -0.0000    0.0000   -0.0000   -0.0000   -0.0001    0.0002    0.0236   -0.0080   -0.0041    0.0144
   17 O1     4d1-      -0.0000   -0.0000   -0.0000   -0.0000   -0.0001    0.0000    0.0029   -0.0011   -0.0005    0.0026
   18 O1     3d0       -0.0004    0.0009    0.0000   -0.0111    0.0085    0.0075   -0.0010   -0.0125    0.0145   -0.0001
   19 O1     4d0       -0.0002    0.0005   -0.0000   -0.0007    0.0011    0.0005   -0.0001   -0.0010    0.0011   -0.0002
   20 O1     3d1+      -0.0000   -0.0001   -0.0000   -0.0003    0.0006   -0.0005    0.0114   -0.0037   -0.0022    0.0063
   21 O1     4d1+       0.0000    0.0000   -0.0000   -0.0000    0.0002   -0.0002    0.0016   -0.0006   -0.0004    0.0008
   22 O1     3d2+      -0.0005    0.0009    0.0000   -0.0146    0.0081    0.0055   -0.0077   -0.0294    0.0097   -0.0033
   23 O1     4d2+      -0.0003    0.0005    0.0000   -0.0019    0.0011    0.0005   -0.0009   -0.0033    0.0006   -0.0007
   24 O1     4f3-       0.0001   -0.0000    0.0000    0.0017   -0.0003    0.0008    0.0023    0.0059    0.0012    0.0010
   25 O1     4f2-       0.0000    0.0000    0.0000   -0.0001    0.0000    0.0001   -0.0045    0.0010    0.0010   -0.0027
   26 O1     4f1-       0.0001   -0.0002    0.0000    0.0038   -0.0032   -0.0015    0.0006    0.0037   -0.0036    0.0005
   27 O1     4f0       -0.0000   -0.0000   -0.0000   -0.0000   -0.0000   -0.0000    0.0047   -0.0017   -0.0009    0.0030
   28 O1     4f1+       0.0000   -0.0001   -0.0000    0.0017   -0.0017   -0.0011   -0.0011    0.0002   -0.0024   -0.0013
   29 O1     4f2+      -0.0000    0.0000    0.0000   -0.0001    0.0001    0.0002    0.0035   -0.0012   -0.0003    0.0018
   30 O1     4f3+       0.0000   -0.0003    0.0000    0.0049   -0.0047   -0.0026   -0.0002    0.0029   -0.0056   -0.0001
   31 O2     1s         0.9990   -0.0023   -0.0019   -0.0281    0.0000   -0.0153   -0.0041   -0.0143   -0.0016    0.0044
   32 O2     2s        -0.0065    0.0078    0.0079    0.5990    0.0120   -0.6695   -0.0559   -0.1914   -0.0174    0.0556
   33 O2     3s        -0.0049    0.0045    0.0046   -0.0600   -0.0001   -0.0253   -0.0085   -0.0305   -0.0034    0.0112
   34 O2     4s        -0.0009    0.0007    0.0007   -0.0120    0.0000   -0.0047   -0.0022   -0.0077   -0.0009    0.0027
   35 O2     2px       -0.0013    0.0024    0.0024    0.0884   -0.0006    0.1590    0.2195    0.6667    0.1185   -0.0932
   36 O2     3px       -0.0019    0.0015    0.0015   -0.0354   -0.0004   -0.0190   -0.0182   -0.0473   -0.0093   -0.0026
   37 O2     4px        0.0017   -0.0005   -0.0005   -0.0036   -0.0001    0.0014   -0.0041   -0.0107   -0.0021    0.0001
   38 O2     2py       -0.0001    0.0042   -0.0042    0.0026   -0.3011   -0.0074   -0.0616    0.1180   -0.5312    0.0173
   39 O2     3py       -0.0001    0.0027   -0.0027   -0.0005    0.0593    0.0006    0.0066   -0.0114    0.0454    0.0029
   40 O2     4py        0.0001   -0.0008    0.0008   -0.0001   -0.0010    0.0001    0.0012   -0.0021    0.0095    0.0005
   41 O2     2pz        0.0000   -0.0000    0.0000    0.0015    0.0017    0.0008   -0.6555    0.2366    0.1492    0.1029
   42 O2     3pz        0.0000   -0.0000    0.0000   -0.0000   -0.0001   -0.0002    0.0445   -0.0139   -0.0086    0.0035
   43 O2     4pz       -0.0000    0.0000   -0.0000    0.0000   -0.0000    0.0000    0.0120   -0.0039   -0.0025   -0.0009
   44 O2     3d2-      -0.0000    0.0009   -0.0010    0.0003   -0.0364   -0.0002   -0.0039    0.0106   -0.0358    0.0106
   45 O2     4d2-      -0.0000    0.0004   -0.0005   -0.0000   -0.0037    0.0001   -0.0004    0.0016   -0.0042    0.0020
   46 O2     3d1-      -0.0000   -0.0000   -0.0000   -0.0002   -0.0001    0.0004   -0.0011    0.0003   -0.0016   -0.0424
   47 O2     4d1-       0.0000   -0.0000   -0.0000   -0.0001   -0.0000    0.0002   -0.0000    0.0002   -0.0003   -0.0081
   48 O2     3d0        0.0008   -0.0008   -0.0008   -0.0162    0.0004   -0.0051   -0.0054   -0.0172   -0.0023    0.0037
   49 O2     4d0        0.0005   -0.0004   -0.0004    0.0001    0.0001   -0.0002   -0.0004   -0.0013   -0.0001    0.0004
   50 O2     3d1+       0.0000    0.0000    0.0000    0.0003   -0.0003   -0.0003   -0.0237    0.0079    0.0047    0.0017
   51 O2     4d1+      -0.0000    0.0000    0.0000    0.0001   -0.0001   -0.0001   -0.0026    0.0009    0.0005    0.0003
   52 O2     3d2+       0.0005   -0.0007   -0.0007   -0.0142    0.0003    0.0016    0.0077    0.0161    0.0046    0.0054
   53 O2     4d2+       0.0003   -0.0003   -0.0003   -0.0013    0.0001    0.0008    0.0012    0.0025    0.0008    0.0009
   54 O2     4f3-       0.0000   -0.0000    0.0000    0.0000    0.0018    0.0001    0.0005   -0.0003    0.0027    0.0023
   55 O2     4f2-       0.0000    0.0000   -0.0000    0.0001    0.0000   -0.0000   -0.0002   -0.0001   -0.0002   -0.0066
   56 O2     4f1-       0.0000   -0.0001    0.0001   -0.0002    0.0066    0.0002    0.0008   -0.0015    0.0061   -0.0003
   57 O2     4f0       -0.0000   -0.0000   -0.0000   -0.0000    0.0000    0.0000    0.0076   -0.0025   -0.0015   -0.0004
   58 O2     4f1+       0.0001   -0.0001   -0.0001   -0.0036    0.0000   -0.0006   -0.0015   -0.0041   -0.0007    0.0002
   59 O2     4f2+      -0.0000    0.0000   -0.0000    0.0000    0.0000   -0.0001    0.0053   -0.0018   -0.0011   -0.0003
   60 O2     4f3+       0.0002   -0.0002   -0.0002   -0.0091   -0.0000   -0.0005   -0.0019   -0.0057   -0.0009    0.0010
   61 O3     1s         0.0036   -0.0024    0.9989   -0.0131   -0.0111    0.0124   -0.0055   -0.0035   -0.0246    0.0016
   62 O3     2s         0.0034   -0.0003   -0.0075    0.3491    0.5860    0.6165   -0.1051   -0.0690   -0.4271    0.0070
   63 O3     3s         0.0019   -0.0001   -0.0053   -0.0109   -0.0188    0.0208   -0.0118   -0.0067   -0.0543    0.0055
   64 O3     4s         0.0003    0.0000   -0.0010   -0.0008   -0.0040    0.0032   -0.0026   -0.0017   -0.0117    0.0016
   65 O3     2px       -0.0007   -0.0001    0.0017   -0.0408   -0.0369    0.0871    0.0333    0.1266   -0.1337   -0.0402
   66 O3     3px       -0.0006   -0.0002    0.0016    0.0118    0.0072   -0.0162   -0.0004   -0.0188    0.0233   -0.0010
   67 O3     4px        0.0000   -0.0001   -0.0009    0.0022   -0.0002    0.0002   -0.0004   -0.0010    0.0011    0.0006
   68 O3     2py        0.0021   -0.0003   -0.0032    0.1125    0.0803   -0.1303    0.1574    0.2013    0.4471   -0.1093
   69 O3     3py        0.0011   -0.0002   -0.0032   -0.0149   -0.0153    0.0209   -0.0141   -0.0182   -0.0422    0.0029
   70 O3     4py       -0.0005    0.0000    0.0020   -0.0009   -0.0038   -0.0012   -0.0024   -0.0036   -0.0053    0.0013
   71 O3     2pz       -0.0000   -0.0000   -0.0000   -0.0029    0.0005    0.0036   -0.3066    0.1008    0.0817    0.6292
   72 O3     3pz       -0.0000   -0.0000   -0.0000    0.0001    0.0002   -0.0002    0.0229   -0.0085   -0.0041    0.0080
   73 O3     4pz        0.0000    0.0000    0.0000    0.0000    0.0000    0.0000    0.0046   -0.0016   -0.0014   -0.0071
   74 O3     3d2-      -0.0003    0.0000    0.0013   -0.0139   -0.0132    0.0122   -0.0022    0.0062   -0.0245    0.0003
   75 O3     4d2-      -0.0001   -0.0000    0.0007   -0.0013   -0.0016    0.0008   -0.0001    0.0006   -0.0020   -0.0003
   76 O3     3d1-      -0.0000   -0.0000   -0.0000   -0.0002   -0.0001    0.0000   -0.0230    0.0079    0.0056    0.0188
   77 O3     4d1-      -0.0000   -0.0000   -0.0000   -0.0000   -0.0000    0.0000   -0.0031    0.0010    0.0008    0.0035
   78 O3     3d0       -0.0003    0.0000    0.0009   -0.0108   -0.0091    0.0063   -0.0048   -0.0049   -0.0175    0.0018
   79 O3     4d0       -0.0002   -0.0000    0.0005   -0.0006   -0.0012    0.0003   -0.0004   -0.0005   -0.0014    0.0001
   80 O3     3d1+      -0.0000    0.0000    0.0000    0.0000    0.0001    0.0003    0.0111   -0.0036   -0.0027   -0.0083
   81 O3     4d1+       0.0000    0.0000   -0.0000   -0.0000    0.0000    0.0001    0.0017   -0.0005   -0.0004   -0.0011
   82 O3     3d2+      -0.0005    0.0000    0.0010   -0.0141   -0.0082    0.0055   -0.0108   -0.0211   -0.0197    0.0055
   83 O3     4d2+      -0.0003    0.0000    0.0005   -0.0018   -0.0012    0.0006   -0.0011   -0.0023   -0.0019    0.0007
   84 O3     4f3-      -0.0001   -0.0000    0.0000   -0.0018   -0.0004   -0.0007   -0.0022   -0.0059   -0.0013    0.0012
   85 O3     4f2-       0.0000    0.0000    0.0000   -0.0000   -0.0000    0.0001    0.0043   -0.0015   -0.0012   -0.0033
   86 O3     4f1-      -0.0001   -0.0000    0.0002   -0.0035   -0.0031    0.0012   -0.0014   -0.0016   -0.0042    0.0007
   87 O3     4f0        0.0000    0.0000    0.0000   -0.0000   -0.0000    0.0000    0.0041   -0.0014   -0.0011   -0.0030
   88 O3     4f1+       0.0000   -0.0000   -0.0001    0.0016    0.0017   -0.0009    0.0002   -0.0007    0.0020   -0.0002
   89 O3     4f2+       0.0000    0.0000    0.0000    0.0000    0.0000   -0.0000    0.0035   -0.0013   -0.0009   -0.0024
   90 O3     4f3+       0.0000    0.0000   -0.0003    0.0049    0.0049   -0.0026    0.0012    0.0002    0.0065   -0.0006
 
 
      Orbital               11        12        13        14        15        16        17        18        19        20
      Energy            0.0000    0.0000    0.0000    0.1754    0.1871    0.2372    0.2655    0.3503    0.3709    0.3778
      Occ. No.          1.3115    1.7286    0.9599    0.0000    0.0000    0.0000    0.0000    0.0000    0.0000    0.0000
 
    1 O1     1s        -0.0022   -0.0004    0.0000   -0.2051   -0.1237   -0.0008   -0.0045   -0.0172    0.0750   -0.0011
    2 O1     2s        -0.0029    0.0437    0.0027   -1.5072   -0.9257   -0.0065   -0.1172   -0.0376    0.4150   -0.0066
    3 O1     3s        -0.0118   -0.0053   -0.0004   -0.8761   -0.5066   -0.0026    0.0462   -0.0269    0.5967   -0.0065
    4 O1     4s        -0.0038   -0.0020   -0.0001   -0.1964   -0.1042   -0.0005    0.0204   -0.0007    0.1678   -0.0015
    5 O1     2px       -0.8109    0.3370    0.0553    0.4395    0.1961    0.0034    0.1399   -0.2329   -0.0020    0.0004
    6 O1     3px       -0.0069    0.0009   -0.0027    0.4348    0.3121   -0.0020   -0.2914   -0.7929    0.1888    0.0004
    7 O1     4px        0.0084   -0.0038   -0.0019    0.0503    0.0815   -0.0026   -0.1568   -0.3145    0.1144   -0.0018
    8 O1     2py        0.1970   -0.2902   -0.0303    0.5815    0.8129    0.0059    0.4313   -0.2390   -0.0565    0.0035
    9 O1     3py        0.0097   -0.0042    0.0009    0.7546    0.6674    0.0073    0.3735   -0.1462   -0.7209    0.0137
   10 O1     4py       -0.0007    0.0029    0.0006    0.1194    0.0736    0.0026    0.1305   -0.0254   -0.1678    0.0038
   11 O1     2pz       -0.1712    0.1041    0.6009   -0.0005    0.0037    0.0622    0.0019   -0.0003    0.0046   -0.1935
   12 O1     3pz        0.0029    0.0003    0.0416    0.0031    0.0005   -0.3971    0.0097    0.0015   -0.0062   -0.9295
   13 O1     4pz        0.0031   -0.0017    0.0025    0.0011    0.0003   -0.2075    0.0039   -0.0001   -0.0024   -0.3668
   14 O1     3d2-       0.0147   -0.0056   -0.0016   -0.0799   -0.0434   -0.0005    0.0053    0.0009    0.0395   -0.0009
   15 O1     4d2-       0.0021   -0.0015   -0.0003   -0.0515   -0.0295   -0.0003    0.0016    0.0147    0.0236   -0.0007
   16 O1     3d1-       0.0059   -0.0035    0.0091   -0.0002    0.0001   -0.0082    0.0002    0.0000   -0.0004    0.0045
   17 O1     4d1-       0.0011   -0.0007    0.0017   -0.0002    0.0000   -0.0009    0.0000   -0.0001   -0.0003    0.0107
   18 O1     3d0       -0.0034   -0.0019    0.0002    0.0548    0.0421    0.0001   -0.0125   -0.0076   -0.0486    0.0007
   19 O1     4d0        0.0000   -0.0003    0.0001    0.0353    0.0283    0.0001   -0.0042   -0.0113   -0.0272    0.0004
   20 O1     3d1+       0.0022   -0.0017    0.0073    0.0002    0.0001   -0.0031    0.0002    0.0001    0.0008    0.0156
   21 O1     4d1+       0.0003   -0.0002    0.0018    0.0003    0.0000    0.0007    0.0000    0.0001    0.0007    0.0129
   22 O1     3d2+       0.0040   -0.0134   -0.0014    0.0539    0.0480   -0.0004   -0.0303    0.0033   -0.1090    0.0015
   23 O1     4d2+       0.0014   -0.0022   -0.0002    0.0325    0.0352   -0.0001   -0.0080    0.0003   -0.0642    0.0009
   24 O1     4f3-      -0.0017    0.0032   -0.0001   -0.0029    0.0002   -0.0000   -0.0031   -0.0045    0.0114   -0.0002
   25 O1     4f2-       0.0002    0.0002   -0.0014   -0.0000    0.0002   -0.0026    0.0003   -0.0002    0.0003   -0.0061
   26 O1     4f1-       0.0004    0.0011    0.0001   -0.0061   -0.0050   -0.0001   -0.0010    0.0055    0.0075   -0.0002
   27 O1     4f0        0.0026   -0.0012    0.0003   -0.0001    0.0000    0.0017   -0.0001   -0.0001    0.0001    0.0056
   28 O1     4f1+       0.0022   -0.0008   -0.0003   -0.0023   -0.0029    0.0001   -0.0000    0.0047    0.0024    0.0001
   29 O1     4f2+      -0.0009    0.0003    0.0006    0.0000    0.0001    0.0018    0.0002    0.0000    0.0001    0.0031
   30 O1     4f3+       0.0015    0.0007    0.0004   -0.0092   -0.0046   -0.0001   -0.0012    0.0089    0.0083   -0.0002
   31 O2     1s        -0.0205   -0.0073   -0.0004    0.0151    0.3162    0.0001    0.0671    0.0033   -0.1947    0.0035
   32 O2     2s        -0.2370   -0.0897   -0.0044    0.1099    2.3104    0.0028    0.5967    0.0206   -1.1113    0.0202
   33 O2     3s        -0.0546   -0.0195   -0.0009    0.0618    1.2694   -0.0015    0.1687    0.0169   -0.7836    0.0157
   34 O2     4s        -0.0131   -0.0046   -0.0002    0.0135    0.2710   -0.0004    0.0341    0.0039   -0.1343    0.0032
   35 O2     2px        0.3991    0.1354    0.0067    0.0358    0.7431    0.0056    0.4344    0.0068   -0.1903    0.0030
   36 O2     3px        0.0196    0.0090    0.0007    0.0309    0.7514   -0.0047   -0.0953    0.0183   -0.8225    0.0061
   37 O2     4px        0.0015    0.0007    0.0000    0.0040    0.1226   -0.0023   -0.1174    0.0046   -0.1346   -0.0002
   38 O2     2py       -0.0052   -0.0285   -0.0055    1.3822   -0.0619    0.0039   -0.0058   -0.1382    0.0184    0.0001
   39 O2     3py       -0.0049    0.0206    0.0024    1.3699   -0.0711    0.0084   -0.0097    0.3877    0.0090   -0.0013
   40 O2     4py       -0.0007    0.0031    0.0002    0.1367   -0.0087    0.0010   -0.0006    0.2042    0.0036   -0.0003
   41 O2     2pz       -0.0435    0.0250   -0.7696    0.0008   -0.0040    0.0992   -0.0046   -0.0002   -0.0099    0.0101
   42 O2     3pz       -0.0022    0.0038   -0.0793   -0.0004   -0.0011   -0.2669    0.0025   -0.0017   -0.0078    0.0241
   43 O2     4pz        0.0002    0.0001   -0.0021    0.0002   -0.0002   -0.1738    0.0025   -0.0003   -0.0016    0.0085
   44 O2     3d2-      -0.0109    0.0309    0.0016    0.1396   -0.0075    0.0017   -0.0002    0.0793   -0.0015   -0.0001
   45 O2     4d2-      -0.0020    0.0061    0.0004    0.0849   -0.0046    0.0009   -0.0002    0.0602   -0.0005   -0.0000
   46 O2     3d1-      -0.0103    0.0081   -0.0052   -0.0000   -0.0001    0.0003    0.0000    0.0001    0.0009    0.0931
   47 O2     4d1-      -0.0019    0.0015   -0.0013    0.0000   -0.0001    0.0003   -0.0001    0.0001    0.0005    0.0578
   48 O2     3d0       -0.0151   -0.0059   -0.0003   -0.0032   -0.0693    0.0011    0.0414   -0.0023    0.1627   -0.0022
   49 O2     4d0       -0.0016   -0.0007   -0.0001   -0.0020   -0.0452    0.0006    0.0203   -0.0013    0.0820   -0.0010
   50 O2     3d1+      -0.0012    0.0005    0.0006    0.0001    0.0001    0.0255   -0.0002    0.0004    0.0002   -0.0004
   51 O2     4d1+      -0.0002    0.0001    0.0007    0.0000    0.0000    0.0113   -0.0001    0.0002    0.0001    0.0000
   52 O2     3d2+      -0.0343   -0.0129    0.0005   -0.0026   -0.0588    0.0016    0.0806   -0.0010    0.0706   -0.0008
   53 O2     4d2+      -0.0059   -0.0022   -0.0000   -0.0015   -0.0337    0.0007    0.0352   -0.0004    0.0128   -0.0002
   54 O2     4f3-      -0.0028    0.0089    0.0006   -0.0072    0.0003    0.0000    0.0002    0.0024   -0.0000   -0.0000
   55 O2     4f2-      -0.0016    0.0013   -0.0005   -0.0000   -0.0000    0.0001    0.0000    0.0000    0.0001    0.0062
   56 O2     4f1-       0.0000    0.0004    0.0003   -0.0093    0.0006   -0.0000    0.0000   -0.0102   -0.0001    0.0000
   57 O2     4f0        0.0004    0.0001    0.0005    0.0000    0.0000    0.0016    0.0000    0.0000    0.0001   -0.0002
   58 O2     4f1+      -0.0006    0.0000   -0.0002   -0.0002   -0.0055    0.0000    0.0026   -0.0002    0.0097   -0.0001
   59 O2     4f2+       0.0002   -0.0001    0.0012    0.0000    0.0000    0.0014   -0.0000   -0.0000    0.0001   -0.0002
   60 O2     4f3+      -0.0046   -0.0016   -0.0001   -0.0005   -0.0112    0.0002    0.0059   -0.0004    0.0163   -0.0002
   61 O3     1s        -0.0031   -0.0011   -0.0002    0.1927   -0.1430    0.0014   -0.0067    0.0134    0.0763   -0.0012
   62 O3     2s         0.0106   -0.0337   -0.0056    1.4144   -1.0650    0.0080   -0.1325    0.0143    0.4251   -0.0071
   63 O3     3s        -0.0146   -0.0041   -0.0012    0.8303   -0.5902    0.0078    0.0353    0.0116    0.5927   -0.0071
   64 O3     4s        -0.0047   -0.0011   -0.0003    0.1881   -0.1230    0.0019    0.0180   -0.0021    0.1661   -0.0016
[...]

>>> COPY /tmp/ozone_126.25/GMJ_IVECC2_E_P_2_.csv /home/grierjones/DDCASPT2/ozone/multistate/ANO-RCC-VTZP/ozone_126.25/GMJ_IVECC2_E_P_2_.csv

>>> COPY /tmp/ozone_126.25/GMJ_e2_E_P_2_.csv /home/grierjones/DDCASPT2/ozone/multistate/ANO-RCC-VTZP/ozone_126.25/GMJ_e2_E_P_2_.csv

>>> END FOREACH

>>> EXPORT j = M

>>> IF (-FILE GMJ_e2_${i}_${j}_${k}_.csv)

>>> COPY /tmp/ozone_126.25/GMJ_RHS_E_M_2_.csv /home/grierjones/DDCASPT2/ozone/multistate/ANO-RCC-VTZP/ozone_126.25/GMJ_RHS_E_M_2_.csv

>>> COPY /tmp/ozone_126.25/GMJ_IVECW_E_M_2_.csv /home/grierjones/DDCASPT2/ozone/multistate/ANO-RCC-VTZP/ozone_126.25/GMJ_IVECW_E_M_2_.csv

>>> COPY /tmp/ozone_126.25/GMJ_IVECX_E_M_2_.csv /home/grierjones/DDCASPT2/ozone/multistate/ANO-RCC-VTZP/ozone_126.25/GMJ_IVECX_E_M_2_.csv

>>> COPY /tmp/ozone_126.25/GMJ_IVECC2_E_M_2_.csv /home/grierjones/DDCASPT2/ozone/multistate/ANO-RCC-VTZP/ozone_126.25/GMJ_IVECC2_E_M_2_.csv

>>> COPY /tmp/ozone_126.25/GMJ_e2_E_M_2_.csv /home/grierjones/DDCASPT2/ozone/multistate/ANO-RCC-VTZP/ozone_126.25/GMJ_e2_E_M_2_.csv

>>> END FOREACH

>>> END FOREACH

>>> EXPORT i = F

>>> EXPORT j = P

>>> IF (-FILE GMJ_e2_${i}_${j}_${k}_.csv)

>>> COPY /tmp/ozone_126.25/GMJ_RHS_F_P_2_.csv /home/grierjones/DDCASPT2/ozone/multistate/ANO-RCC-VTZP/ozone_126.25/GMJ_RHS_F_P_2_.csv

>>> COPY /tmp/ozone_126.25/GMJ_IVECW_F_P_2_.csv /home/grierjones/DDCASPT2/ozone/multistate/ANO-RCC-VTZP/ozone_126.25/GMJ_IVECW_F_P_2_.csv

>>> COPY /tmp/ozone_126.25/GMJ_IVECX_F_P_2_.csv /home/grierjones/DDCASPT2/ozone/multistate/ANO-RCC-VTZP/ozone_126.25/GMJ_IVECX_F_P_2_.csv

>>> COPY /tmp/ozone_126.25/GMJ_IVECC2_F_P_2_.csv /home/grierjones/DDCASPT2/ozone/multistate/ANO-RCC-VTZP/ozone_126.25/GMJ_IVECC2_F_P_2_.csv

>>> COPY /tmp/ozone_126.25/GMJ_e2_F_P_2_.csv /home/grierjones/DDCASPT2/ozone/multistate/ANO-RCC-VTZP/ozone_126.25/GMJ_e2_F_P_2_.csv

>>> END FOREACH

>>> EXPORT j = M

>>> IF (-FILE GMJ_e2_${i}_${j}_${k}_.csv)

>>> COPY /tmp/ozone_126.25/GMJ_RHS_F_M_2_.csv /home/grierjones/DDCASPT2/ozone/multistate/ANO-RCC-VTZP/ozone_126.25/GMJ_RHS_F_M_2_.csv

>>> COPY /tmp/ozone_126.25/GMJ_IVECW_F_M_2_.csv /home/grierjones/DDCASPT2/ozone/multistate/ANO-RCC-VTZP/ozone_126.25/GMJ_IVECW_F_M_2_.csv

>>> COPY /tmp/ozone_126.25/GMJ_IVECX_F_M_2_.csv /home/grierjones/DDCASPT2/ozone/multistate/ANO-RCC-VTZP/ozone_126.25/GMJ_IVECX_F_M_2_.csv

>>> COPY /tmp/ozone_126.25/GMJ_IVECC2_F_M_2_.csv /home/grierjones/DDCASPT2/ozone/multistate/ANO-RCC-VTZP/ozone_126.25/GMJ_IVECC2_F_M_2_.csv

>>> COPY /tmp/ozone_126.25/GMJ_e2_F_M_2_.csv /home/grierjones/DDCASPT2/ozone/multistate/ANO-RCC-VTZP/ozone_126.25/GMJ_e2_F_M_2_.csv

>>> END FOREACH

>>> END FOREACH

>>> EXPORT i = G

>>> EXPORT j = P

>>> IF (-FILE GMJ_e2_${i}_${j}_${k}_.csv)

>>> COPY /tmp/ozone_126.25/GMJ_RHS_G_P_2_.csv /home/grierjones/DDCASPT2/ozone/multistate/ANO-RCC-VTZP/ozone_126.25/GMJ_RHS_G_P_2_.csv

>>> COPY /tmp/ozone_126.25/GMJ_IVECW_G_P_2_.csv /home/grierjones/DDCASPT2/ozone/multistate/ANO-RCC-VTZP/ozone_126.25/GMJ_IVECW_G_P_2_.csv

>>> COPY /tmp/ozone_126.25/GMJ_IVECX_G_P_2_.csv /home/grierjones/DDCASPT2/ozone/multistate/ANO-RCC-VTZP/ozone_126.25/GMJ_IVECX_G_P_2_.csv

>>> COPY /tmp/ozone_126.25/GMJ_IVECC2_G_P_2_.csv /home/grierjones/DDCASPT2/ozone/multistate/ANO-RCC-VTZP/ozone_126.25/GMJ_IVECC2_G_P_2_.csv

>>> COPY /tmp/ozone_126.25/GMJ_e2_G_P_2_.csv /home/grierjones/DDCASPT2/ozone/multistate/ANO-RCC-VTZP/ozone_126.25/GMJ_e2_G_P_2_.csv

>>> END FOREACH

>>> EXPORT j = M

>>> IF (-FILE GMJ_e2_${i}_${j}_${k}_.csv)

>>> COPY /tmp/ozone_126.25/GMJ_RHS_G_M_2_.csv /home/grierjones/DDCASPT2/ozone/multistate/ANO-RCC-VTZP/ozone_126.25/GMJ_RHS_G_M_2_.csv

>>> COPY /tmp/ozone_126.25/GMJ_IVECW_G_M_2_.csv /home/grierjones/DDCASPT2/ozone/multistate/ANO-RCC-VTZP/ozone_126.25/GMJ_IVECW_G_M_2_.csv

>>> COPY /tmp/ozone_126.25/GMJ_IVECX_G_M_2_.csv /home/grierjones/DDCASPT2/ozone/multistate/ANO-RCC-VTZP/ozone_126.25/GMJ_IVECX_G_M_2_.csv

>>> COPY /tmp/ozone_126.25/GMJ_IVECC2_G_M_2_.csv /home/grierjones/DDCASPT2/ozone/multistate/ANO-RCC-VTZP/ozone_126.25/GMJ_IVECC2_G_M_2_.csv

>>> COPY /tmp/ozone_126.25/GMJ_e2_G_M_2_.csv /home/grierjones/DDCASPT2/ozone/multistate/ANO-RCC-VTZP/ozone_126.25/GMJ_e2_G_M_2_.csv

>>> END FOREACH

>>> END FOREACH

>>> EXPORT i = H

>>> EXPORT j = P

>>> IF (-FILE GMJ_e2_${i}_${j}_${k}_.csv)

>>> COPY /tmp/ozone_126.25/GMJ_RHS_H_P_2_.csv /home/grierjones/DDCASPT2/ozone/multistate/ANO-RCC-VTZP/ozone_126.25/GMJ_RHS_H_P_2_.csv

>>> COPY /tmp/ozone_126.25/GMJ_IVECW_H_P_2_.csv /home/grierjones/DDCASPT2/ozone/multistate/ANO-RCC-VTZP/ozone_126.25/GMJ_IVECW_H_P_2_.csv

>>> COPY /tmp/ozone_126.25/GMJ_IVECX_H_P_2_.csv /home/grierjones/DDCASPT2/ozone/multistate/ANO-RCC-VTZP/ozone_126.25/GMJ_IVECX_H_P_2_.csv

>>> COPY /tmp/ozone_126.25/GMJ_IVECC2_H_P_2_.csv /home/grierjones/DDCASPT2/ozone/multistate/ANO-RCC-VTZP/ozone_126.25/GMJ_IVECC2_H_P_2_.csv

>>> COPY /tmp/ozone_126.25/GMJ_e2_H_P_2_.csv /home/grierjones/DDCASPT2/ozone/multistate/ANO-RCC-VTZP/ozone_126.25/GMJ_e2_H_P_2_.csv

>>> END FOREACH

>>> EXPORT j = M

>>> IF (-FILE GMJ_e2_${i}_${j}_${k}_.csv)

>>> COPY /tmp/ozone_126.25/GMJ_RHS_H_M_2_.csv /home/grierjones/DDCASPT2/ozone/multistate/ANO-RCC-VTZP/ozone_126.25/GMJ_RHS_H_M_2_.csv

>>> COPY /tmp/ozone_126.25/GMJ_IVECW_H_M_2_.csv /home/grierjones/DDCASPT2/ozone/multistate/ANO-RCC-VTZP/ozone_126.25/GMJ_IVECW_H_M_2_.csv

>>> COPY /tmp/ozone_126.25/GMJ_IVECX_H_M_2_.csv /home/grierjones/DDCASPT2/ozone/multistate/ANO-RCC-VTZP/ozone_126.25/GMJ_IVECX_H_M_2_.csv

>>> COPY /tmp/ozone_126.25/GMJ_IVECC2_H_M_2_.csv /home/grierjones/DDCASPT2/ozone/multistate/ANO-RCC-VTZP/ozone_126.25/GMJ_IVECC2_H_M_2_.csv

>>> COPY /tmp/ozone_126.25/GMJ_e2_H_M_2_.csv /home/grierjones/DDCASPT2/ozone/multistate/ANO-RCC-VTZP/ozone_126.25/GMJ_e2_H_M_2_.csv

>>> END FOREACH

>>> END FOREACH

>>> END FOREACH

>>> EXPORT k = 3

>>> EXPORT i = B

>>> EXPORT j = P

>>> IF (-FILE GMJ_e2_${i}_${j}_${k}_.csv)

>>> COPY /tmp/ozone_126.25/GMJ_RHS_B_P_3_.csv /home/grierjones/DDCASPT2/ozone/multistate/ANO-RCC-VTZP/ozone_126.25/GMJ_RHS_B_P_3_.csv

>>> COPY /tmp/ozone_126.25/GMJ_IVECW_B_P_3_.csv /home/grierjones/DDCASPT2/ozone/multistate/ANO-RCC-VTZP/ozone_126.25/GMJ_IVECW_B_P_3_.csv

>>> COPY /tmp/ozone_126.25/GMJ_IVECX_B_P_3_.csv /home/grierjones/DDCASPT2/ozone/multistate/ANO-RCC-VTZP/ozone_126.25/GMJ_IVECX_B_P_3_.csv

>>> COPY /tmp/ozone_126.25/GMJ_IVECC2_B_P_3_.csv /home/grierjones/DDCASPT2/ozone/multistate/ANO-RCC-VTZP/ozone_126.25/GMJ_IVECC2_B_P_3_.csv

>>> COPY /tmp/ozone_126.25/GMJ_e2_B_P_3_.csv /home/grierjones/DDCASPT2/ozone/multistate/ANO-RCC-VTZP/ozone_126.25/GMJ_e2_B_P_3_.csv

>>> END FOREACH

>>> EXPORT j = M

>>> IF (-FILE GMJ_e2_${i}_${j}_${k}_.csv)
(Skipped)

>>> END FOREACH

>>> END FOREACH

>>> EXPORT i = E

>>> EXPORT j = P

>>> IF (-FILE GMJ_e2_${i}_${j}_${k}_.csv)

>>> COPY /tmp/ozone_126.25/GMJ_RHS_E_P_3_.csv /home/grierjones/DDCASPT2/ozone/multistate/ANO-RCC-VTZP/ozone_126.25/GMJ_RHS_E_P_3_.csv

>>> COPY /tmp/ozone_126.25/GMJ_IVECW_E_P_3_.csv /home/grierjones/DDCASPT2/ozone/multistate/ANO-RCC-VTZP/ozone_126.25/GMJ_IVECW_E_P_3_.csv

>>> COPY /tmp/ozone_126.25/GMJ_IVECX_E_P_3_.csv /home/grierjones/DDCASPT2/ozone/multistate/ANO-RCC-VTZP/ozone_126.25/GMJ_IVECX_E_P_3_.csv

>>> COPY /tmp/ozone_126.25/GMJ_IVECC2_E_P_3_.csv /home/grierjones/DDCASPT2/ozone/multistate/ANO-RCC-VTZP/ozone_126.25/GMJ_IVECC2_E_P_3_.csv

>>> COPY /tmp/ozone_126.25/GMJ_e2_E_P_3_.csv /home/grierjones/DDCASPT2/ozone/multistate/ANO-RCC-VTZP/ozone_126.25/GMJ_e2_E_P_3_.csv

>>> END FOREACH

>>> EXPORT j = M

>>> IF (-FILE GMJ_e2_${i}_${j}_${k}_.csv)

>>> COPY /tmp/ozone_126.25/GMJ_RHS_E_M_3_.csv /home/grierjones/DDCASPT2/ozone/multistate/ANO-RCC-VTZP/ozone_126.25/GMJ_RHS_E_M_3_.csv

>>> COPY /tmp/ozone_126.25/GMJ_IVECW_E_M_3_.csv /home/grierjones/DDCASPT2/ozone/multistate/ANO-RCC-VTZP/ozone_126.25/GMJ_IVECW_E_M_3_.csv

>>> COPY /tmp/ozone_126.25/GMJ_IVECX_E_M_3_.csv /home/grierjones/DDCASPT2/ozone/multistate/ANO-RCC-VTZP/ozone_126.25/GMJ_IVECX_E_M_3_.csv

>>> COPY /tmp/ozone_126.25/GMJ_IVECC2_E_M_3_.csv /home/grierjones/DDCASPT2/ozone/multistate/ANO-RCC-VTZP/ozone_126.25/GMJ_IVECC2_E_M_3_.csv

>>> COPY /tmp/ozone_126.25/GMJ_e2_E_M_3_.csv /home/grierjones/DDCASPT2/ozone/multistate/ANO-RCC-VTZP/ozone_126.25/GMJ_e2_E_M_3_.csv

>>> END FOREACH

>>> END FOREACH

>>> EXPORT i = F

>>> EXPORT j = P

>>> IF (-FILE GMJ_e2_${i}_${j}_${k}_.csv)

>>> COPY /tmp/ozone_126.25/GMJ_RHS_F_P_3_.csv /home/grierjones/DDCASPT2/ozone/multistate/ANO-RCC-VTZP/ozone_126.25/GMJ_RHS_F_P_3_.csv

>>> COPY /tmp/ozone_126.25/GMJ_IVECW_F_P_3_.csv /home/grierjones/DDCASPT2/ozone/multistate/ANO-RCC-VTZP/ozone_126.25/GMJ_IVECW_F_P_3_.csv

>>> COPY /tmp/ozone_126.25/GMJ_IVECX_F_P_3_.csv /home/grierjones/DDCASPT2/ozone/multistate/ANO-RCC-VTZP/ozone_126.25/GMJ_IVECX_F_P_3_.csv

>>> COPY /tmp/ozone_126.25/GMJ_IVECC2_F_P_3_.csv /home/grierjones/DDCASPT2/ozone/multistate/ANO-RCC-VTZP/ozone_126.25/GMJ_IVECC2_F_P_3_.csv

>>> COPY /tmp/ozone_126.25/GMJ_e2_F_P_3_.csv /home/grierjones/DDCASPT2/ozone/multistate/ANO-RCC-VTZP/ozone_126.25/GMJ_e2_F_P_3_.csv

>>> END FOREACH

>>> EXPORT j = M

>>> IF (-FILE GMJ_e2_${i}_${j}_${k}_.csv)

>>> COPY /tmp/ozone_126.25/GMJ_RHS_F_M_3_.csv /home/grierjones/DDCASPT2/ozone/multistate/ANO-RCC-VTZP/ozone_126.25/GMJ_RHS_F_M_3_.csv

>>> COPY /tmp/ozone_126.25/GMJ_IVECW_F_M_3_.csv /home/grierjones/DDCASPT2/ozone/multistate/ANO-RCC-VTZP/ozone_126.25/GMJ_IVECW_F_M_3_.csv

>>> COPY /tmp/ozone_126.25/GMJ_IVECX_F_M_3_.csv /home/grierjones/DDCASPT2/ozone/multistate/ANO-RCC-VTZP/ozone_126.25/GMJ_IVECX_F_M_3_.csv

>>> COPY /tmp/ozone_126.25/GMJ_IVECC2_F_M_3_.csv /home/grierjones/DDCASPT2/ozone/multistate/ANO-RCC-VTZP/ozone_126.25/GMJ_IVECC2_F_M_3_.csv

>>> COPY /tmp/ozone_126.25/GMJ_e2_F_M_3_.csv /home/grierjones/DDCASPT2/ozone/multistate/ANO-RCC-VTZP/ozone_126.25/GMJ_e2_F_M_3_.csv

>>> END FOREACH

>>> END FOREACH

>>> EXPORT i = G

>>> EXPORT j = P

>>> IF (-FILE GMJ_e2_${i}_${j}_${k}_.csv)

>>> COPY /tmp/ozone_126.25/GMJ_RHS_G_P_3_.csv /home/grierjones/DDCASPT2/ozone/multistate/ANO-RCC-VTZP/ozone_126.25/GMJ_RHS_G_P_3_.csv

>>> COPY /tmp/ozone_126.25/GMJ_IVECW_G_P_3_.csv /home/grierjones/DDCASPT2/ozone/multistate/ANO-RCC-VTZP/ozone_126.25/GMJ_IVECW_G_P_3_.csv

>>> COPY /tmp/ozone_126.25/GMJ_IVECX_G_P_3_.csv /home/grierjones/DDCASPT2/ozone/multistate/ANO-RCC-VTZP/ozone_126.25/GMJ_IVECX_G_P_3_.csv

>>> COPY /tmp/ozone_126.25/GMJ_IVECC2_G_P_3_.csv /home/grierjones/DDCASPT2/ozone/multistate/ANO-RCC-VTZP/ozone_126.25/GMJ_IVECC2_G_P_3_.csv

>>> COPY /tmp/ozone_126.25/GMJ_e2_G_P_3_.csv /home/grierjones/DDCASPT2/ozone/multistate/ANO-RCC-VTZP/ozone_126.25/GMJ_e2_G_P_3_.csv

>>> END FOREACH

>>> EXPORT j = M

>>> IF (-FILE GMJ_e2_${i}_${j}_${k}_.csv)

>>> COPY /tmp/ozone_126.25/GMJ_RHS_G_M_3_.csv /home/grierjones/DDCASPT2/ozone/multistate/ANO-RCC-VTZP/ozone_126.25/GMJ_RHS_G_M_3_.csv

>>> COPY /tmp/ozone_126.25/GMJ_IVECW_G_M_3_.csv /home/grierjones/DDCASPT2/ozone/multistate/ANO-RCC-VTZP/ozone_126.25/GMJ_IVECW_G_M_3_.csv

>>> COPY /tmp/ozone_126.25/GMJ_IVECX_G_M_3_.csv /home/grierjones/DDCASPT2/ozone/multistate/ANO-RCC-VTZP/ozone_126.25/GMJ_IVECX_G_M_3_.csv

>>> COPY /tmp/ozone_126.25/GMJ_IVECC2_G_M_3_.csv /home/grierjones/DDCASPT2/ozone/multistate/ANO-RCC-VTZP/ozone_126.25/GMJ_IVECC2_G_M_3_.csv

>>> COPY /tmp/ozone_126.25/GMJ_e2_G_M_3_.csv /home/grierjones/DDCASPT2/ozone/multistate/ANO-RCC-VTZP/ozone_126.25/GMJ_e2_G_M_3_.csv

>>> END FOREACH

>>> END FOREACH

>>> EXPORT i = H

>>> EXPORT j = P

>>> IF (-FILE GMJ_e2_${i}_${j}_${k}_.csv)

>>> COPY /tmp/ozone_126.25/GMJ_RHS_H_P_3_.csv /home/grierjones/DDCASPT2/ozone/multistate/ANO-RCC-VTZP/ozone_126.25/GMJ_RHS_H_P_3_.csv

>>> COPY /tmp/ozone_126.25/GMJ_IVECW_H_P_3_.csv /home/grierjones/DDCASPT2/ozone/multistate/ANO-RCC-VTZP/ozone_126.25/GMJ_IVECW_H_P_3_.csv

>>> COPY /tmp/ozone_126.25/GMJ_IVECX_H_P_3_.csv /home/grierjones/DDCASPT2/ozone/multistate/ANO-RCC-VTZP/ozone_126.25/GMJ_IVECX_H_P_3_.csv

>>> COPY /tmp/ozone_126.25/GMJ_IVECC2_H_P_3_.csv /home/grierjones/DDCASPT2/ozone/multistate/ANO-RCC-VTZP/ozone_126.25/GMJ_IVECC2_H_P_3_.csv

>>> COPY /tmp/ozone_126.25/GMJ_e2_H_P_3_.csv /home/grierjones/DDCASPT2/ozone/multistate/ANO-RCC-VTZP/ozone_126.25/GMJ_e2_H_P_3_.csv

>>> END FOREACH

>>> EXPORT j = M

>>> IF (-FILE GMJ_e2_${i}_${j}_${k}_.csv)

>>> COPY /tmp/ozone_126.25/GMJ_RHS_H_M_3_.csv /home/grierjones/DDCASPT2/ozone/multistate/ANO-RCC-VTZP/ozone_126.25/GMJ_RHS_H_M_3_.csv

>>> COPY /tmp/ozone_126.25/GMJ_IVECW_H_M_3_.csv /home/grierjones/DDCASPT2/ozone/multistate/ANO-RCC-VTZP/ozone_126.25/GMJ_IVECW_H_M_3_.csv

>>> COPY /tmp/ozone_126.25/GMJ_IVECX_H_M_3_.csv /home/grierjones/DDCASPT2/ozone/multistate/ANO-RCC-VTZP/ozone_126.25/GMJ_IVECX_H_M_3_.csv

>>> COPY /tmp/ozone_126.25/GMJ_IVECC2_H_M_3_.csv /home/grierjones/DDCASPT2/ozone/multistate/ANO-RCC-VTZP/ozone_126.25/GMJ_IVECC2_H_M_3_.csv

>>> COPY /tmp/ozone_126.25/GMJ_e2_H_M_3_.csv /home/grierjones/DDCASPT2/ozone/multistate/ANO-RCC-VTZP/ozone_126.25/GMJ_e2_H_M_3_.csv

>>> END FOREACH

>>> END FOREACH

>>> END FOREACH

>>> EXPORT j = 1

>>> EXPORT i = A

>>> IF (-FILE GMJ_e2_${i}_${j}_.csv)

>>> COPY /tmp/ozone_126.25/GMJ_RHS_A_1_.csv /home/grierjones/DDCASPT2/ozone/multistate/ANO-RCC-VTZP/ozone_126.25/GMJ_RHS_A_1_.csv

>>> COPY /tmp/ozone_126.25/GMJ_IVECW_A_1_.csv /home/grierjones/DDCASPT2/ozone/multistate/ANO-RCC-VTZP/ozone_126.25/GMJ_IVECW_A_1_.csv

>>> COPY /tmp/ozone_126.25/GMJ_IVECX_A_1_.csv /home/grierjones/DDCASPT2/ozone/multistate/ANO-RCC-VTZP/ozone_126.25/GMJ_IVECX_A_1_.csv

>>> COPY /tmp/ozone_126.25/GMJ_IVECC2_A_1_.csv /home/grierjones/DDCASPT2/ozone/multistate/ANO-RCC-VTZP/ozone_126.25/GMJ_IVECC2_A_1_.csv

>>> COPY /tmp/ozone_126.25/GMJ_e2_A_1_.csv /home/grierjones/DDCASPT2/ozone/multistate/ANO-RCC-VTZP/ozone_126.25/GMJ_e2_A_1_.csv

>>> END FOREACH

>>> EXPORT i = C

>>> IF (-FILE GMJ_e2_${i}_${j}_.csv)

>>> COPY /tmp/ozone_126.25/GMJ_RHS_C_1_.csv /home/grierjones/DDCASPT2/ozone/multistate/ANO-RCC-VTZP/ozone_126.25/GMJ_RHS_C_1_.csv

>>> COPY /tmp/ozone_126.25/GMJ_IVECW_C_1_.csv /home/grierjones/DDCASPT2/ozone/multistate/ANO-RCC-VTZP/ozone_126.25/GMJ_IVECW_C_1_.csv

>>> COPY /tmp/ozone_126.25/GMJ_IVECX_C_1_.csv /home/grierjones/DDCASPT2/ozone/multistate/ANO-RCC-VTZP/ozone_126.25/GMJ_IVECX_C_1_.csv

>>> COPY /tmp/ozone_126.25/GMJ_IVECC2_C_1_.csv /home/grierjones/DDCASPT2/ozone/multistate/ANO-RCC-VTZP/ozone_126.25/GMJ_IVECC2_C_1_.csv

>>> COPY /tmp/ozone_126.25/GMJ_e2_C_1_.csv /home/grierjones/DDCASPT2/ozone/multistate/ANO-RCC-VTZP/ozone_126.25/GMJ_e2_C_1_.csv

>>> END FOREACH

>>> EXPORT i = D

>>> IF (-FILE GMJ_e2_${i}_${j}_.csv)

>>> COPY /tmp/ozone_126.25/GMJ_RHS_D_1_.csv /home/grierjones/DDCASPT2/ozone/multistate/ANO-RCC-VTZP/ozone_126.25/GMJ_RHS_D_1_.csv

>>> COPY /tmp/ozone_126.25/GMJ_IVECW_D_1_.csv /home/grierjones/DDCASPT2/ozone/multistate/ANO-RCC-VTZP/ozone_126.25/GMJ_IVECW_D_1_.csv

>>> COPY /tmp/ozone_126.25/GMJ_IVECX_D_1_.csv /home/grierjones/DDCASPT2/ozone/multistate/ANO-RCC-VTZP/ozone_126.25/GMJ_IVECX_D_1_.csv

>>> COPY /tmp/ozone_126.25/GMJ_IVECC2_D_1_.csv /home/grierjones/DDCASPT2/ozone/multistate/ANO-RCC-VTZP/ozone_126.25/GMJ_IVECC2_D_1_.csv

>>> COPY /tmp/ozone_126.25/GMJ_e2_D_1_.csv /home/grierjones/DDCASPT2/ozone/multistate/ANO-RCC-VTZP/ozone_126.25/GMJ_e2_D_1_.csv

>>> END FOREACH

>>> END FOREACH

>>> EXPORT j = 2

>>> EXPORT i = A

>>> IF (-FILE GMJ_e2_${i}_${j}_.csv)

>>> COPY /tmp/ozone_126.25/GMJ_RHS_A_2_.csv /home/grierjones/DDCASPT2/ozone/multistate/ANO-RCC-VTZP/ozone_126.25/GMJ_RHS_A_2_.csv

>>> COPY /tmp/ozone_126.25/GMJ_IVECW_A_2_.csv /home/grierjones/DDCASPT2/ozone/multistate/ANO-RCC-VTZP/ozone_126.25/GMJ_IVECW_A_2_.csv

>>> COPY /tmp/ozone_126.25/GMJ_IVECX_A_2_.csv /home/grierjones/DDCASPT2/ozone/multistate/ANO-RCC-VTZP/ozone_126.25/GMJ_IVECX_A_2_.csv

>>> COPY /tmp/ozone_126.25/GMJ_IVECC2_A_2_.csv /home/grierjones/DDCASPT2/ozone/multistate/ANO-RCC-VTZP/ozone_126.25/GMJ_IVECC2_A_2_.csv

>>> COPY /tmp/ozone_126.25/GMJ_e2_A_2_.csv /home/grierjones/DDCASPT2/ozone/multistate/ANO-RCC-VTZP/ozone_126.25/GMJ_e2_A_2_.csv

>>> END FOREACH

>>> EXPORT i = C

>>> IF (-FILE GMJ_e2_${i}_${j}_.csv)

>>> COPY /tmp/ozone_126.25/GMJ_RHS_C_2_.csv /home/grierjones/DDCASPT2/ozone/multistate/ANO-RCC-VTZP/ozone_126.25/GMJ_RHS_C_2_.csv

>>> COPY /tmp/ozone_126.25/GMJ_IVECW_C_2_.csv /home/grierjones/DDCASPT2/ozone/multistate/ANO-RCC-VTZP/ozone_126.25/GMJ_IVECW_C_2_.csv

>>> COPY /tmp/ozone_126.25/GMJ_IVECX_C_2_.csv /home/grierjones/DDCASPT2/ozone/multistate/ANO-RCC-VTZP/ozone_126.25/GMJ_IVECX_C_2_.csv

>>> COPY /tmp/ozone_126.25/GMJ_IVECC2_C_2_.csv /home/grierjones/DDCASPT2/ozone/multistate/ANO-RCC-VTZP/ozone_126.25/GMJ_IVECC2_C_2_.csv

>>> COPY /tmp/ozone_126.25/GMJ_e2_C_2_.csv /home/grierjones/DDCASPT2/ozone/multistate/ANO-RCC-VTZP/ozone_126.25/GMJ_e2_C_2_.csv

>>> END FOREACH

>>> EXPORT i = D

>>> IF (-FILE GMJ_e2_${i}_${j}_.csv)

>>> COPY /tmp/ozone_126.25/GMJ_RHS_D_2_.csv /home/grierjones/DDCASPT2/ozone/multistate/ANO-RCC-VTZP/ozone_126.25/GMJ_RHS_D_2_.csv

>>> COPY /tmp/ozone_126.25/GMJ_IVECW_D_2_.csv /home/grierjones/DDCASPT2/ozone/multistate/ANO-RCC-VTZP/ozone_126.25/GMJ_IVECW_D_2_.csv

>>> COPY /tmp/ozone_126.25/GMJ_IVECX_D_2_.csv /home/grierjones/DDCASPT2/ozone/multistate/ANO-RCC-VTZP/ozone_126.25/GMJ_IVECX_D_2_.csv

>>> COPY /tmp/ozone_126.25/GMJ_IVECC2_D_2_.csv /home/grierjones/DDCASPT2/ozone/multistate/ANO-RCC-VTZP/ozone_126.25/GMJ_IVECC2_D_2_.csv

>>> COPY /tmp/ozone_126.25/GMJ_e2_D_2_.csv /home/grierjones/DDCASPT2/ozone/multistate/ANO-RCC-VTZP/ozone_126.25/GMJ_e2_D_2_.csv

>>> END FOREACH

>>> END FOREACH

>>> EXPORT j = 3

>>> EXPORT i = A

>>> IF (-FILE GMJ_e2_${i}_${j}_.csv)

>>> COPY /tmp/ozone_126.25/GMJ_RHS_A_3_.csv /home/grierjones/DDCASPT2/ozone/multistate/ANO-RCC-VTZP/ozone_126.25/GMJ_RHS_A_3_.csv

>>> COPY /tmp/ozone_126.25/GMJ_IVECW_A_3_.csv /home/grierjones/DDCASPT2/ozone/multistate/ANO-RCC-VTZP/ozone_126.25/GMJ_IVECW_A_3_.csv

>>> COPY /tmp/ozone_126.25/GMJ_IVECX_A_3_.csv /home/grierjones/DDCASPT2/ozone/multistate/ANO-RCC-VTZP/ozone_126.25/GMJ_IVECX_A_3_.csv

>>> COPY /tmp/ozone_126.25/GMJ_IVECC2_A_3_.csv /home/grierjones/DDCASPT2/ozone/multistate/ANO-RCC-VTZP/ozone_126.25/GMJ_IVECC2_A_3_.csv

>>> COPY /tmp/ozone_126.25/GMJ_e2_A_3_.csv /home/grierjones/DDCASPT2/ozone/multistate/ANO-RCC-VTZP/ozone_126.25/GMJ_e2_A_3_.csv

>>> END FOREACH

>>> EXPORT i = C

>>> IF (-FILE GMJ_e2_${i}_${j}_.csv)

>>> COPY /tmp/ozone_126.25/GMJ_RHS_C_3_.csv /home/grierjones/DDCASPT2/ozone/multistate/ANO-RCC-VTZP/ozone_126.25/GMJ_RHS_C_3_.csv

>>> COPY /tmp/ozone_126.25/GMJ_IVECW_C_3_.csv /home/grierjones/DDCASPT2/ozone/multistate/ANO-RCC-VTZP/ozone_126.25/GMJ_IVECW_C_3_.csv

>>> COPY /tmp/ozone_126.25/GMJ_IVECX_C_3_.csv /home/grierjones/DDCASPT2/ozone/multistate/ANO-RCC-VTZP/ozone_126.25/GMJ_IVECX_C_3_.csv

>>> COPY /tmp/ozone_126.25/GMJ_IVECC2_C_3_.csv /home/grierjones/DDCASPT2/ozone/multistate/ANO-RCC-VTZP/ozone_126.25/GMJ_IVECC2_C_3_.csv

>>> COPY /tmp/ozone_126.25/GMJ_e2_C_3_.csv /home/grierjones/DDCASPT2/ozone/multistate/ANO-RCC-VTZP/ozone_126.25/GMJ_e2_C_3_.csv

>>> END FOREACH

>>> EXPORT i = D

>>> IF (-FILE GMJ_e2_${i}_${j}_.csv)

>>> COPY /tmp/ozone_126.25/GMJ_RHS_D_3_.csv /home/grierjones/DDCASPT2/ozone/multistate/ANO-RCC-VTZP/ozone_126.25/GMJ_RHS_D_3_.csv

>>> COPY /tmp/ozone_126.25/GMJ_IVECW_D_3_.csv /home/grierjones/DDCASPT2/ozone/multistate/ANO-RCC-VTZP/ozone_126.25/GMJ_IVECW_D_3_.csv

>>> COPY /tmp/ozone_126.25/GMJ_IVECX_D_3_.csv /home/grierjones/DDCASPT2/ozone/multistate/ANO-RCC-VTZP/ozone_126.25/GMJ_IVECX_D_3_.csv

>>> COPY /tmp/ozone_126.25/GMJ_IVECC2_D_3_.csv /home/grierjones/DDCASPT2/ozone/multistate/ANO-RCC-VTZP/ozone_126.25/GMJ_IVECC2_D_3_.csv

>>> COPY /tmp/ozone_126.25/GMJ_e2_D_3_.csv /home/grierjones/DDCASPT2/ozone/multistate/ANO-RCC-VTZP/ozone_126.25/GMJ_e2_D_3_.csv

>>> END FOREACH

>>> END FOREACH

.########################.
.# Non-zero return code #.
.########################.

    Timing: Wall=24.39 User=15.93 System=8.45
********************************************
*** WorkDir at /tmp/ozone_126.25 cleaned ***
********************************************
