[Molden Format]
[N_Atoms]
                     2
[Atoms] (AU)
N1          1      7           0.00000000      0.00000000      0.00000000
N2          2      7           0.00000000      0.00000000      2.26767135
[Charge] (Mulliken)
  2.575717417130363E-013
 -2.593480985524366E-013
[GTO] (AU)
   1
   s  14
  7.476171500E+04  1.182599996E-04
  1.112365400E+04  5.172899983E-04
  2.512685700E+03  2.266659992E-03
  7.037772900E+02  9.145289970E-03
  2.254787900E+02  3.239342989E-02
  7.961581000E+01  9.770792967E-02
  3.023728300E+01  2.317036792E-01
  1.226362200E+01  3.768898887E-01
  5.265086000E+00  3.177420689E-01
  2.333471000E+00  8.211308973E-02
  9.018560000E-01  3.312089989E-03
  3.583360000E-01  3.720819988E-03
  1.410930000E-01  3.165419989E-03
  4.938300000E-02  4.595799985E-04
   s  14
  7.476171500E+04 -2.707000010E-05
  1.112365400E+04 -1.183700004E-04
  2.512685700E+03 -5.203800020E-04
  7.037772900E+02 -2.102930008E-03
  2.254787900E+02 -7.568200028E-03
  7.961581000E+01 -2.346767009E-02
  3.023728300E+01 -6.042901023E-02
  1.226362200E+01 -1.170549104E-01
  5.265086000E+00 -1.555321506E-01
  2.333471000E+00 -2.468935009E-02
  9.018560000E-01  3.625054514E-01
  3.583360000E-01  5.550845021E-01
  1.410930000E-01  2.148376908E-01
  4.938300000E-02  8.983850034E-03
   p   9
  1.266665700E+02  1.233630000E-03
  2.983738900E+01  9.493409996E-03
  9.394038000E+00  4.293961998E-02
  3.405104000E+00  1.362925399E-01
  1.350000000E+00  2.921362499E-01
  5.576960000E-01  3.887887598E-01
  2.324490000E-01  2.946801399E-01
  9.426400000E-02  8.012875997E-02
  3.299200000E-02  5.405199998E-04
 
   2
   s  14
  7.476171500E+04  1.182599996E-04
  1.112365400E+04  5.172899983E-04
  2.512685700E+03  2.266659992E-03
  7.037772900E+02  9.145289970E-03
  2.254787900E+02  3.239342989E-02
  7.961581000E+01  9.770792967E-02
  3.023728300E+01  2.317036792E-01
  1.226362200E+01  3.768898887E-01
  5.265086000E+00  3.177420689E-01
  2.333471000E+00  8.211308973E-02
  9.018560000E-01  3.312089989E-03
  3.583360000E-01  3.720819988E-03
  1.410930000E-01  3.165419989E-03
  4.938300000E-02  4.595799985E-04
   s  14
  7.476171500E+04 -2.707000010E-05
  1.112365400E+04 -1.183700004E-04
  2.512685700E+03 -5.203800020E-04
  7.037772900E+02 -2.102930008E-03
  2.254787900E+02 -7.568200028E-03
  7.961581000E+01 -2.346767009E-02
  3.023728300E+01 -6.042901023E-02
  1.226362200E+01 -1.170549104E-01
  5.265086000E+00 -1.555321506E-01
  2.333471000E+00 -2.468935009E-02
  9.018560000E-01  3.625054514E-01
  3.583360000E-01  5.550845021E-01
  1.410930000E-01  2.148376908E-01
  4.938300000E-02  8.983850034E-03
   p   9
  1.266665700E+02  1.233630000E-03
  2.983738900E+01  9.493409996E-03
  9.394038000E+00  4.293961998E-02
  3.405104000E+00  1.362925399E-01
  1.350000000E+00  2.921362499E-01
  5.576960000E-01  3.887887598E-01
  2.324490000E-01  2.946801399E-01
  9.426400000E-02  8.012875997E-02
  3.299200000E-02  5.405199998E-04
 
[MO]
Sym=     1a  
Ene=   -15.7780
Spin= Alpha
Occup=    2.00000
   1         0.70683075
   2        -0.00467736
   3         0.00000000
   4         0.00000000
   5         0.00182861
   6         0.70683075
   7        -0.00467736
   8        -0.00000000
   9        -0.00000000
  10        -0.00182861
Sym=     2a  
Ene=   -15.7720
Spin= Alpha
Occup=    2.00000
   1        -0.70720981
   2         0.01295112
   3        -0.00000000
   4        -0.00000000
   5        -0.00651361
   6         0.70720981
   7        -0.01295112
   8         0.00000000
   9        -0.00000000
  10        -0.00651361
Sym=     3a  
Ene=    -1.4391
Spin= Alpha
Occup=    2.00000
   1         0.03812227
   2        -0.48724394
   3        -0.00000000
   4         0.00000000
   5        -0.23692597
   6         0.03812227
   7        -0.48724394
   8         0.00000000
   9        -0.00000000
  10         0.23692597
Sym=     4a  
Ene=    -0.6065
Spin= Alpha
Occup=    2.00000
   1         0.03514208
   2         0.39903191
   3         0.00000000
   4        -0.00000000
   5        -0.62329709
   6         0.03514208
   7         0.39903191
   8         0.00000000
   9        -0.00000000
  10         0.62329709
Sym=     5a  
Ene=    -0.6038
Spin= Alpha
Occup=    2.00000
   1        -0.00000000
   2        -0.00000000
   3         0.62414529
   4         0.04069724
   5         0.00000000
   6        -0.00000000
   7        -0.00000000
   8         0.62414529
   9         0.04069724
  10        -0.00000000
Sym=     6a  
Ene=    -0.6033
Spin= Alpha
Occup=    2.00000
   1         0.00000000
   2         0.00000000
   3        -0.04069724
   4         0.62414529
   5        -0.00000000
   6         0.00000000
   7         0.00000000
   8        -0.04069724
   9         0.62414529
  10         0.00000000
Sym=     7a  
Ene=    -0.8178
Spin= Alpha
Occup=    1.98915
   1        -0.02887173
   2        -0.72263010
   3        -0.00000000
   4        -0.00000000
   5         0.23885769
   6         0.02887173
   7         0.72263010
   8         0.00000000
   9         0.00000000
  10         0.23885769
Sym=     8a  
Ene=    -0.0000
Spin= Alpha
Occup=    0.01085
   1        -0.00000000
   2         0.00000000
   3        -0.83045752
   4        -0.05414978
   5        -0.00000000
   6         0.00000000
   7         0.00000000
   8         0.83045752
   9         0.05414978
  10        -0.00000000
Sym=     9a  
Ene=     0.1246
Spin= Alpha
Occup=    0.00000
   1        -0.00000000
   2        -0.00000000
   3         0.05414978
   4        -0.83045752
   5        -0.00000000
   6         0.00000000
   7         0.00000000
   8        -0.05414978
   9         0.83045752
  10        -0.00000000
Sym=    10a  
Ene=     0.7639
Spin= Alpha
Occup=    0.00000
   1         0.12931817
   2         0.96191891
   3        -0.00000000
   4        -0.00000000
   5         1.05367008
   6        -0.12931817
   7        -0.96191891
   8         0.00000000
   9         0.00000000
  10         1.05367008
