[Molden Format]
[N_Atoms]
                     2
[Atoms] (AU)
N1          1      7           0.00000000      0.00000000      0.00000000
N2          2      7           0.00000000      0.00000000      2.26767135
[Charge] (Mulliken)
   1.00000000000027     
  0.999999999999713     
[GTO] (AU)
   1
   s  14
  7.476171500E+04  1.182599996E-04
  1.112365400E+04  5.172899983E-04
  2.512685700E+03  2.266659992E-03
  7.037772900E+02  9.145289970E-03
  2.254787900E+02  3.239342989E-02
  7.961581000E+01  9.770792967E-02
  3.023728300E+01  2.317036792E-01
  1.226362200E+01  3.768898887E-01
  5.265086000E+00  3.177420689E-01
  2.333471000E+00  8.211308973E-02
  9.018560000E-01  3.312089989E-03
  3.583360000E-01  3.720819988E-03
  1.410930000E-01  3.165419989E-03
  4.938300000E-02  4.595799985E-04
   s  14
  7.476171500E+04 -2.707000010E-05
  1.112365400E+04 -1.183700004E-04
  2.512685700E+03 -5.203800020E-04
  7.037772900E+02 -2.102930008E-03
  2.254787900E+02 -7.568200028E-03
  7.961581000E+01 -2.346767009E-02
  3.023728300E+01 -6.042901023E-02
  1.226362200E+01 -1.170549104E-01
  5.265086000E+00 -1.555321506E-01
  2.333471000E+00 -2.468935009E-02
  9.018560000E-01  3.625054514E-01
  3.583360000E-01  5.550845021E-01
  1.410930000E-01  2.148376908E-01
  4.938300000E-02  8.983850034E-03
   p   9
  1.266665700E+02  1.233630000E-03
  2.983738900E+01  9.493409996E-03
  9.394038000E+00  4.293961998E-02
  3.405104000E+00  1.362925399E-01
  1.350000000E+00  2.921362499E-01
  5.576960000E-01  3.887887598E-01
  2.324490000E-01  2.946801399E-01
  9.426400000E-02  8.012875997E-02
  3.299200000E-02  5.405199998E-04
 
   2
   s  14
  7.476171500E+04  1.182599996E-04
  1.112365400E+04  5.172899983E-04
  2.512685700E+03  2.266659992E-03
  7.037772900E+02  9.145289970E-03
  2.254787900E+02  3.239342989E-02
  7.961581000E+01  9.770792967E-02
  3.023728300E+01  2.317036792E-01
  1.226362200E+01  3.768898887E-01
  5.265086000E+00  3.177420689E-01
  2.333471000E+00  8.211308973E-02
  9.018560000E-01  3.312089989E-03
  3.583360000E-01  3.720819988E-03
  1.410930000E-01  3.165419989E-03
  4.938300000E-02  4.595799985E-04
   s  14
  7.476171500E+04 -2.707000010E-05
  1.112365400E+04 -1.183700004E-04
  2.512685700E+03 -5.203800020E-04
  7.037772900E+02 -2.102930008E-03
  2.254787900E+02 -7.568200028E-03
  7.961581000E+01 -2.346767009E-02
  3.023728300E+01 -6.042901023E-02
  1.226362200E+01 -1.170549104E-01
  5.265086000E+00 -1.555321506E-01
  2.333471000E+00 -2.468935009E-02
  9.018560000E-01  3.625054514E-01
  3.583360000E-01  5.550845021E-01
  1.410930000E-01  2.148376908E-01
  4.938300000E-02  8.983850034E-03
   p   9
  1.266665700E+02  1.233630000E-03
  2.983738900E+01  9.493409996E-03
  9.394038000E+00  4.293961998E-02
  3.405104000E+00  1.362925399E-01
  1.350000000E+00  2.921362499E-01
  5.576960000E-01  3.887887598E-01
  2.324490000E-01  2.946801399E-01
  9.426400000E-02  8.012875997E-02
  3.299200000E-02  5.405199998E-04
 
[MO]
Sym=     1a  
Ene=   -17.0980
Spin= Alpha
Occup=    2.00000
   1         0.70692471
   2        -0.00549825
   3         0.00000000
   4        -0.00000000
   5         0.00104357
   6         0.70692471
   7        -0.00549825
   8        -0.00000000
   9        -0.00000000
  10        -0.00104357
Sym=     2a  
Ene=   -17.0970
Spin= Alpha
Occup=    2.00000
   1        -0.70726704
   2         0.00548783
   3         0.00000000
   4        -0.00000000
   5        -0.00132857
   6         0.70726704
   7        -0.00548783
   8        -0.00000000
   9        -0.00000000
  10        -0.00132857
Sym=     3a  
Ene=    -2.4069
Spin= Alpha
Occup=    2.00000
   1         0.03842029
   2        -0.46580091
   3        -0.00000000
   4         0.00000000
   5        -0.26905375
   6         0.03842029
   7        -0.46580091
   8         0.00000000
   9        -0.00000000
  10         0.26905375
Sym=     4a  
Ene=    -1.5451
Spin= Alpha
Occup=    2.00000
   1         0.00000000
   2         0.00000000
   3         0.60913896
   4        -0.14199766
   5        -0.00000000
   6         0.00000000
   7         0.00000000
   8         0.60913896
   9        -0.14199766
  10         0.00000000
Sym=     5a  
Ene=    -1.5451
Spin= Alpha
Occup=    2.00000
   1         0.00000000
   2         0.00000000
   3         0.14199766
   4         0.60913896
   5        -0.00000000
   6         0.00000000
   7        -0.00000000
   8         0.14199766
   9         0.60913896
  10         0.00000000
Sym=     6a  
Ene=    -1.2169
Spin= Alpha
Occup=    0.32141
   1         0.03285292
   2         0.42385645
   3        -0.00000000
   4        -0.00000000
   5        -0.61011926
   6         0.03285292
   7         0.42385645
   8        -0.00000000
   9        -0.00000000
  10         0.61011926
Sym=     7a  
Ene=    -0.0200
Spin= Alpha
Occup=    1.67859
   1        -0.02426123
   2        -0.75594090
   3         0.00000000
   4        -0.00000000
   5         0.20192020
   6         0.02426123
   7         0.75594090
   8        -0.00000000
   9         0.00000000
  10         0.20192020
Sym=     8a  
Ene=    -0.8759
Spin= Alpha
Occup=    0.00000
   1        -0.00000000
   2        -0.00000000
   3         0.69587164
   4        -0.45645871
   5        -0.00000000
   6         0.00000000
   7        -0.00000000
   8        -0.69587164
   9         0.45645871
  10        -0.00000000
Sym=     9a  
Ene=    -0.8759
Spin= Alpha
Occup=    0.00000
   1        -0.00000000
   2        -0.00000000
   3        -0.45645871
   4        -0.69587164
   5        -0.00000000
   6         0.00000000
   7         0.00000000
   8         0.45645871
   9         0.69587164
  10        -0.00000000
Sym=    10a  
Ene=    -0.2717
Spin= Alpha
Occup=    0.00000
   1         0.12995082
   2         0.93604125
   3         0.00000000
   4        -0.00000000
   5         1.06138707
   6        -0.12995082
   7        -0.93604125
   8        -0.00000000
   9         0.00000000
  10         1.06138707
