[Molden Format]
[N_Atoms]
                     2
[Atoms] (AU)
B1          1      5           0.00000000      0.00000000      0.00000000
C2          2      6           0.00000000      0.00000000      4.34637009
[Charge] (Mulliken)
  4.022179010865123E-002
 -4.022179010871429E-002
[GTO] (AU)
   1
   s  14
  3.336021700E+04  1.039699991E-04
  4.972095200E+03  5.254399956E-04
  1.125641700E+03  2.509059979E-03
  3.164913600E+02  1.031887991E-02
  1.020072600E+02  3.636632969E-02
  3.629587300E+01  1.064607991E-01
  1.397141000E+01  2.403999880E-01
  5.741156000E+00  3.748581168E-01
  2.494268000E+00  3.100066974E-01
  1.114202000E+00  7.922455933E-02
  4.215490000E-01 -4.947589958E-03
  1.696330000E-01 -7.737119935E-03
  6.853500000E-02 -1.501079987E-03
  2.398700000E-02 -1.333299989E-04
   s  14
  3.336021700E+04 -2.030000008E-05
  4.972095200E+03 -1.025700004E-04
  1.125641700E+03 -4.911300020E-04
  3.164913600E+02 -2.026570008E-03
  1.020072600E+02 -7.261010030E-03
  3.629587300E+01 -2.197722009E-02
  1.397141000E+01 -5.408428022E-02
  5.741156000E+00 -1.022402604E-01
  2.494268000E+00 -1.423595206E-01
  1.114202000E+00 -4.658690019E-02
  4.215490000E-01  3.799402916E-01
  1.696330000E-01  5.890463624E-01
  6.853500000E-02  1.749075107E-01
  2.398700000E-02 -1.142030005E-03
   p   9
  5.500000000E+01  1.229800005E-03
  1.336610100E+01  8.827380035E-03
  4.135394000E+00  3.843340015E-02
  1.481256000E+00  1.150031805E-01
  6.021360000E-01  2.733674011E-01
  2.556360000E-01  4.061972116E-01
  1.111510000E-01  3.014967912E-01
  4.764800000E-02  7.684809030E-02
  1.667700000E-02 -8.170000032E-06
 
   2
   s  14
  5.055750100E+04  1.128874000E-04
  7.524785600E+03  5.295373000E-04
  1.694327600E+03  2.450038300E-03
  4.728227900E+02  1.005398470E-02
  1.517107500E+02  3.545398060E-02
  5.391874600E+01  1.044071086E-01
  2.065931100E+01  2.412894918E-01
  8.383976000E+00  3.834225483E-01
  3.577015000E+00  3.078514393E-01
  1.547118000E+00  6.872442990E-02
  6.130130000E-01  2.224445000E-04
  2.460680000E-01  1.976748900E-03
  9.908700000E-02  2.057859400E-03
  3.468000000E-02  4.182020000E-04
   s  14
  5.055750100E+04 -2.507420000E-05
  7.524785600E+03 -1.175945000E-04
  1.694327600E+03 -5.456275000E-04
  4.728227900E+02 -2.245077100E-03
  1.517107500E+02 -8.043471800E-03
  5.391874600E+01 -2.442588710E-02
  2.065931100E+01 -6.136791180E-02
  8.383976000E+00 -1.177767835E-01
  3.577015000E+00 -1.550487783E-01
  1.547118000E+00 -1.933316860E-02
  6.130130000E-01  3.996930678E-01
  2.460680000E-01  5.589420949E-01
  9.908700000E-02  1.711195023E-01
  3.468000000E-02  7.456244600E-03
   p   9
  8.333315500E+01  1.344656000E-03
  1.955761100E+01  1.023555500E-02
  6.080365000E+00  4.520067100E-02
  2.179317000E+00  1.410756198E-01
  8.651500000E-01  3.047388085E-01
  3.619440000E-01  3.995281011E-01
  1.547400000E-01  2.719163432E-01
  6.542900000E-02  5.857669330E-02
  2.290000000E-02 -1.263813000E-04
 
[MO]
Sym=     1a  
Ene=   -11.2610
Spin= Alpha
Occup=    1.00000
   1        -0.00008200
   2        -0.00082096
   3        -0.00000000
   4        -0.00000000
   5        -0.00085543
   6         1.00003158
   7         0.00053807
   8         0.00000000
   9        -0.00000000
  10        -0.00030168
Sym=     1a  
Ene=   -11.2090
Spin= Beta
Occup=    1.00000
   1        -0.00005035
   2        -0.00037015
   3        -0.00000000
   4        -0.00000000
   5        -0.00023492
   6         0.99999878
   7        -0.00470220
   8         0.00000000
   9        -0.00000000
  10        -0.00031884
Sym=     2a  
Ene=    -7.6528
Spin= Alpha
Occup=    1.00000
   1         0.99991595
   2         0.01306076
   3         0.00000000
   4         0.00000000
   5         0.00031928
   6        -0.00003103
   7        -0.00010814
   8         0.00000000
   9        -0.00000000
  10         0.00002111
Sym=     2a  
Ene=    -7.6733
Spin= Beta
Occup=    1.00000
   1         0.99988443
   2         0.01568901
   3         0.00000000
   4        -0.00000000
   5        -0.00020268
   6        -0.00004201
   7        -0.00024138
   8        -0.00000000
   9        -0.00000000
  10         0.00026983
Sym=     3a  
Ene=    -0.8148
Spin= Alpha
Occup=    1.00000
   1         0.00823489
   2        -0.10794657
   3        -0.00000000
   4        -0.00000000
   5        -0.04984230
   6         0.00264756
   7        -0.96404020
   8         0.00000000
   9         0.00000000
  10        -0.04443098
Sym=     3a  
Ene=    -0.6069
Spin= Beta
Occup=    1.00000
   1         0.01746588
   2        -0.66039328
   3        -0.00000000
   4        -0.00000000
   5         0.01452072
   6         0.00349977
   7        -0.63124218
   8         0.00000000
   9        -0.00000000
  10         0.09901001
Sym=     4a  
Ene=    -0.4364
Spin= Alpha
Occup=    1.00000
   1        -0.01450120
   2         0.90707009
   3         0.00000000
   4         0.00000000
   5         0.18604791
   6        -0.01456753
   7        -0.28107733
   8         0.00000000
   9         0.00000000
  10        -0.24119640
Sym=     4a  
Ene=    -0.4938
Spin= Beta
Occup=    1.00000
   1        -0.00483484
   2         0.72889017
   3        -0.00000000
   4         0.00000000
   5        -0.22408343
   6        -0.00538273
   7        -0.71387606
   8        -0.00000000
   9        -0.00000000
  10         0.03858291
Sym=     5a  
Ene=    -0.4095
Spin= Alpha
Occup=    1.00000
   1         0.00000000
   2        -0.00000000
   3         0.06347033
   4        -0.00157287
   5        -0.00000000
   6         0.00000000
   7         0.00000000
   8         0.99077900
   9        -0.02455276
  10        -0.00000000
Sym=     5a  
Ene=    -0.3151
Spin= Beta
Occup=    1.00000
   1         0.00000000
   2        -0.00000000
   3         0.02456947
   4         0.99145341
   5        -0.00000000
   6         0.00000000
   7         0.00000000
   8         0.00147453
   9         0.05950165
  10         0.00000000
Sym=     6a  
Ene=    -0.4075
Spin= Alpha
Occup=    1.00000
   1        -0.00000000
   2         0.00000000
   3        -0.00124887
   4        -0.05039556
   5         0.00000000
   6        -0.00000000
   7        -0.00000000
   8        -0.02460635
   9        -0.99294171
  10        -0.00000000
Sym=     6a  
Ene=     0.0619
Spin= Beta
Occup=    0.00000
   1         0.00754916
   2        -0.04752137
   3        -0.00000000
   4        -0.00000000
   5        -0.75282796
   6         0.02144531
   7         0.38437808
   8        -0.00000000
   9        -0.00000000
  10         0.50020724
Sym=     7a  
Ene=     0.0430
Spin= Alpha
Occup=    0.00000
   1         0.00737292
   2         0.45468808
   3         0.00000000
   4        -0.00000000
   5        -0.55579513
   6         0.00945006
   7         0.03666199
   8         0.00000000
   9         0.00000000
  10         0.66560494
Sym=     7a  
Ene=     0.0821
Spin= Beta
Occup=    0.00000
   1         0.00000000
   2         0.00000000
   3         0.95533223
   4        -0.02367434
   5        -0.00000000
   6         0.00000000
   7         0.00000000
   8         0.20820119
   9        -0.00515949
  10         0.00000000
Sym=     8a  
Ene=     0.1293
Spin= Alpha
Occup=    0.00000
   1         0.00000000
   2        -0.00000000
   3         1.00368549
   4        -0.02487260
   5         0.00000000
   6        -0.00000000
   7        -0.00000000
   8        -0.17253991
   9         0.00427576
  10         0.00000000
Sym=     8a  
Ene=     0.2431
Spin= Beta
Occup=    0.00000
   1         0.00000000
   2         0.00000000
   3        -0.00417865
   4        -0.16862140
   5         0.00000000
   6        -0.00000000
   7        -0.00000000
   8         0.02487862
   9         1.00392859
  10         0.00000000
Sym=     9a  
Ene=     0.1785
Spin= Alpha
Occup=    0.00000
   1         0.00000000
   2         0.00000000
   3         0.02489097
   4         1.00442687
   5         0.00000000
   6        -0.00000000
   7        -0.00000000
   8        -0.00395568
   9        -0.15962396
  10         0.00000000
Sym=     9a  
Ene=     0.2516
Spin= Beta
Occup=    0.00000
   1        -0.00000000
   2        -0.00000000
   3        -0.31425050
   4         0.00778752
   5        -0.00000000
   6         0.00000000
   7         0.00000000
   8         0.98390310
   9        -0.02438236
  10        -0.00000000
Sym=    10a  
Ene=     0.2702
Spin= Alpha
Occup=    0.00000
   1        -0.01540987
   2        -0.21216669
   3         0.00000000
   4         0.00000000
   5        -0.89533173
   6         0.02552238
   7         0.31772684
   8        -0.00000000
   9        -0.00000000
  10        -0.78708833
Sym=    10a  
Ene=     0.3085
Spin= Beta
Occup=    0.00000
   1        -0.01573332
   2        -0.34124929
   3         0.00000000
   4        -0.00000000
   5        -0.72832119
   6         0.02289985
   7         0.23413315
   8        -0.00000000
   9         0.00000000
  10        -0.92800259
