   This run of MOLCAS is using the pymolcas driver

                             OPE
                             OPE          NMOL  CASOP  ENMOLC A   SO
                 OPE        NMOLC        AS  OP EN  MO LC     AS  OP
                OPENM       OL CA        SO  PE NM  OL CA     SOP EN
                OP EN      MO   LC       AS  OP ENMOL  CASO   PENMOL
                OP  EN     MO   LC       AS  OP EN     MO     LC ASO
               OP   E  NMOL  C  AS       OP  EN MO     LC     AS  OP
               OP  E   NMO   LC AS        OPEN  MO     LCASOP EN   M
               O  PEN   MO  LCA  SO
            OPE   NMO   L   CAS    OP
        OPENMOL  CASOP     ENMOL   CASOPE
     OPENMOLCA   SOPENMOLCASOPEN   MOLCASOPE
    OPENMOLCAS   OP           EN   MOL    CAS
    OPENMOLCAS       OP  ENM        O     LCA
    OPENMOLCAS    OPEN  MOLCASO     P  E  NMO
    OPENMOLCAS     OP               E  N  MOL
    OPENMOLCA   SO           PENM   O  L  CAS    OPEN    MO    LCAS
    OPENMOLCA   SOP           ENM   O  L  CAS   OP  EN  MOLC  AS   O
    OPENMOLCA   SOPE           NM      O  LCA   S      OP  EN MO
    OPENMOLC                AS         O  PEN   M      OL  CA  SOPE
    OPENMO        LCASOPE  NMOL        C  ASO   P      ENMOLC     AS
    OPE     NMO      LCA  SO     P     E   NM   OL  CA SO  PE N   MO
          OPENMOLCA            SOPE   NMO        LCAS  O    P  ENMO
     OPENMOLCASOPENMOLCASOPENMOLCASOPENMOLCA
        OPENMOLCASOPENMOLCASOPENMOLCASOPE
            OPENMOLCASOPENMOLCASOPENM
               OPENMOLCASOPENMOLCA        version: 24.02
                   OPENMOLCASO
                       OPE                tag: 126-g611b04c8f

 OpenMolcas is free software; you can redistribute it and/or modify it
 under the terms of the GNU Lesser General Public License version 2.1.
 OpenMolcas is distributed in the hope that it will be useful, but it
 is provided "as is" and without any express or implied warranties.
 For more details see the full text of the license in the file
 LICENSE or in <http://www.gnu.org/licenses/>.

                 Copyright (C) The OpenMolcas Authors
           For the author list and the recommended citation,
                   consult the file CONTRIBUTORS.md

           *************************************************
           * pymolcas version py2.28                       *
           *   build c4a6d18ded8cb6cad61d2372a9abd97c      *
           *   (after the EMIL interpreter by V. Veryazov) *
           *************************************************

configuration info
------------------
Host name: debian (Linux)
C Compiler ID: GNU
C flags: -std=gnu99
Fortran Compiler ID: Intel
Fortran flags: -fpp -i8 -heap-arrays
Definitions: _MOLCAS_;_I8_;_LINUX_
Parallel: OFF (GA=OFF)


   ------------------------------------------------------------------
  |
  |              Project: 2.60
  |       Submitted from: /home/grierjones/DDCASPT2/delta_ML/HLi/2.60
  |         Scratch area: /tmp/2.60
  |      Save outputs to: /home/grierjones/DDCASPT2/delta_ML/HLi/2.60
  |               Molcas: /usr/local
  |
  | Scratch area is empty
  |
  |       MOLCAS_DRIVER = /usr/local/pymolcas
  | MOLCAS_KEEP_WORKDIR = NO
  |  MOLCAS_NEW_WORKDIR = YES
  |       MOLCAS_NPROCS = 1
  |       MOLCAS_SOURCE = /usr/local
  |    MOLCAS_STRUCTURE = 0
  |
   ------------------------------------------------------------------

++ ---------   Input file   ---------

&GATEWAY
coord=2.60.xyz
Basis = ANO-RCC-MB
Group = nosymm
End of Input

&SEWARD
End of Input

&SCF
UHF

&MBPT2
Frozen
0

&RASSCF
Title= RASSCF
FileOrb
/home/grierjones/DDCASPT2/delta_ML/HLi/2.50/2.50.RasOrb

NACTEL
2 0 0
Inactive
1
RAS2
2
Symmetry
1
Spin
1
orblisting
all
ITERation
200 100
CIMX
200
SDAV
500

&CASPT2
Imaginary Shift
0.0
Frozen
0

-- ----------------------------------

--- Start Module: gateway at Thu Apr 25 13:59:30 2024 ---
 
()()()()()()()()()()()()()()()()()()()()()()()()()()()()()()()()()()()()()()()()()()()()()()()()()()

                                              &GATEWAY

                                   only a single process is used
                       available to each process: 2.0 GB of memory, 1 thread?
                                            pid: 111860
()()()()()()()()()()()()()()()()()()()()()()()()()()()()()()()()()()()()()()()()()()()()()()()()()()
 
 
++    Symmetry information:
      ---------------------
 
                    Character Table for C1 
 
                             E  
                    a        1  x, y, xy, Rz, z, xz, Ry, yz, Rx, I
--
 
 
++    Basis set information:
      ----------------------
 
 
      Basis set label: H.ANO-RCC...1S.
 
      Electronic valence basis set:
      ------------------
      Associated Effective Charge   1.000000 au
      Associated Actual Charge      1.000000 au
      Nuclear Model: Point charge
 
      Shell  nPrim  nBasis  Cartesian Spherical Contaminant
         s       8       1        X                  
 
 
      Basis set label: LI.ANO-RCC...2S1P.
 
      Electronic valence basis set:
      ------------------
      Associated Effective Charge   3.000000 au
      Associated Actual Charge      3.000000 au
      Nuclear Model: Point charge
 
      Shell  nPrim  nBasis  Cartesian Spherical Contaminant
         s      14       2        X                  
         p       9       1        X                  
--
 
 
++    Molecular structure info:
      -------------------------
 
                    ************************************************ 
                    **** Cartesian Coordinates / Bohr, Angstrom **** 
                    ************************************************ 
 
     Center  Label                x              y              z                     x              y              z
        1      H1               0.000000       0.000000       0.000000              0.000000       0.000000       0.000000
        2      LI2              0.000000       0.000000       4.913288              0.000000       0.000000       2.600000
--
 
 
            Nuclear Potential Energy              0.61058909 au
 
--- Stop Module: gateway at Thu Apr 25 13:59:30 2024 /rc=_RC_ALL_IS_WELL_ ---
*** files: xmldump
    saved to directory /home/grierjones/DDCASPT2/delta_ML/HLi/2.60

--- Start Module: seward at Thu Apr 25 13:59:30 2024 ---
 
()()()()()()()()()()()()()()()()()()()()()()()()()()()()()()()()()()()()()()()()()()()()()()()()()()

                                              &SEWARD

                                   only a single process is used
                       available to each process: 2.0 GB of memory, 1 thread?
                                            pid: 111863
()()()()()()()()()()()()()()()()()()()()()()()()()()()()()()()()()()()()()()()()()()()()()()()()()()
 
               SEWARD will generate:
                  Multipole Moment integrals up to order  2
                  Kinetic Energy integrals
                  Nuclear Attraction integrals (point charge)
                  One-Electron Hamiltonian integrals
                  Velocity integrals
                  Relativistic Douglas-Kroll-Hess integrals:
                    - Parametrization         : EXP
                    - DKH order of Hamiltonian: 2
                    - DKH order of Properties : 0
                         - multipole moment operators
                         - electric potential operators
                         - contact operators
                  Orbital angular momentum around ( 0.0000  0.0000  4.2962 )
                  Velocity quadrupole around ( 0.0000  0.0000  4.2962 )
                  Atomic mean-field integrals
                  Two-Electron Repulsion integrals
 
                   Integrals are discarded if absolute value <: 1.00E-14
                   Integral cutoff threshold is set to       <: 1.00E-16
 
            Nuclear Potential Energy              0.61058909 au
 
 
      Basis set specifications :
      Symmetry species         a  
      Basis functions            6
 
 
      Input file to MOLDEN was generated!
 
--- Stop Module: seward at Thu Apr 25 13:59:30 2024 /rc=_RC_ALL_IS_WELL_ ---
*** files: 2.60.GssOrb 2.60.guessorb.h5 2.60.guessorb.molden xmldump
    saved to directory /home/grierjones/DDCASPT2/delta_ML/HLi/2.60

*** symbolic link created: INPORB -> 2.60.GssOrb
--- Start Module: scf at Thu Apr 25 13:59:30 2024 ---
 
()()()()()()()()()()()()()()()()()()()()()()()()()()()()()()()()()()()()()()()()()()()()()()()()()()

                                                &SCF

                                   only a single process is used
                       available to each process: 2.0 GB of memory, 1 thread?
                                            pid: 111866
()()()()()()()()()()()()()()()()()()()()()()()()()()()()()()()()()()()()()()()()()()()()()()()()()()
 
++    Input section:
      --------------
 
      Header of the integral files:
      
       Integrals generated by Gateway/Seward, Thu Apr 25 13:59:30 2024
 
 
      Cartesian coordinates in Angstrom:
      -----------------------------------------------------
      No.  Label        X            Y            Z        
      -----------------------------------------------------
       1   H1         0.00000000   0.00000000   0.00000000
       2   LI2        0.00000000   0.00000000   2.60000000
      -----------------------------------------------------
      Nuclear repulsion energy =    0.61058909
--
 
++    Orbital specifications:
      -----------------------
 
      Symmetry species               1
                                     a
      Frozen orbitals                0
      Occupied orbitals alpha        2
      Occupied orbitals beta         2
      Secondary orbitals alpha       4
      Secondary orbitals beta        4
      Deleted orbitals               0
      Total number of orbitals       6
      Number of basis functions      6
--
 
      Molecular charge                           0.000
 
++    Optimization specifications:
      ----------------------------
 
      SCF Algorithm: Conventional USCF
      D(i)-D(i-1) density differences are used
      Number of density matrices in core                 5
      Maximum number of NDDO SCF iterations            400
      Maximum number of HF SCF iterations              400
      Threshold for SCF energy change             1.00E-09
      Threshold for density matrix                1.00E-04
      Threshold for Fock matrix                   1.50E-04
      Threshold for linear dependence             1.00E-09
      Threshold at which DIIS is turned on        1.50E-01
      Maximum depth in the DIIS procedure                5
      Maximum depth in the BFGS Hessian update          30
      Threshold at which QNR/C2DIIS is turned on  7.50E-02
      Threshold for Norm(delta) (QNR/C2DIIS)      1.00E-03
      All orbitals punched on: UHFORB
--
 
      Input vectors read from INPORB
      Orbital file label: *Guess orbitals
 
 
++ Convergence information
                               UHF SCF        iterations: Energy and convergence statistics
 
Iter     Tot. SCF        One-elec.       Two-elec.     Energy      Max Dij or  Max Fij      DNorm      TNorm      AccCon     Time
         Energy          Energy          Energy        Change      Delta Norm                                                in Sec.
   1    -7.793486139   -11.525682476     3.121607247   0.00E+00    7.00E-01*   1.03E-01*    2.75E+00   3.00E+00   None         0.
   2    -7.917184907   -11.546097332     3.018323336  -1.24E-01*   1.58E-01*   1.97E-02*    1.59E+00   2.99E+00   EDIIS        0.
   3    -7.921259506   -11.551358723     3.019510127  -4.07E-03*   4.98E-02*   6.61E-03*    2.26E-01   2.99E+00   EDIIS        0.
   4    -7.921964129   -11.550735872     3.018182653  -7.05E-04*   1.31E-02*   6.29E-03*    9.41E-02   2.99E+00   c2DIIS       0.
   5    -7.922210551   -11.549812084     3.017012443  -2.46E-04*   7.42E-03*   6.18E-04*    2.23E-02   2.98E+00   QNRc2DIIS    0.
   6    -7.922215793   -11.549708439     3.016903557  -5.24E-06*   8.68E-03*   3.26E-04*    7.86E-03   2.98E+00   QNRc2DIIS    0.
   7    -7.922217980   -11.549558103     3.016751033  -2.19E-06*   5.75E-05    5.80E-06     9.31E-03   2.98E+00   QNRc2DIIS    0.
   8    -7.922217981   -11.549558064     3.016750994  -2.45E-10    4.67E-06    6.65E-07     6.08E-05   2.98E+00   QNRc2DIIS    0.
 
       Convergence after   8 Macro Iterations
--
 
 *****************************************************************************************************************************
 *                                                                                                                           *
 *                                             SCF/KS-DFT Program, Final results                                             *
 *                                                                                                                           *
 *                                                                                                                           *
 *                                                                                                                           *
 *                                                       Final Results                                                       *
 *                                                                                                                           *
 *****************************************************************************************************************************
 
::    Total SCF energy                                 -7.9222179805
      One-electron energy                             -11.5495580638
      Two-electron energy                               3.0167509938
      Nuclear repulsion energy                          0.6105890895
      Kinetic energy (interpolated)                     7.8829872326
      Virial theorem                                    1.0049766347
      Total spin, S(S+1)                               -0.0000000000
      Total spin, S                                    -0.0000000000
      Max non-diagonal density matrix element           0.0000032318
      Max non-diagonal Fock matrix element              0.0000001981
 
 
      All orbitals with orbital energies smaller than  E(LUMO)+0.5 are printed
 
++    Molecular orbitals:
      -------------------
 
      Title: UHF orbitals (alpha)

      Molecular orbitals for symmetry species 1: a  
 
          Orbital            1         2         3         4         5         6    
          Energy           -2.5125   -0.2456   -0.0062    0.0557    0.0557    0.2203
          Occ. No.          1.0000    1.0000    0.0000    0.0000    0.0000    0.0000
 
        1 H1     1s         0.0013    0.6345   -0.1650    0.0000    0.0000    0.9243
        2 LI2    1s         0.9999   -0.0151   -0.0084    0.0000    0.0000   -0.0094
        3 LI2    2s         0.0124    0.4429    0.7822   -0.0000    0.0000   -0.5299
        4 LI2    2px       -0.0000   -0.0000   -0.0000    0.0604    0.9982   -0.0000
        5 LI2    2py        0.0000   -0.0000    0.0000    0.9982   -0.0604   -0.0000
        6 LI2    2pz        0.0023   -0.3136    0.5937    0.0000    0.0000    0.8626
--
 
 
      Input file to MOLDEN was generated!
 
 
++    Static properties:
      ------------------
 
 
      LoProp Charges per center
 

                   H1       LI2   
      Nuclear      1.0000   3.0000
      Electronic  -1.3224  -2.6776
 
      Total       -0.3224   0.3224
--
 
 
      All orbitals with orbital energies smaller than  E(LUMO)+0.5 are printed
 
++    Molecular orbitals:
      -------------------
 
      Title: UHF orbitals (beta)

      Molecular orbitals for symmetry species 1: a  
 
          Orbital            1         2         3         4         5         6    
          Energy           -2.5125   -0.2456   -0.0062    0.0557    0.0557    0.2203
          Occ. No.          1.0000    1.0000    0.0000    0.0000    0.0000    0.0000
 
        1 H1     1s         0.0013    0.6345   -0.1650    0.0000    0.0000    0.9243
        2 LI2    1s         0.9999   -0.0151   -0.0084    0.0000    0.0000   -0.0094
        3 LI2    2s         0.0124    0.4429    0.7822   -0.0000    0.0000   -0.5299
        4 LI2    2px       -0.0000   -0.0000   -0.0000    0.0604    0.9982   -0.0000
        5 LI2    2py        0.0000   -0.0000    0.0000    0.9982   -0.0604   -0.0000
        6 LI2    2pz        0.0023   -0.3136    0.5937    0.0000    0.0000    0.8626
--
 
 
++    Molecular charges:
      ------------------
 
      Mulliken charges per centre and basis function type
      ---------------------------------------------------
 
                            H1                      LI2   
                     alpha        beta       alpha        beta
      1s           0.5539      0.5539      0.9999      0.9999
      2s           0.0000      0.0000      0.2702      0.2702
      2px          0.0000      0.0000      0.0000      0.0000
      2pz          0.0000      0.0000      0.1759      0.1759
      2py          0.0000      0.0000      0.0000      0.0000
      Total        0.5539      0.5539      1.4461      1.4461
      Total              1.1079                  2.8921
 
      Charge           -0.1079                  0.1079
 
      Total electronic charge=    4.000000
 
      Total            charge=   -0.000000
--
 
 
      Input file to MOLDEN was generated!
 
 
++    Static properties:
      ------------------
 
 
      LoProp Charges per center
 

                   H1       LI2   
      Nuclear      1.0000   3.0000
      Electronic  -1.3224  -2.6776
 
      Total       -0.3224   0.3224
--
 
 
++    Natural Bond Order analysis
      ---------------------------
      Based on LoProp computed density
      -------------------------------------------------------------------------------------
      Atom A       Atom B       Bond Order
        H1           LI2            0.797
      -------------------------------------------------------------------------------------
      NBO located      1.595 electrons involved in    1 bonds.
      The remaining    0.708 electrons are to be considered as diffuse
--
 
 
++    Molecular orbitals:
      -------------------
 
      Title: Natural orbitals

      Molecular orbitals for symmetry species 1: a  
 
          Orbital            1         2         3         4         5         6    
          Energy           -2.5125   -0.2456   -0.0062    0.0557    0.0557    0.2203
          Occ. No.          2.0000    2.0000    0.0000    0.0000    0.0000    0.0000
 
        1 H1     1s         0.0013    0.6347    0.1669    0.0000    0.0000    0.9238
        2 LI2    1s         0.9999   -0.0152    0.0084    0.0000    0.0000   -0.0094
        3 LI2    2s         0.0124    0.4448   -0.7808   -0.0000    0.0000   -0.5303
        4 LI2    2px       -0.0000   -0.0000    0.0000    0.0604    0.9982   -0.0000
        5 LI2    2py        0.0000   -0.0000   -0.0000    0.9982   -0.0604   -0.0000
        6 LI2    2pz        0.0023   -0.3112   -0.5946    0.0000    0.0000    0.8629
--
 
 
++    Molecular properties:
      ---------------------
 
      Charge (e):
                      =   -0.0000
      Dipole Moment (Debye):
      Origin of the operator (Ang)=    0.0000    0.0000    0.0000
                   X=  1.0410E-14               Y=  2.6859E-16               Z=  7.2677E+00           Total=  7.2677E+00
      Quadrupole Moment (Debye*Ang):
      Origin of the operator (Ang)=    0.0000    0.0000    2.2734
                  XX= -7.7452E+00              XY= -5.0282E-31              XZ= -6.2908E-15              YY= -7.7452E+00
                  YZ= -1.6497E-16              ZZ= -1.3437E+01
      In traceless form (Debye*Ang)
                  XX=  2.8459E+00              XY= -7.5423E-31              XZ= -9.4362E-15              YY=  2.8459E+00
                  YZ= -2.4746E-16              ZZ= -5.6918E+00
--
 
 
      Input file to MOLDEN was generated!
 
 ###############################################################################
 ###############################################################################
 ###                                                                         ###
 ###                                                                         ###
 ###    WARNING: RunFile label nBas                                          ###
 ###    was used       87 times                                              ###
 ###                                                                         ###
 ###                                                                         ###
 ###############################################################################
 ###############################################################################
--- Stop Module: scf at Thu Apr 25 13:59:31 2024 /rc=_RC_ALL_IS_WELL_ ---
*** files: 2.60.LprOrb 2.60.LoProp.molden 2.60.scf.molden 2.60.scf.h5 2.60.UhfOrb 2.60.UnaOrb xmldump
    saved to directory /home/grierjones/DDCASPT2/delta_ML/HLi/2.60

*** symbolic link created: INPORB -> 2.60.UnaOrb
--- Start Module: mbpt2 at Thu Apr 25 13:59:31 2024 ---
 
()()()()()()()()()()()()()()()()()()()()()()()()()()()()()()()()()()()()()()()()()()()()()()()()()()

                                               &MBPT2

                                   only a single process is used
                       available to each process: 2.0 GB of memory, 1 thread?
                                            pid: 111870
()()()()()()()()()()()()()()()()()()()()()()()()()()()()()()()()()()()()()()()()()()()()()()()()()()
 
 
 ###############################################################################
 ###############################################################################
 ###                                                                         ###
 ###                                                                         ###
 ###    WARNING: MP2 implementation intended for RHF references only         ###
 ###                                                                         ###
 ###                                                                         ###
 ###############################################################################
 ###############################################################################
MBPT2 WARNING: Reference function according to RunFile:UHF-SCF 
I'll assume you know what you're doing and continue
 
 
WARNING!
Default frozen orbitals as non valence orbitals is overwritten by user input.
Default values:   1
 
 
      Cartesian coordinates in Angstrom:
      -----------------------------------------------------
      No.  Label        X            Y            Z        
      -----------------------------------------------------
       1   H1         0.00000000   0.00000000   0.00000000
       2   LI2        0.00000000   0.00000000   2.60000000
      -----------------------------------------------------
      Nuclear repulsion energy =    0.61058909
 
      Contents of RUNFILE file:
      -------------------------
 
      Symmetry species                           1
                                                 a
      Number of basis functions                  6
      Frozen occupied orbitals                   0
      Active occupied orbitals                   2
      Active external orbitals                   4
      Deleted external orbitals                  0
 
 
      Energies of the active occupied orbitals
 
      symmetry species 1                    -2.512460     -0.245568
 
 
      Energies of the active external orbitals
 
      symmetry species 1                    -0.006246      0.055651      0.055651      0.220283
 
 
      ********************************************************************************************************
      *                                               Results                                                *
      ********************************************************************************************************
 
 Conventional algorithm used...

       SCF energy                           =       -7.9222179805 a.u.
       Second-order correlation energy      =       -0.0198977650 a.u.

       Total energy                         =       -7.9421157455 a.u.
       Reference weight ( Cref**2 )         =        0.97688
 
::    Total MBPT2 energy                               -7.9421157455
 
 
       Zeroth-order energy (E0)             =       -4.9054669867 a.u.
 
       Shanks-type energy S1(E)             =       -7.9422478578 a.u.
 
 


       Data processing and timing information:

       Section                                              time(sec)
                                                          CPU  Elapsed

      Input data processing                              0.01      0.05
      Transformation of integrals                        0.00      0.01
      MBPT2 calculations (BJAI)                          0.00      0.00
      Total MBPT2 calculations                           0.01      0.06
 
 
--- Stop Module: mbpt2 at Thu Apr 25 13:59:31 2024 /rc=_RC_ALL_IS_WELL_ ---
*** files: xmldump
    saved to directory /home/grierjones/DDCASPT2/delta_ML/HLi/2.60

*** symbolic link created: INPORB -> 2.60.UnaOrb
--- Start Module: rasscf at Thu Apr 25 13:59:31 2024 ---
 
()()()()()()()()()()()()()()()()()()()()()()()()()()()()()()()()()()()()()()()()()()()()()()()()()()

                                              &RASSCF

                                   only a single process is used
                       available to each process: 2.0 GB of memory, 1 thread?
                                            pid: 111873
()()()()()()()()()()()()()()()()()()()()()()()()()()()()()()()()()()()()()()()()()()()()()()()()()()
 
 
      Header of the ONEINT file:
      --------------------------
      
      Integrals generated by Gateway/Seward, Thu Apr 25 13:59:30 2024
 
 
      OrdInt status: non-squared
 
 
      Cartesian coordinates in Angstrom:
      -----------------------------------------------------
      No.  Label        X            Y            Z        
      -----------------------------------------------------
       1   H1         0.00000000   0.00000000   0.00000000
       2   LI2        0.00000000   0.00000000   2.60000000
      -----------------------------------------------------
      Nuclear repulsion energy =    0.61058909
 
++    Wave function specifications:
      -----------------------------
 
      Number of closed shell electrons           2
      Number of electrons in active shells       2
      Max number of holes in RAS1 space          0
      Max nr of electrons in RAS3 space          0
      Number of inactive orbitals                1
      Number of active orbitals                  2
      Number of secondary orbitals               3
      Spin quantum number                      0.0
      State symmetry                             1
--
 
++    Orbital specifications:
      -----------------------
 
      Symmetry species                           1
                                                 a
      Frozen orbitals                            0
      Inactive orbitals                          1
      Active orbitals                            2
      RAS1 orbitals                              0
      RAS2 orbitals                              2
      RAS3 orbitals                              0
      Secondary orbitals                         3
      Deleted orbitals                           0
      Number of basis functions                  6
--
 
++    CI expansion specifications:
      ----------------------------
 
      Number of CSFs                             3
      Number of determinants                     3
      Number of root(s) required                 1
      Root chosen for geometry opt.              1
      CI root used                               1
         
      highest root included in the CI            1
      max. size of the explicit Hamiltonian      3
--
 
++    Optimization specifications:
      ----------------------------
 
      RASSCF algorithm: Conventional
      Maximum number of macro iterations       200
      Maximum number of SX iterations          100
      Threshold for RASSCF energy            1.000E-08
      Threshold for max MO rotation          1.000E-01
      Threshold for max BLB element          1.000E-04
      Level shift parameter                  5.000E-01
      Make Quasi-Newton update
--
 
      The MO-coefficients are taken from the file:
      /home/grierjones/DDCASPT2/delta_ML/HLi/2.50/2.50.RasOrb                                                                                                                                                                                                         
      Title: RASSCF average (pseudo-natural) orbitals                                      
 
      Total molecular charge    0.00
 
      ************************************************************************************************************************
      *                                                                                                                      *
      *                                            Wave function control section                                             *
      *                                                                                                                      *
      ************************************************************************************************************************
 
 
                                         RASSCF iterations: Energy and convergence statistics
                                         ----------------------------------------------------
 
      Iter CI   SX   CI       RASSCF       Energy    max ROT     max BLB   max BLB  Level Ln srch  Step   QN   Walltime
          iter iter root      energy       change     param      element    value   shift minimum  type update hh:mm:ss
 Nr of preliminary CI iterations:   1
        1   1    4    1    -7.96146170    0.00E+00   2.02E-03    2   6 1  1.86E-03*  0.27   0.00    SX    NO    0:00:00
        2   1    4    1    -7.96146962   -7.92E-06*  2.34E-03    2   6 1  1.38E-03*  0.27   0.00    SX    NO    0:00:00
        3   1    4    1    -7.96147510   -5.48E-06*  2.22E-03    2   6 1  1.12E-03*  0.27   0.00    SX    NO    0:00:00
        4   1    4    1    -7.96147912   -4.02E-06*  1.98E-03    2   6 1  9.39E-04*  0.27   0.00    SX    NO    0:00:00
        5   1    3    1    -7.96148209   -2.97E-06*  1.20E-02    2   6 1  8.00E-04*  0.27   2.50    QN   YES    0:00:00
        6   1    3    1    -7.96149048   -8.39E-06* -2.50E-04    3   6 1 -1.32E-05   0.27   1.02    QN   YES    0:00:00
        7   1    3    1    -7.96149048   -3.17E-09   2.43E-05    1   6 1  7.32E-06   0.27   1.08    QN   YES    0:00:00
      Convergence after  7 iterations
        8   1    3    1    -7.96149048   -1.26E-10   2.43E-05    2   6 1 -1.54E-06   0.27   1.08    QN   YES    0:00:00
 
      ************************************************************************************************************************
                                                      Wave function printout:
                       occupation of active orbitals, and spin coupling of open shells (u,d: Spin up or down)
      ************************************************************************************************************************
 
      Note: transformation to natural orbitals
      has been made, which may change the order of the CSFs.
 
      printout of CI-coefficients larger than  0.05 for root  1
      energy=      -7.961490
      conf/sym  11     Coeff  Weight
             1  20   0.95044 0.90334
             3  02  -0.31090 0.09666
 
      Natural orbitals and occupation numbers for root  1
      sym 1:   1.806680   0.193320
 
      ************************************************************************************************************************
      *                                                                                                                      *
      *                                                    Final results                                                     *
      *                                                                                                                      *
      ************************************************************************************************************************
 
 
++    Wave function specifications:
      -----------------------------
 
      Number of closed shell electrons           2
      Number of electrons in active shells       2
      Max number of holes in RAS1 space          0
      Max nr of electrons in RAS3 space          0
      Number of inactive orbitals                1
      Number of active orbitals                  2
      Number of secondary orbitals               3
      Spin quantum number                      0.0
      State symmetry                             1
--
 
++    Orbital specifications:
      -----------------------
 
      Symmetry species                           1
                                                 a
      Frozen orbitals                            0
      Inactive orbitals                          1
      Active orbitals                            2
      RAS1 orbitals                              0
      RAS2 orbitals                              2
      RAS3 orbitals                              0
      Secondary orbitals                         3
      Deleted orbitals                           0
      Number of basis functions                  6
--
 
++    CI expansion specifications:
      ----------------------------
 
      Number of CSFs                             3
      Number of determinants                     3
      Number of root(s) required                 1
      CI root used                               1
      highest root included in the CI            1
      Root passed to geometry opt.               1
--
 
++    Final optimization conditions:
      ------------------------------
 
      Average CI energy                              -7.96149048
      RASSCF energy for state  1                     -7.96149048
      Super-CI energy                                -0.00000000
      RASSCF energy change                           -0.00000000
      Max change in MO coefficients               2.459E-05
      Max non-diagonal density matrix element     2.430E-05
      Maximum BLB matrix element                 -1.541E-06
      (orbital pair   2,   6 in symmetry   1)
      Norm of electronic gradient            2.018E-06
--
 
 
      Final state energy(ies):
      ------------------------
 
::    RASSCF root number  1 Total energy:     -7.96149048
 
++    Molecular orbitals:
      -------------------
 
      Pseudonatural active orbitals and approximate occupation numbers
 
 
 
 
      Molecular orbitals for symmetry species 1: a  
 
 
      Orbital                 1         2         3         4         5         6
      Energy            -2.4975   -0.2352   -0.0089    0.0587    0.0587    0.0741
      Occ. No.           2.0000    1.8067    0.1933    0.0000    0.0000    0.0000
 
     1 H1     1s         0.0016   -0.6274   -0.8818    0.0000    0.0000    0.3361
     2 LI2    1s         0.9999    0.0171    0.0034   -0.0000   -0.0000   -0.0103
     3 LI2    2s         0.0129   -0.5199    0.8600    0.0000    0.0000    0.2806
     4 LI2    2px       -0.0000   -0.0000    0.0000   -0.0507   -0.9987    0.0000
     5 LI2    2py        0.0000   -0.0000    0.0000   -0.9987    0.0507    0.0000
     6 LI2    2pz        0.0016    0.2290   -0.3447    0.0000    0.0000    1.0118
--
 
      Von Neumann Entropy (Root   1) =  0.45832
 

      Mulliken population analysis for root number:  1
      -----------------------------------------------
 
 
++    Molecular charges:
      ------------------
 
      Mulliken charges per centre and basis function type
      ---------------------------------------------------
 
                H1      LI2   
      1s       1.0559  1.9999
      2s       0.0000  0.7482
      2px      0.0000  0.0000
      2pz      0.0000  0.1960
      2py      0.0000  0.0000
      Total    1.0559  2.9441
 
      N-E     -0.0559  0.0559
 
      Total electronic charge=    4.000000
 
      Total            charge=   -0.000000
--
 
 

      Expectation values of various properties for root number:  1
      -----------------------------------------------------------
 
 
++    Molecular properties:
      ---------------------
 
      Charge (e):
                      =   -0.0000
      Dipole Moment (Debye):
      Origin of the operator (Ang)=    0.0000    0.0000    0.0000
                   X= -5.6466E-13               Y= -1.8404E-12               Z=  5.5568E+00           Total=  5.5568E+00
      Quadrupole Moment (Debye*Ang):
      Origin of the operator (Ang)=    0.0000    0.0000    2.2734
                  XX= -8.4811E+00              XY= -1.3869E-25              XZ=  1.6120E-13              YY= -8.4811E+00
                  YZ=  5.7722E-13              ZZ= -1.0756E+01
      In traceless form (Debye*Ang)
                  XX=  1.1374E+00              XY= -2.0803E-25              XZ=  2.4180E-13              YY=  1.1374E+00
                  YZ=  8.6583E-13              ZZ= -2.2747E+00
--
 

      LoProp population analysis for root number:  1
      -----------------------------------------------
 
 
++    LoProp analysis:
      ----------------
 
 
 
      Input file to MOLDEN was generated!
 
 
++    Static properties:
      ------------------
 
 
      LoProp Charges per center
 

                   H1       LI2   
      Nuclear      1.0000   3.0000
      Electronic  -1.1808  -2.8192
 
      Total       -0.1808   0.1808
--
 
 
      Natural Bond Order analysis for root number:  1
 
++    Natural Bond Order analysis
      ---------------------------
      Based on LoProp computed density
      -------------------------------------------------------------------------------------
      Atom A       Atom B       Bond Order
      -------------------------------------------------------------------------------------
      NBO located      1.000 non-bonded electrons on atom LI2       
      The remaining    1.195 electrons are to be considered as diffuse
--
 
--
 
 
      Input file to MOLDEN was generated!
 
      Average orbitals are written to the RASORB file
      Natural orbitals for root   1 are written to the RASORB.1 file
      Spin density orbitals for root   1 are written to the SPDORB.1 file
 
--- Stop Module: rasscf at Thu Apr 25 13:59:32 2024 /rc=_RC_ALL_IS_WELL_ ---
*** files: 2.60.LprOrb 2.60.rasscf.molden 2.60.LoProp.molden 2.60.RasOrb 2.60.RasOrb.1 2.60.rasscf.h5 2.60.SpdOrb.1 xmldump
    saved to directory /home/grierjones/DDCASPT2/delta_ML/HLi/2.60

*** symbolic link created: INPORB -> 2.60.RasOrb
--- Start Module: caspt2 at Thu Apr 25 13:59:32 2024 ---
 
()()()()()()()()()()()()()()()()()()()()()()()()()()()()()()()()()()()()()()()()()()()()()()()()()()

                                              &CASPT2

                                   only a single process is used
                       available to each process: 2.0 GB of memory, 1 thread?
                                            pid: 111876
()()()()()()()()()()()()()()()()()()()()()()()()()()()()()()()()()()()()()()()()()()()()()()()()()()
 
 ###############################################################################
 ###############################################################################
 ###                                                                         ###
 ###                                                                         ###
 ###    WARNING: User changed nr of frozen orbitals.                         ###
 ###                                                                         ###
 ###                                                                         ###
 ###############################################################################
 ###############################################################################
 
++    Wave function specifications:
      -----------------------------
 
      Number of closed shell electrons           2
      Number of electrons in active shells       2
      Max number of holes in RAS1 space          0
      Max number of electrons in RAS3 space      0
      Number of inactive orbitals                1
      Number of active orbitals                  2
      Number of secondary orbitals               3
      Spin quantum number                      0.0
      State symmetry                             1
      Number of CSFs                             3
      Number of CASSCF root(s) available         1
      CASPT2 state passed to geometry opt.       1
      A file JOBMIX will be created
      This is a CASSCF or RASSCF reference function
--
 
++    Orbital specifications:
      -----------------------
 
      Symmetry species                           1
                                                 a
      Frozen orbitals                            0
      Inactive orbitals                          1
      Active orbitals                            2
      Secondary orbitals                         3
      Deleted orbitals                           0
      Number of basis functions                  6
--
 
++    CASPT2 specifications:
      ----------------------
 
      Type of calculation                        SS-CASPT2
      Fock operator                              state-specific
      IPEA shift                                 0.25
      Real shift                                 0.00
      Imaginary shift                            0.00
      The input orbitals will be transformed to quasi-canonical
--
 
--------------------------------------------------------------------------------
 Estimated memory requirements:
  POLY3 :                   250070
  RHS:                      250156
  SIGMA :                   250096
  PRPCTL:                        0
 Available workspace:    230392812
 
++ CASPT2 computation for group   1
 
********************************************************************************
 Multi-State initialization phase begins for group   1
--------------------------------------------------------------------------------
********************************************************************************
 Compute H0 matrices for state    1
--------------------------------------------------------------------------------
--------------------------------------------------------------------------------
 H0 matrices have been computed.
 
********************************************************************************
  CASPT2 EQUATION SOLUTION
--------------------------------------------------------------------------------
 
  Total nr of CASPT2 parameters:
   Before reduction:         110
   After  reduction:          57
 
 Variance of |WF0>:       0.0002921334
 
 The contributions to the second order correlation energy in atomic units.
-----------------------------------------------------------------------------------------------------------------------------
  IT.      VJTU        VJTI        ATVX        AIVX        VJAI        BVAT        BJAT        BJAI        TOTAL       RNORM  
-----------------------------------------------------------------------------------------------------------------------------
   1    -0.000000   -0.000008   -0.000000   -0.000001   -0.000002   -0.000212   -0.000019   -0.000010   -0.000253    0.000178
   2    -0.000000   -0.000008   -0.000000   -0.000001   -0.000002   -0.000213   -0.000019   -0.000010   -0.000254    0.000018
-----------------------------------------------------------------------------------------------------------------------------
 
  FINAL CASPT2 RESULT:
 
      Reference energy:          -7.9614904832
      E2 (Non-variational):      -0.0002542687
      E2 (Variational):          -0.0002542671
      Total energy:              -7.9617447504
      Residual norm:              0.0000008283
      Reference weight:           0.99963
 
      Contributions to the CASPT2 correlation energy
      Active & Virtual Only:         -0.0002131925
      One Inactive Excited:          -0.0000206132
      Two Inactive Excited:          -0.0000204631
 
 
++ Denominators, etc.
--------------------------------------------------------------------------------------------------------------
 Report on small energy denominators, large coefficients, and large energy contributions.
CASE  SYMM ACTIVE-MIX  NON-ACTIVE INDICES          DENOMINATOR     RHS VALUE       COEFFICIENT     CONTRIBUTION
--
 
   (Skipping property calculation,
    use PROP keyword to activate)
--
 
  Total CASPT2 energies:
::    CASPT2 Root  1     Total energy:     -7.96174475
 
  A NEW JOBIPH FILE NAMED 'JOBMIX' IS PREPARED.
********************************************************************************
--- Stop Module: caspt2 at Thu Apr 25 13:59:32 2024 /rc=_RC_ALL_IS_WELL_ ---
*** files: xmldump
    saved to directory /home/grierjones/DDCASPT2/delta_ML/HLi/2.60

.##################.
.# Happy landing! #.
.##################.

    Timing: Wall=2.25 User=1.47 System=0.22
************************************
*** WorkDir at /tmp/2.60 removed ***
************************************
