[Molden Format]
[N_Atoms]
                     2
[Atoms] (AU)
C1          1      6           0.00000000      0.00000000      0.00000000
C2          2      6           0.00000000      0.00000000      2.64561657
[Charge] (Mulliken)
 -8.970602038971265E-014
  8.704148513061227E-014
[GTO] (AU)
   1
   s  14
  5.055750100E+04  1.128874000E-04
  7.524785600E+03  5.295373000E-04
  1.694327600E+03  2.450038300E-03
  4.728227900E+02  1.005398470E-02
  1.517107500E+02  3.545398060E-02
  5.391874600E+01  1.044071086E-01
  2.065931100E+01  2.412894918E-01
  8.383976000E+00  3.834225483E-01
  3.577015000E+00  3.078514393E-01
  1.547118000E+00  6.872442990E-02
  6.130130000E-01  2.224445000E-04
  2.460680000E-01  1.976748900E-03
  9.908700000E-02  2.057859400E-03
  3.468000000E-02  4.182020000E-04
   s  14
  5.055750100E+04 -2.507420000E-05
  7.524785600E+03 -1.175945000E-04
  1.694327600E+03 -5.456275000E-04
  4.728227900E+02 -2.245077100E-03
  1.517107500E+02 -8.043471800E-03
  5.391874600E+01 -2.442588710E-02
  2.065931100E+01 -6.136791180E-02
  8.383976000E+00 -1.177767835E-01
  3.577015000E+00 -1.550487783E-01
  1.547118000E+00 -1.933316860E-02
  6.130130000E-01  3.996930678E-01
  2.460680000E-01  5.589420949E-01
  9.908700000E-02  1.711195023E-01
  3.468000000E-02  7.456244600E-03
   p   9
  8.333315500E+01  1.344656000E-03
  1.955761100E+01  1.023555500E-02
  6.080365000E+00  4.520067100E-02
  2.179317000E+00  1.410756198E-01
  8.651500000E-01  3.047388085E-01
  3.619440000E-01  3.995281011E-01
  1.547400000E-01  2.719163432E-01
  6.542900000E-02  5.857669330E-02
  2.290000000E-02 -1.263813000E-04
 
   2
   s  14
  5.055750100E+04  1.128874000E-04
  7.524785600E+03  5.295373000E-04
  1.694327600E+03  2.450038300E-03
  4.728227900E+02  1.005398470E-02
  1.517107500E+02  3.545398060E-02
  5.391874600E+01  1.044071086E-01
  2.065931100E+01  2.412894918E-01
  8.383976000E+00  3.834225483E-01
  3.577015000E+00  3.078514393E-01
  1.547118000E+00  6.872442990E-02
  6.130130000E-01  2.224445000E-04
  2.460680000E-01  1.976748900E-03
  9.908700000E-02  2.057859400E-03
  3.468000000E-02  4.182020000E-04
   s  14
  5.055750100E+04 -2.507420000E-05
  7.524785600E+03 -1.175945000E-04
  1.694327600E+03 -5.456275000E-04
  4.728227900E+02 -2.245077100E-03
  1.517107500E+02 -8.043471800E-03
  5.391874600E+01 -2.442588710E-02
  2.065931100E+01 -6.136791180E-02
  8.383976000E+00 -1.177767835E-01
  3.577015000E+00 -1.550487783E-01
  1.547118000E+00 -1.933316860E-02
  6.130130000E-01  3.996930678E-01
  2.460680000E-01  5.589420949E-01
  9.908700000E-02  1.711195023E-01
  3.468000000E-02  7.456244600E-03
   p   9
  8.333315500E+01  1.344656000E-03
  1.955761100E+01  1.023555500E-02
  6.080365000E+00  4.520067100E-02
  2.179317000E+00  1.410756198E-01
  8.651500000E-01  3.047388085E-01
  3.619440000E-01  3.995281011E-01
  1.547400000E-01  2.719163432E-01
  6.542900000E-02  5.857669330E-02
  2.290000000E-02 -1.263813000E-04
 
[MO]
Sym=     1a  
Ene=   -11.3880
Spin= Alpha
Occup=    2.00000
   1         0.70691977
   2        -0.00189116
   3         0.00000000
   4         0.00000000
   5         0.00081532
   6         0.70691977
   7        -0.00189116
   8        -0.00000000
   9        -0.00000000
  10        -0.00081532
Sym=     2a  
Ene=   -11.3870
Spin= Alpha
Occup=    2.00000
   1        -0.70735044
   2         0.00171143
   3         0.00000000
   4         0.00000000
   5        -0.00148508
   6         0.70735045
   7        -0.00171143
   8        -0.00000000
   9        -0.00000000
  10        -0.00148508
Sym=     3a  
Ene=    -0.9926
Spin= Alpha
Occup=    2.00000
   1        -0.03877797
   2         0.50370094
   3         0.00000000
   4         0.00000000
   5         0.20857117
   6        -0.03877797
   7         0.50370094
   8         0.00000000
   9        -0.00000000
  10        -0.20857117
Sym=     4a  
Ene=    -0.4185
Spin= Alpha
Occup=    2.00000
   1         0.00000000
   2        -0.00000000
   3        -0.06017779
   4         0.62020701
   5         0.00000000
   6        -0.00000000
   7         0.00000000
   8        -0.06017779
   9         0.62020701
  10         0.00000000
Sym=     5a  
Ene=    -0.4185
Spin= Alpha
Occup=    2.00000
   1         0.00000000
   2        -0.00000000
   3         0.62020701
   4         0.06017779
   5        -0.00000000
   6         0.00000000
   7        -0.00000000
   8         0.62020701
   9         0.06017779
  10         0.00000000
Sym=     6a  
Ene=    -0.4905
Spin= Alpha
Occup=    1.69053
   1        -0.01084870
   2        -0.68336268
   3        -0.00000000
   4        -0.00000000
   5         0.27691301
   6         0.01084870
   7         0.68336268
   8         0.00000000
   9        -0.00000000
  10         0.27691301
Sym=     7a  
Ene=     0.0000
Spin= Alpha
Occup=    0.30947
   1         0.03615927
   2         0.38151200
   3        -0.00000000
   4        -0.00000000
   5        -0.63267701
   6         0.03615927
   7         0.38151200
   8         0.00000000
   9        -0.00000000
  10         0.63267701
Sym=     8a  
Ene=     0.1613
Spin= Alpha
Occup=    0.00000
   1        -0.00000000
   2        -0.00000000
   3         0.31243039
   4        -0.77741555
   5         0.00000000
   6         0.00000000
   7         0.00000000
   8        -0.31243039
   9         0.77741555
  10         0.00000000
Sym=     9a  
Ene=     0.1613
Spin= Alpha
Occup=    0.00000
   1        -0.00000000
   2         0.00000000
   3        -0.77741555
   4        -0.31243039
   5         0.00000000
   6         0.00000000
   7         0.00000000
   8         0.77741555
   9         0.31243039
  10        -0.00000000
Sym=    10a  
Ene=     0.7219
Spin= Alpha
Occup=    0.00000
   1        -0.13498635
   2        -1.01503530
   3        -0.00000000
   4         0.00000000
   5        -1.07297259
   6         0.13498635
   7         1.01503530
   8        -0.00000000
   9         0.00000000
  10        -1.07297259
