   This run of MOLCAS is using the pymolcas driver

                             OPE
                             OPE          NMOL  CASOP  ENMOLC A   SO
                 OPE        NMOLC        AS  OP EN  MO LC     AS  OP
                OPENM       OL CA        SO  PE NM  OL CA     SOP EN
                OP EN      MO   LC       AS  OP ENMOL  CASO   PENMOL
                OP  EN     MO   LC       AS  OP EN     MO     LC ASO
               OP   E  NMOL  C  AS       OP  EN MO     LC     AS  OP
               OP  E   NMO   LC AS        OPEN  MO     LCASOP EN   M
               O  PEN   MO  LCA  SO
            OPE   NMO   L   CAS    OP
        OPENMOL  CASOP     ENMOL   CASOPE
     OPENMOLCA   SOPENMOLCASOPEN   MOLCASOPE
    OPENMOLCAS   OP           EN   MOL    CAS
    OPENMOLCAS       OP  ENM        O     LCA
    OPENMOLCAS    OPEN  MOLCASO     P  E  NMO
    OPENMOLCAS     OP               E  N  MOL
    OPENMOLCA   SO           PENM   O  L  CAS    OPEN    MO    LCAS
    OPENMOLCA   SOP           ENM   O  L  CAS   OP  EN  MOLC  AS   O
    OPENMOLCA   SOPE           NM      O  LCA   S      OP  EN MO
    OPENMOLC                AS         O  PEN   M      OL  CA  SOPE
    OPENMO        LCASOPE  NMOL        C  ASO   P      ENMOLC     AS
    OPE     NMO      LCA  SO     P     E   NM   OL  CA SO  PE N   MO
          OPENMOLCA            SOPE   NMO        LCAS  O    P  ENMO
     OPENMOLCASOPENMOLCASOPENMOLCASOPENMOLCA
        OPENMOLCASOPENMOLCASOPENMOLCASOPE
            OPENMOLCASOPENMOLCASOPENM
               OPENMOLCASOPENMOLCA        version: ea724fe96-dirty
                   OPENMOLCASO
                       OPE                tag:

 OpenMolcas is free software; you can redistribute it and/or modify it
 under the terms of the GNU Lesser General Public License version 2.1.
 OpenMolcas is distributed in the hope that it will be useful, but it
 is provided "as is" and without any express or implied warranties.
 For more details see the full text of the license in the file
 LICENSE or in <http://www.gnu.org/licenses/>.

                 Copyright (C) The OpenMolcas Authors
           For the author list and the recommended citation,
                   consult the file CONTRIBUTORS.md

           *************************************************
           * pymolcas version py2.28                       *
           *   build c4a6d18ded8cb6cad61d2372a9abd97c      *
           *   (after the EMIL interpreter by V. Veryazov) *
           *************************************************

configuration info
------------------
C Compiler ID: Intel
C flags: -std=gnu99
Fortran Compiler ID: Intel
Fortran flags: -fpp -i8 -r8 -heap-arrays
Definitions: _MOLCAS_;_I8_;_LINUX_
Parallel: OFF (GA=OFF)


   --------------------------------------------------------------------------------
  |
  |              Project: H4_0.99
  |       Submitted from: /home/grierjones/DDCASPT2/hydrogen_comps/H4_chain/H4_0.99
  |         Scratch area: /tmp/H4_0.99
  |      Save outputs to: /home/grierjones/DDCASPT2/hydrogen_comps/H4_chain/H4_0.99
  |               Molcas: /home/grierjones/Test/build
  |
  | Scratch area is empty
  |
  |       MOLCAS_DRIVER = /usr/local/pymolcas
  | MOLCAS_KEEP_WORKDIR = NO
  |  MOLCAS_NEW_WORKDIR = YES
  |       MOLCAS_NPROCS = 1
  |        MOLCAS_PRINT = NORMAL
  |       MOLCAS_SOURCE = /home/grierjones/Test/build
  |    MOLCAS_STRUCTURE = 0
  |
   --------------------------------------------------------------------------------

++ ---------   Input file   ---------

&GATEWAY
coord=H4_0.99.xyz
Basis = ANO-RCC-VDZP
Group = nosymm
Expert
End of Input

&SEWARD
End of Input

&SCF

>>> COPY $WorkDir/H4_0.99.scf.h5 $CurrDir/

&RASSCF
Title= RASSCF
FileOrb
/home/grierjones/DDCASPT2/hydrogen_comps/H4_chain/H4_0.96/H4_0.96.RasOrb
NACTEL
4 0 0
Inactive
0
RAS2
4
Symmetry
1
Spin
1
orblisting
all
ITERation
200 100
CIMX
200
SDAV
500

>>> COPY $WorkDir/H4_0.99.rasscf.h5 $CurrDir/

>>> COPY $WorkDir/GMJ_Fock_MO.csv $CurrDir/H4_0.99.GMJ_Fock_MO.csv

>>> COPY $WorkDir/GMJ_PT2_Fock_MO.csv $CurrDir/H4_0.99.GMJ_PT2_Fock_MO.csv

&MOTRA
Frozen=0
LUMORB

>>> COPY $WorkDir/GMJ_one_int_indx.csv $CurrDir/H4_0.99.GMJ_one_int_indx.csv

>>> COPY $WorkDir/GMJ_one_int.csv $CurrDir/H4_0.99.GMJ_one_int.csv

>>> COPY $WorkDir/GMJ_two_int_indx.csv $CurrDir/H4_0.99.GMJ_two_int_indx.csv

>>> COPY $WorkDir/GMJ_two_int.csv $CurrDir/H4_0.99.GMJ_two_int.csv

&CASPT2
Frozen
0

>>> FOREACH i IN (B,E,F,G,H)

  >>> FOREACH j IN (P,M)

    >>> IF (-FILE GMJ_e2_${i}_${j}.csv)

      >>> COPY $WorkDir/GMJ_RHS_${i}_${j}.csv $CurrDir/GMJ_RHS_${i}_${j}.csv

      >>> COPY $WorkDir/GMJ_IVECW_${i}_${j}.csv $CurrDir/GMJ_IVECW_${i}_${j}.csv

      >>> COPY $WorkDir/GMJ_IVECX_${i}_${j}.csv $CurrDir/GMJ_IVECX_${i}_${j}.csv

      >>> COPY $WorkDir/GMJ_IVECC2_${i}_${j}.csv $CurrDir/GMJ_IVECC2_${i}_${j}.csv

      >>> COPY $WorkDir/GMJ_e2_${i}_${j}.csv $CurrDir/GMJ_e2_${i}_${j}.csv

    >>> END IF

  >>> END FOREACH

>>> END FOREACH

>>> FOREACH i IN (A,C,D)

  >>> IF (-FILE GMJ_e2_$i.csv)

    >>> COPY $WorkDir/GMJ_RHS_$i.csv $CurrDir/GMJ_RHS_$i.csv

    >>> COPY $WorkDir/GMJ_IVECW_$i.csv $CurrDir/GMJ_IVECW_$i.csv

    >>> COPY $WorkDir/GMJ_IVECX_$i.csv $CurrDir/GMJ_IVECX_$i.csv

    >>> COPY $WorkDir/GMJ_IVECC2_$i.csv $CurrDir/GMJ_IVECC2_$i.csv

    >>> COPY $WorkDir/GMJ_e2_$i.csv $CurrDir/GMJ_e2_$i.csv

  >>> END IF

>>> END FOREACH

-- ----------------------------------

--- Start Module: gateway at Tue Nov 12 16:12:30 2024 ---
 
()()()()()()()()()()()()()()()()()()()()()()()()()()()()()()()()()()()()()()()()()()()()()()()()()()

                                              &GATEWAY

                                   only a single process is used
                       available to each process: 2.0 GB of memory, 1 thread?
()()()()()()()()()()()()()()()()()()()()()()()()()()()()()()()()()()()()()()()()()()()()()()()()()()
 
 ###############################################################################
 ###############################################################################
 ###                                                                         ###
 ###                                                                         ###
 ###                                                                         ###
 ###    WARNING: EXPERT option is ON!                                        ###
 ###                                                                         ###
 ###                                                                         ###
 ###############################################################################
 ###############################################################################
 
++    Symmetry information:
      ---------------------
 
                    Character Table for C1 
 
                             E  
                    a        1  x, y, xy, Rz, z, xz, Ry, yz, Rx, I
--
 
 
++    Basis set information:
      ----------------------
 
 
      Basis set label: H.ANO-RCC...2S1P.
 
      Electronic valence basis set:
      ------------------
      Associated Effective Charge   1.000000 au
      Associated Actual Charge      1.000000 au
      Nuclear Model: Point charge
 
      Shell  nPrim  nBasis  Cartesian Spherical Contaminant
         s       8       2        X                  
         p       4       1        X                  
--
 
 
++    Molecular structure info:
      -------------------------
 
                    ************************************************ 
                    **** Cartesian Coordinates / Bohr, Angstrom **** 
                    ************************************************ 
 
     Center  Label                x              y              z                     x              y              z
        1      H1               0.000000       0.000000       0.000000              0.000000       0.000000       0.000000
        2      H2               0.000000       0.000000       1.866821              0.000000       0.000000       0.987879
        3      H3               0.000000       0.000000       3.733642              0.000000       0.000000       1.975758
        4      H4               0.000000       0.000000       5.600460              0.000000       0.000000       2.963636
 
                    *************************************** 
                    *    InterNuclear Distances / Bohr    * 
                    *************************************** 
 
               1 H1            2 H2            3 H3            4 H4    
    1 H1       0.000000
    2 H2       1.866821        0.000000
    3 H3       3.733642        1.866821        0.000000
    4 H4       5.600460        3.733640        1.866819        0.000000
 
                    ******************************************* 
                    *    InterNuclear Distances / Angstrom    * 
                    ******************************************* 
 
               1 H1            2 H2            3 H3            4 H4    
    1 H1       0.000000
    2 H2       0.987879        0.000000
    3 H3       1.975758        0.987879        0.000000
    4 H4       2.963636        1.975757        0.987878        0.000000
 
                    ************************************** 
                    *    Valence Bond Angles / Degree    * 
                    ************************************** 
                          Atom centers                 Phi
                      1 H1       2 H2       3 H3       180.00
                      2 H2       3 H3       4 H4       180.00
--
 
 
            Nuclear Potential Energy              2.32123770 au
 
 ###############################################################################
 ###############################################################################
 ###                                                                         ###
 ###                                                                         ###
 ###    There were warnings during the execution                             ###
 ###    Please, check the output with care!                                  ###
 ###                                                                         ###
 ###                                                                         ###
 ###############################################################################
 ###############################################################################
--- Stop Module: gateway at Tue Nov 12 16:12:30 2024 /rc=_RC_ALL_IS_WELL_ ---
*** files: xmldump
    saved to directory /home/grierjones/DDCASPT2/hydrogen_comps/H4_chain/H4_0.99

--- Start Module: seward at Tue Nov 12 16:12:30 2024 ---
 
()()()()()()()()()()()()()()()()()()()()()()()()()()()()()()()()()()()()()()()()()()()()()()()()()()

                                              &SEWARD

                                   only a single process is used
                       available to each process: 2.0 GB of memory, 1 thread?
()()()()()()()()()()()()()()()()()()()()()()()()()()()()()()()()()()()()()()()()()()()()()()()()()()
 
 ###############################################################################
 ###############################################################################
 ###                                                                         ###
 ###                                                                         ###
 ###                                                                         ###
 ###    WARNING: EXPERT option is ON!                                        ###
 ###                                                                         ###
 ###                                                                         ###
 ###############################################################################
 ###############################################################################
               SEWARD will generate:
                  Multipole Moment integrals up to order  2
                  Kinetic Energy integrals
                  Nuclear Attraction integrals (point charge)
                  One-Electron Hamiltonian integrals
                  Velocity integrals
                  Relativistic Douglas-Kroll-Hess integrals:
                    - Parametrization         : EXP
                    - DKH order of Hamiltonian: 2
                    - DKH order of Properties : 0
                         - multipole moment operators
                         - electric potential operators
                         - contact operators
                  Atomic mean-field integrals
                  Two-Electron Repulsion integrals
 
                   Integrals are discarded if absolute value <: 0.10E-13
                   Integral cutoff threshold is set to       <: 0.10E-15
 
            Nuclear Potential Energy              2.32123770 au
 
 
      Basis set specifications :
      Symmetry species         a  
      Basis functions           20
 
 
  Input file to MOLDEN was generated!
 
 ###############################################################################
 ###############################################################################
 ###                                                                         ###
 ###                                                                         ###
 ###    There were warnings during the execution                             ###
 ###    Please, check the output with care!                                  ###
 ###                                                                         ###
 ###                                                                         ###
 ###############################################################################
 ###############################################################################
--- Stop Module: seward at Tue Nov 12 16:12:30 2024 /rc=_RC_ALL_IS_WELL_ ---
*** files: H4_0.99.GssOrb H4_0.99.guessorb.h5 H4_0.99.guessorb.molden xmldump
    saved to directory /home/grierjones/DDCASPT2/hydrogen_comps/H4_chain/H4_0.99

*** symbolic link created: INPORB -> H4_0.99.GssOrb
--- Start Module: scf at Tue Nov 12 16:12:30 2024 ---
 
()()()()()()()()()()()()()()()()()()()()()()()()()()()()()()()()()()()()()()()()()()()()()()()()()()

                                                &SCF

                                   only a single process is used
                       available to each process: 2.0 GB of memory, 1 thread?
()()()()()()()()()()()()()()()()()()()()()()()()()()()()()()()()()()()()()()()()()()()()()()()()()()
 
++    Input section:
      --------------
 
      Header of the integral files:
      
       Integrals generated by seward 4.2.0  , Tue Nov 12 16:12:30 2024
 
 
      Cartesian coordinates in Angstrom:
      -----------------------------------------------------
      No.  Label        X            Y            Z        
      -----------------------------------------------------
       1   H1         0.00000000   0.00000000   0.00000000
       2   H2         0.00000000   0.00000000   0.98787900
       3   H3         0.00000000   0.00000000   1.97575800
       4   H4         0.00000000   0.00000000   2.96363600
      -----------------------------------------------------
      Nuclear repulsion energy =    2.32123770
--
 
++    Orbital specifications:
      -----------------------
 
      Symmetry species               1
                                     a
      Frozen orbitals                0
      Occupied orbitals              2
      Secondary orbitals            18
      Deleted orbitals               0
      Total number of orbitals      20
      Number of basis functions     20
--
 
      Molecular charge                           0.000
 
++    Optimization specifications:
      ----------------------------
 
      SCF Algorithm: Conventional
      Minimized density differences are used
      Number of density matrices in core                5
      Maximum number of NDDO SCF iterations           400
      Maximum number of HF SCF iterations             400
      Threshold for SCF energy change            0.10E-08
      Threshold for density matrix               0.10E-03
      Threshold for Fock matrix                  0.15E-03
      Threshold for linear dependence            0.10E-08
      Threshold at which DIIS is turned on       0.15E+00
      Threshold at which QNR/C2DIIS is turned on 0.75E-01
      Threshold for Norm(delta) (QNR/C2DIIS)     0.20E-04
      DIIS extrapolation of the SCF procedure
      All orbitals punched on: SCFORB
--
 
      Input vectors read from INPORB
      Orbital file label: *Guess orbitals
 
 
++ Convergence information
                                   SCF        iterations: Energy and convergence statistics
 
Iter     Tot. SCF        One-elec.       Two-elec.     Energy      Max Dij or  Max Fij      DNorm      TNorm      AccCon     Time
         Energy          Energy          Energy        Change      Delta Norm                                                in Sec.
   1    -2.131501396    -6.654403716     2.201664623   0.00E+00    0.18E+00*   0.10E+00*    0.24E+01   0.68E+01   None         0.
   2    -2.171331599    -6.780019687     2.287450390  -0.40E-01*   0.26E-01*   0.12E-01*    0.96E+00   0.70E+01   EDIIS        0.
   3    -2.172229949    -6.775475911     2.282008265  -0.90E-03*   0.24E-02*   0.35E-02*    0.84E-01   0.70E+01   c2DIIS       0.
   4    -2.172276768    -6.775702548     2.282188082  -0.47E-04*   0.47E-03*   0.25E-03*    0.13E-01   0.70E+01   QNRc2DIIS    0.
   5    -2.172277270    -6.775676167     2.282161199  -0.50E-06*   0.23E-03*   0.76E-04     0.92E-03   0.70E+01   QNRc2DIIS    0.
   6    -2.172277333    -6.775690407     2.282175377  -0.63E-07*   0.83E-05    0.51E-05     0.21E-03   0.70E+01   QNRc2DIIS    0.
   7    -2.172277333    -6.775690526     2.282175495  -0.14E-09    0.16E-05    0.77E-06     0.23E-04   0.70E+01   QNRc2DIIS    0.
 
       Convergence after  7 Macro Iterations
--
 
 *****************************************************************************************************************************
 *                                                                                                                           *
 *                                             SCF/KS-DFT Program, Final results                                             *
 *                                                                                                                           *
 *                                                                                                                           *
 *                                                                                                                           *
 *                                                       Final Results                                                       *
 *                                                                                                                           *
 *****************************************************************************************************************************
 
::    Total SCF energy                                 -2.1722773330
      One-electron energy                              -6.7756905258
      Two-electron energy                               2.2821754953
      Nuclear repulsion energy                          2.3212376975
      Kinetic energy (interpolated)                     1.9760762883
      Virial theorem                                    1.0992881934
      Total spin, S(S+1)                                0.0000000000
      Total spin, S                                     0.0000000000
      Max non-diagonal density matrix element           0.0000021754
      Max non-diagonal Fock matrix element              0.0000002688
 
 
      All orbitals with orbital energies smaller than  E(LUMO)+0.5 are printed
 
++    Molecular orbitals:
      -------------------
 
      Title: SCF orbitals

      Molecular orbitals for symmetry species 1: a  
 
          Orbital            1         2         3         4         5    
          Energy           -0.6656   -0.4401    0.0806    0.2561    0.2646
          Occ. No.          2.0000    2.0000    0.0000    0.0000    0.0000
 
        1 H1     1s         0.3088   -0.4727    0.9982   -1.2389   -0.6744
        2 H1     2s         0.0119   -0.0119    0.6400   -1.2699    0.0070
        3 H1     2px        0.0000   -0.0000    0.0000   -0.0000    0.0000
        4 H1     2py        0.0000    0.0000    0.0000    0.0000    0.0000
        5 H1     2pz        0.0269   -0.0154   -0.0052   -0.0551   -0.0126
        6 H2     1s         0.3772   -0.4776   -0.7844    2.0330    0.3365
        7 H2     2s        -0.0602   -0.1188   -0.3352    1.2746    0.5529
        8 H2     2px        0.0000   -0.0000    0.0000   -0.0000    0.0000
        9 H2     2py        0.0000    0.0000    0.0000   -0.0000    0.0000
       10 H2     2pz        0.0063    0.0411   -0.0074   -0.1291    0.0203
       11 H3     1s         0.3772    0.4776   -0.7844   -2.0330    0.3365
       12 H3     2s        -0.0602    0.1188   -0.3352   -1.2746    0.5529
       13 H3     2px        0.0000   -0.0000    0.0000   -0.0000    0.0000
       14 H3     2py        0.0000   -0.0000    0.0000   -0.0000    0.0000
       15 H3     2pz       -0.0063    0.0411    0.0074   -0.1291   -0.0203
       16 H4     1s         0.3088    0.4727    0.9982    1.2389   -0.6744
       17 H4     2s         0.0119    0.0119    0.6400    1.2699    0.0070
       18 H4     2px        0.0000   -0.0000    0.0000   -0.0000    0.0000
       19 H4     2py        0.0000   -0.0000    0.0000   -0.0000    0.0000
       20 H4     2pz       -0.0269   -0.0154    0.0052   -0.0551    0.0126
--
 
 
++    Molecular charges:
      ------------------
 
      Mulliken charges per centre and basis function type
      ---------------------------------------------------
 
                H1      H2      H3      H4    
      1s       0.9775  0.9980  0.9980  0.9775
      2s       0.0032 -0.0530 -0.0530  0.0032
      2px      0.0000  0.0000  0.0000  0.0000
      2pz      0.0215  0.0528  0.0528  0.0215
      2py      0.0000  0.0000  0.0000  0.0000
      Total    1.0022  0.9978  0.9978  1.0022
 
      N-E     -0.0022  0.0022  0.0022 -0.0022
 
      Total electronic charge=    4.000000
 
      Total            charge=   -0.000000
--
 
 
  Input file to MOLDEN was generated!
 
 
++    Static properties:
      ------------------
 
 
      LoProp Charges per center
 

                   H1       H2       H3       H4    
      Nuclear      1.0000   1.0000   1.0000   1.0000
      Electronic  -1.0127  -0.9873  -0.9873  -1.0127
 
      Total       -0.0127   0.0127   0.0127  -0.0127
--
 
 
++    Natural Bond Order analysis
      ---------------------------
      Based on LoProp computed density
      -------------------------------------------------------------------------------------
      Atom A       Atom B       Bond Order | Atom A       Atom B       Bond Order
        H1           H2             0.996  |   H3           H4             0.996
      -------------------------------------------------------------------------------------
      NBO located      3.983 electrons involved in    2 bonds.
      The remaining    0.017 electrons are to be considered as diffuse
--
 
 
++    Molecular properties:
      ---------------------
 
      Charge (e):
                      =   -0.0000
      Dipole Moment (Debye):
      Origin of the operator (Ang)=    0.0000    0.0000    0.0000
                   X= -8.5101E-14               Y= -7.1455E-16               Z=  1.8178E-06           Total=  1.8178E-06
      Quadrupole Moment (Debye*Ang):
      Origin of the operator (Ang)=    0.0000    0.0000    1.4818
                  XX= -4.7233E+00              XY=  8.0049E-30              XZ=  9.8055E-14              YY= -4.7233E+00
                  YZ= -6.5266E-15              ZZ= -3.8043E+00
      In traceless form (Debye*Ang)
                  XX= -4.5954E-01              XY=  1.2007E-29              XZ=  1.4708E-13              YY= -4.5954E-01
                  YZ= -9.7899E-15              ZZ=  9.1907E-01
--
 
 
  Input file to MOLDEN was generated!
 
 ###############################################################################
 ###############################################################################
 ###                                                                         ###
 ###                                                                         ###
 ###    RunFile label nBas                                                   ###
 ###    was used       78 times                                              ###
 ###                                                                         ###
 ###                                                                         ###
 ###############################################################################
 ###############################################################################
--- Stop Module: scf at Tue Nov 12 16:12:30 2024 /rc=_RC_ALL_IS_WELL_ ---
*** files: H4_0.99.LprOrb H4_0.99.LoProp.molden H4_0.99.scf.molden H4_0.99.ScfOrb H4_0.99.scf.h5 xmldump
    saved to directory /home/grierjones/DDCASPT2/hydrogen_comps/H4_chain/H4_0.99

>>> COPY /tmp/H4_0.99/H4_0.99.scf.h5 /home/grierjones/DDCASPT2/hydrogen_comps/H4_chain/H4_0.99/

*** symbolic link created: INPORB -> H4_0.99.ScfOrb
--- Start Module: rasscf at Tue Nov 12 16:12:30 2024 ---
 
()()()()()()()()()()()()()()()()()()()()()()()()()()()()()()()()()()()()()()()()()()()()()()()()()()

                                              &RASSCF

                                   only a single process is used
                       available to each process: 2.0 GB of memory, 1 thread?
()()()()()()()()()()()()()()()()()()()()()()()()()()()()()()()()()()()()()()()()()()()()()()()()()()
 
 
      Header of the ONEINT file:
      --------------------------
      
      Integrals generated by seward 4.2.0  , Tue Nov 12 16:12:30 2024
 
 
      OrdInt status: non-squared
 
 
      Cartesian coordinates in Angstrom:
      -----------------------------------------------------
      No.  Label        X            Y            Z        
      -----------------------------------------------------
       1   H1         0.00000000   0.00000000   0.00000000
       2   H2         0.00000000   0.00000000   0.98787900
       3   H3         0.00000000   0.00000000   1.97575800
       4   H4         0.00000000   0.00000000   2.96363600
      -----------------------------------------------------
      Nuclear repulsion energy =    2.32123770
 
++    Wave function specifications:
      -----------------------------
 
      Number of closed shell electrons           0
      Number of electrons in active shells       4
      Max number of holes in RAS1 space          0
      Max nr of electrons in RAS3 space          0
      Number of inactive orbitals                0
      Number of active orbitals                  4
      Number of secondary orbitals              16
      Spin quantum number                      0.0
      State symmetry                             1
--
 
++    Orbital specifications:
      -----------------------
 
      Symmetry species                           1
                                                 a
      Frozen orbitals                            0
      Inactive orbitals                          0
      Active orbitals                            4
      RAS1 orbitals                              0
      RAS2 orbitals                              4
      RAS3 orbitals                              0
      Secondary orbitals                        16
      Deleted orbitals                           0
      Number of basis functions                 20
--
 
++    CI expansion specifications:
      ----------------------------
 
      Number of CSFs                            20
      Number of determinants                    21
      Number of root(s) required                 1
      Root chosen for geometry opt.              1
      CI root used                               1
         
      highest root included in the CI            1
      max. size of the explicit Hamiltonian     20
--
 
++    Optimization specifications:
      ----------------------------
 
      RASSCF algorithm: Conventional
      Maximum number of macro iterations       200
      Maximum number of SX iterations          100
      Threshold for RASSCF energy            0.100E-07
      Threshold for max MO rotation          0.100E+00
      Threshold for max BLB element          0.100E-03
      Level shift parameter                  0.500E+00
      Make Quasi-Newton update
--
 
      The MO-coefficients are taken from the file:
      /home/grierjones/DDCASPT2/hydrogen_comps/H4_chain/H4_0.96/H4_0.96.RasOrb                                                        
      Title: RASSCF average (pseudo-natural) orbitals                                      
 
      Total molecular charge    0.00
 
      ************************************************************************************************************************
      *                                                                                                                      *
      *                                            Wave function control section                                             *
      *                                                                                                                      *
      ************************************************************************************************************************
 
 
                                         RASSCF iterations: Energy and convergence statistics
                                         ----------------------------------------------------
 
      Iter CI   SX   CI       RASSCF       Energy    max ROT     max BLB   max BLB  Level Ln srch  Step   QN   Walltime
          iter iter root      energy       change     param      element    value   shift minimum  type update hh:mm:ss
 Nr of preliminary CI iterations:   1
        1   1    4    1    -2.22457929    0.00E+00  -0.61E-02    1   5 1  0.10E-01*  0.00   0.00    SX    NO    0:00:00
        2   1    3    1    -2.22468076   -0.10E-03* -0.12E-02    1   5 1  0.17E-02*  0.00   0.00    SX    NO    0:00:00
        3   1    3    1    -2.22468403   -0.33E-05*  0.56E-03    1   5 1  0.32E-03*  0.00   0.00    SX    NO    0:00:00
        4   1    3    1    -2.22468424   -0.21E-06* -0.23E-03    1   9 1 -0.76E-04   0.00   0.00    SX    NO    0:00:00
        5   1    3    1    -2.22468427   -0.26E-07* -0.16E-03    1   9 1 -0.25E-04   0.00   1.69    QN   YES    0:00:00
        6   1    2    1    -2.22468427   -0.60E-08   0.29E-04    1   5 1 -0.48E-05   0.00   1.04    QN   YES    0:00:00
      Convergence after  6 iterations
 
  Dmat in MO in SXCTL bf call to SXHAM                                                                                    
  mat. size =     4x    4
 
        1.9692011519922801
        0.0000000541229050      1.9268052756483121
        0.0016087118896669     -0.0000000802586733      0.0801261840870956
       -0.0000000132002380      0.0011378652227446     -0.0000000454677341      0.0238673882723121
        7   1    2    1    -2.22468427   -0.14E-09   0.29E-04    1   5 1 -0.17E-05   0.00   1.04    QN   YES    0:00:00
 
      ************************************************************************************************************************
                                                      Wave function printout:
                       occupation of active orbitals, and spin coupling of open shells (u,d: Spin up or down)
      ************************************************************************************************************************
 
      Note: transformation to natural orbitals
      has been made, which may change the order of the CSFs.
 
      printout of CI-coefficients larger than  0.05 for root  1
      energy=      -2.224684
      conf/sym  1111     Coeff  Weight
             1  2200   0.97383 0.94835
             6  2020  -0.16413 0.02694
            10  udud   0.11436 0.01308
            12  0220  -0.07042 0.00496
            15  uudd  -0.05052 0.00255
 
      Natural orbitals and occupation numbers for root  1
      sym 1:   1.969203   1.926806   0.080125   0.023867
 
      ************************************************************************************************************************
      *                                                                                                                      *
      *                                                    Final results                                                     *
      *                                                                                                                      *
      ************************************************************************************************************************
 
 
++    Wave function specifications:
      -----------------------------
 
      Number of closed shell electrons           0
      Number of electrons in active shells       4
      Max number of holes in RAS1 space          0
      Max nr of electrons in RAS3 space          0
      Number of inactive orbitals                0
      Number of active orbitals                  4
      Number of secondary orbitals              16
      Spin quantum number                      0.0
      State symmetry                             1
--
 
++    Orbital specifications:
      -----------------------
 
      Symmetry species                           1
                                                 a
      Frozen orbitals                            0
      Inactive orbitals                          0
      Active orbitals                            4
      RAS1 orbitals                              0
      RAS2 orbitals                              4
      RAS3 orbitals                              0
      Secondary orbitals                        16
      Deleted orbitals                           0
      Number of basis functions                 20
--
 
++    CI expansion specifications:
      ----------------------------
 
      Number of CSFs                            20
      Number of determinants                    21
      Number of root(s) required                 1
      CI root used                               1
      highest root included in the CI            1
      Root passed to geometry opt.               1
--
 
++    Final optimization conditions:
      ------------------------------
 
      Average CI energy                              -2.22468427
      RASSCF energy for state  1                     -2.22468427
      Super-CI energy                                -0.00000000
      RASSCF energy change                           -0.00000000
      Max change in MO coefficients               0.801E-04
      Max non-diagonal density matrix element     0.286E-04
      Maximum BLB matrix element                 -0.168E-05
      (orbital pair   1,   5 in symmetry   1)
      Norm of electronic gradient            0.261E-05
--
 
 
      Final state energy(ies):
      ------------------------
 
::    RASSCF root number  1 Total energy:     -2.22468427
 
++    Molecular orbitals:
      -------------------
 
      Pseudonatural active orbitals and approximate occupation numbers
 
 
 
 
      Molecular orbitals for symmetry species 1: a  
 
 
      Orbital                1         2         3         4         5         6         7         8         9        10
      Energy            0.0000    0.0000    0.0000    0.0000    0.2286    0.3596    0.6038    0.6038    0.6645    0.8824
      Occ. No.          1.9692    1.9268    0.0801    0.0239    0.0000    0.0000    0.0000    0.0000    0.0000    0.0000
 
    1 H1     1s         0.3097   -0.4868    0.7432   -0.8866    0.0661    0.6423   -0.0000   -0.0000   -1.6615    0.0000
    2 H1     2s         0.0110   -0.0053   -0.0500   -0.0611   -0.3923    1.1582   -0.0000   -0.0000   -1.7226    0.0000
    3 H1     2px        0.0000    0.0000   -0.0000   -0.0000   -0.0000    0.0000    0.2935   -0.0002   -0.0000   -0.5753
    4 H1     2py        0.0000   -0.0000    0.0000    0.0000   -0.0000    0.0000   -0.0002   -0.2935    0.0000   -0.0123
    5 H1     2pz        0.0229   -0.0110   -0.0055    0.0047    0.0051    0.1232   -0.0000    0.0000   -0.1373   -0.0000
    6 H2     1s         0.3792   -0.4469   -0.4951    1.5858    0.1188   -0.6259    0.0000   -0.0000    1.3483   -0.0000
    7 H2     2s        -0.0657   -0.0865    0.0441    0.3146   -0.2489   -0.4156   -0.0000    0.0000    1.6665   -0.0000
    8 H2     2px        0.0000    0.0000   -0.0000   -0.0000   -0.0000    0.0000    0.4164   -0.0003    0.0000   -0.3041
    9 H2     2py        0.0000    0.0000   -0.0000    0.0000   -0.0000    0.0000   -0.0003   -0.4164    0.0000   -0.0065
   10 H2     2pz        0.0094    0.0378   -0.0488   -0.0298   -0.0313    0.1986   -0.0000   -0.0000   -0.3132   -0.0000
   11 H3     1s         0.3792    0.4469   -0.4951   -1.5858    0.1188    0.6260   -0.0000    0.0000    1.3483    0.0000
   12 H3     2s        -0.0657    0.0865    0.0441   -0.3146   -0.2489    0.4156   -0.0000    0.0000    1.6666    0.0000
   13 H3     2px        0.0000   -0.0000   -0.0000    0.0000   -0.0000    0.0000    0.4164   -0.0003    0.0000    0.3041
   14 H3     2py        0.0000   -0.0000   -0.0000    0.0000   -0.0000   -0.0000   -0.0003   -0.4164    0.0000    0.0065
   15 H3     2pz       -0.0094    0.0378    0.0488   -0.0298    0.0313    0.1986   -0.0000    0.0000    0.3132   -0.0000
   16 H4     1s         0.3097    0.4868    0.7432    0.8866    0.0661   -0.6423    0.0000   -0.0000   -1.6615   -0.0000
   17 H4     2s         0.0110    0.0053   -0.0500    0.0611   -0.3923   -1.1582    0.0000   -0.0000   -1.7226   -0.0000
   18 H4     2px        0.0000    0.0000   -0.0000    0.0000   -0.0000    0.0000    0.2935   -0.0002   -0.0000    0.5753
   19 H4     2py        0.0000    0.0000   -0.0000   -0.0000   -0.0000   -0.0000   -0.0002   -0.2935   -0.0000    0.0123
   20 H4     2pz       -0.0229   -0.0110    0.0055    0.0047   -0.0051    0.1232   -0.0000    0.0000    0.1373   -0.0000
 
 
      Orbital               11        12        13        14        15        16        17        18        19        20
      Energy            0.8824    1.3285    1.3907    1.3907    1.5337    2.1658    2.1702    2.1702    3.1334    4.4948
      Occ. No.          0.0000    0.0000    0.0000    0.0000    0.0000    0.0000    0.0000    0.0000    0.0000    0.0000
 
    1 H1     1s        -0.0000   -2.5417   -0.0000   -0.0000   -0.7039    2.5295   -0.0000   -0.0000   -2.0147    1.8025
    2 H1     2s        -0.0000   -2.0066   -0.0000   -0.0000   -0.8878    1.7574   -0.0000   -0.0000   -0.7396    0.2498
    3 H1     2px        0.0123   -0.0000    0.2467    0.7102   -0.0000   -0.0000   -0.4942   -0.3787    0.0000    0.0000
    4 H1     2py       -0.5753    0.0000   -0.7102    0.2467    0.0000   -0.0000   -0.3787    0.4942    0.0000   -0.0000
    5 H1     2pz        0.0000   -0.0833   -0.0000   -0.0000   -0.7967    1.2914   -0.0000   -0.0000   -1.1374    0.9056
    6 H2     1s         0.0000    6.3352    0.0000    0.0000    0.8413   -5.7799    0.0000    0.0000    2.1199    1.0223
    7 H2     2s         0.0000    6.0462    0.0000    0.0000    0.7335   -4.0343    0.0000    0.0000    0.6324    0.0325
    8 H2     2px        0.0065    0.0000   -0.1714   -0.4933    0.0000    0.0000    0.9058    0.6941   -0.0000   -0.0000
    9 H2     2py       -0.3041   -0.0000    0.4933   -0.1714   -0.0000    0.0000    0.6941   -0.9058   -0.0000    0.0000
   10 H2     2pz        0.0000    0.2633    0.0000    0.0000    0.2797   -0.1385    0.0000    0.0000   -1.2711    2.6040
   11 H3     1s        -0.0000   -6.3352   -0.0000   -0.0000    0.8413    5.7799   -0.0000   -0.0000    2.1199   -1.0223
   12 H3     2s        -0.0000   -6.0462   -0.0000   -0.0000    0.7334    4.0343   -0.0000   -0.0000    0.6324   -0.0325
   13 H3     2px       -0.0065    0.0000   -0.1714   -0.4933    0.0000   -0.0000   -0.9058   -0.6941    0.0000    0.0000
   14 H3     2py        0.3041   -0.0000    0.4933   -0.1714    0.0000   -0.0000   -0.6941    0.9058    0.0000   -0.0000
   15 H3     2pz        0.0000    0.2633    0.0000    0.0000   -0.2797   -0.1385    0.0000    0.0000    1.2711    2.6040
   16 H4     1s         0.0000    2.5417    0.0000    0.0000   -0.7039   -2.5295    0.0000    0.0000   -2.0147   -1.8025
   17 H4     2s         0.0000    2.0066    0.0000    0.0000   -0.8878   -1.7574    0.0000    0.0000   -0.7396   -0.2498
   18 H4     2px       -0.0123   -0.0000    0.2467    0.7102   -0.0000    0.0000    0.4942    0.3787   -0.0000   -0.0000
   19 H4     2py        0.5753    0.0000   -0.7102    0.2467    0.0000    0.0000    0.3787   -0.4942   -0.0000   -0.0000
   20 H4     2pz        0.0000   -0.0833   -0.0000   -0.0000    0.7967    1.2914   -0.0000   -0.0000    1.1374    0.9056
--
 
      Von Neumann Entropy (Root  1) =  0.33606
 

      Mulliken population analysis for root number:  1
      -----------------------------------------------
 
 
++    Molecular charges:
      ------------------
 
      Mulliken charges per centre and basis function type
      ---------------------------------------------------
 
                H1      H2      H3      H4    
      1s       0.9989  0.9753  0.9753  0.9989
      2s       0.0044 -0.0462 -0.0462  0.0044
      2px      0.0000  0.0000  0.0000  0.0000
      2pz      0.0176  0.0499  0.0499  0.0176
      2py      0.0000  0.0000  0.0000  0.0000
      Total    1.0209  0.9791  0.9791  1.0209
 
      N-E     -0.0209  0.0209  0.0209 -0.0209
 
      Total electronic charge=    4.000000
 
      Total            charge=    0.000000
--
 
 

      Expectation values of various properties for root number:  1
      -----------------------------------------------------------
 
 
++    Molecular properties:
      ---------------------
 
      Charge (e):
                      =    0.0000
      Dipole Moment (Debye):
      Origin of the operator (Ang)=    0.0000    0.0000    0.0000
                   X= -1.2267E-14               Y= -2.1284E-14               Z=  1.3436E-06           Total=  1.3436E-06
      Quadrupole Moment (Debye*Ang):
      Origin of the operator (Ang)=    0.0000    0.0000    1.4818
                  XX= -4.5072E+00              XY= -2.9714E-29              XZ= -2.0902E-14              YY= -4.5072E+00
                  YZ=  2.2167E-14              ZZ= -3.9045E+00
      In traceless form (Debye*Ang)
                  XX= -3.0133E-01              XY= -4.4572E-29              XZ= -3.1353E-14              YY= -3.0133E-01
                  YZ=  3.3250E-14              ZZ=  6.0266E-01
--
 

      LoProp population analysis for root number:  1
      -----------------------------------------------
 
 
++    LoProp analysis:
      ----------------
 
 
 
  Input file to MOLDEN was generated!
 
 
++    Static properties:
      ------------------
 
 
      LoProp Charges per center
 

                   H1       H2       H3       H4    
      Nuclear      1.0000   1.0000   1.0000   1.0000
      Electronic  -1.0162  -0.9838  -0.9838  -1.0162
 
      Total       -0.0162   0.0162   0.0162  -0.0162
--
 
 
      Natural Bond Order analysis for root number:  1
 
++    Natural Bond Order analysis
      ---------------------------
      Based on LoProp computed density
      -------------------------------------------------------------------------------------
      Atom A       Atom B       Bond Order | Atom A       Atom B       Bond Order
        H1           H2             0.961  |   H3           H4             0.961
      -------------------------------------------------------------------------------------
      NBO located      3.845 electrons involved in    2 bonds.
      The remaining    0.155 electrons are to be considered as diffuse
--
 
--
 
 
  Input file to MOLDEN was generated!
 
      Average orbitals are written to the RASORB file
      Natural orbitals for root   1 are written to the RASORB.1 file
      Spin density orbitals for root   1 are written to the SPDORB.1 file
 
--- Stop Module: rasscf at Tue Nov 12 16:12:31 2024 /rc=_RC_ALL_IS_WELL_ ---
*** files: H4_0.99.LprOrb H4_0.99.rasscf.molden H4_0.99.LoProp.molden H4_0.99.RasOrb H4_0.99.RasOrb.1 H4_0.99.rasscf.h5 H4_0.99.SpdOrb.1 xmldump
    saved to directory /home/grierjones/DDCASPT2/hydrogen_comps/H4_chain/H4_0.99

>>> COPY /tmp/H4_0.99/H4_0.99.rasscf.h5 /home/grierjones/DDCASPT2/hydrogen_comps/H4_chain/H4_0.99/

>>> COPY /tmp/H4_0.99/GMJ_Fock_MO.csv /home/grierjones/DDCASPT2/hydrogen_comps/H4_chain/H4_0.99/H4_0.99.GMJ_Fock_MO.csv

>>> COPY /tmp/H4_0.99/GMJ_PT2_Fock_MO.csv /home/grierjones/DDCASPT2/hydrogen_comps/H4_chain/H4_0.99/H4_0.99.GMJ_PT2_Fock_MO.csv

*** symbolic link created: INPORB -> H4_0.99.RasOrb
--- Start Module: motra at Tue Nov 12 16:12:31 2024 ---
 
()()()()()()()()()()()()()()()()()()()()()()()()()()()()()()()()()()()()()()()()()()()()()()()()()()

                                               &MOTRA

                                   only a single process is used
                       available to each process: 2.0 GB of memory, 1 thread?
()()()()()()()()()()()()()()()()()()()()()()()()()()()()()()()()()()()()()()()()()()()()()()()()()()
 
 
      *** WARNING: Default frozen orbitals is overwritten by user input.
      *** Default values:   0
 
      Header of the integral files:
      
       Integrals generated by seward 4.2.0  , Tue Nov 12 16:12:30 2024
 
 
      Header of MO coefficients source file:
      * RASSCF average (pseudo-natural) orbitals                                      
 
 
      Cartesian coordinates in Angstrom:
      -----------------------------------------------------
      No.  Label        X            Y            Z        
      -----------------------------------------------------
       1   H1         0.00000000   0.00000000   0.00000000
       2   H2         0.00000000   0.00000000   0.98787900
       3   H3         0.00000000   0.00000000   1.97575800
       4   H4         0.00000000   0.00000000   2.96363600
      -----------------------------------------------------
      Nuclear repulsion energy =    2.32123770
 
      Orbital specifications:
      -----------------------
 
      Symmetry species:              1
      Number of basis functions:    20
      Frozen orbitals:               0
      Deleted orbitals:              0
      Number of orbitals used:      20

       SYMMETRY  BASIS FUNCTIONS       ORBITALS      INTEGRALS   CPU(SEC)  I/O(SEC)
 
        1 1 1 1   20  20  20  20    20  20  20  20       22155       0.00      0.00

       TOTAL CPU TIME(SEC)    0.01TOTAL I/O TIME(SEC)    0.03
 
--- Stop Module: motra at Tue Nov 12 16:12:31 2024 /rc=_RC_ALL_IS_WELL_ ---
*** files: xmldump
    saved to directory /home/grierjones/DDCASPT2/hydrogen_comps/H4_chain/H4_0.99

>>> COPY /tmp/H4_0.99/GMJ_one_int_indx.csv /home/grierjones/DDCASPT2/hydrogen_comps/H4_chain/H4_0.99/H4_0.99.GMJ_one_int_indx.csv

>>> COPY /tmp/H4_0.99/GMJ_one_int.csv /home/grierjones/DDCASPT2/hydrogen_comps/H4_chain/H4_0.99/H4_0.99.GMJ_one_int.csv

>>> COPY /tmp/H4_0.99/GMJ_two_int_indx.csv /home/grierjones/DDCASPT2/hydrogen_comps/H4_chain/H4_0.99/H4_0.99.GMJ_two_int_indx.csv

>>> COPY /tmp/H4_0.99/GMJ_two_int.csv /home/grierjones/DDCASPT2/hydrogen_comps/H4_chain/H4_0.99/H4_0.99.GMJ_two_int.csv

*** symbolic link created: INPORB -> H4_0.99.RasOrb
--- Start Module: caspt2 at Tue Nov 12 16:12:31 2024 ---
 
()()()()()()()()()()()()()()()()()()()()()()()()()()()()()()()()()()()()()()()()()()()()()()()()()()

                                              &CASPT2

                                   only a single process is used
                       available to each process: 2.0 GB of memory, 1 thread?
()()()()()()()()()()()()()()()()()()()()()()()()()()()()()()()()()()()()()()()()()()()()()()()()()()
 
 Cholesky algorithm in CASPT2 =    1
 
 ###############################################################################
 ###############################################################################
 ###                                                                         ###
 ###                                                                         ###
 ###    User changed nr of frozen orbitals.                                  ###
 ###                                                                         ###
 ###                                                                         ###
 ###############################################################################
 ###############################################################################
 
++    Wave function specifications:
      -----------------------------
 
      Number of closed shell electrons           0
      Number of electrons in active shells       4
      Max number of holes in RAS1 space          0
      Max number of electrons in RAS3 space      0
      Number of inactive orbitals                0
      Number of active orbitals                  4
      Number of secondary orbitals              16
      Spin quantum number                      0.0
      State symmetry                             1
      Number of CSFs                            20
      Number of root(s) available                1
      Root passed to geometry opt.               1
      A file JOBMIX will be created.
      This is a CASSCF or RASSCF reference function
--
 
++    Orbital specifications:
      -----------------------
 
      Symmetry species                           1
                                                 a
      Frozen orbitals                            0
      Inactive orbitals                          0
      Active orbitals                            4
      Secondary orbitals                        16
      Deleted orbitals                           0
      Number of basis functions                 20
--
 
      Type of Fock operator: STANDARD
      Type of 0-order Hamiltonian: STANDARD WITH DEFAULT IPEA
        "IP-EA" denominator shift =      0.25
      The input orbitals and the CI vector will be transformed.
 
--------------------------------------------------------------------------------
 Estimated memory requirements:
  POLY3 :                   250840
  RHS:                      254928
  SIGMA :                   255440
  PRPCTL:                        0
 Available workspace:    230398724
 
++ CASPT2 computation for group   1
 
********************************************************************************
 Multi-State initialization phase begins for group   1
--------------------------------------------------------------------------------
********************************************************************************
 Compute H0 matrices for state    1
--------------------------------------------------------------------------------
--------------------------------------------------------------------------------
 H0 matrices have been computed.
 
********************************************************************************
  CASPT2 EQUATION SOLUTION
--------------------------------------------------------------------------------
 
  Total nr of CASPT2 parameters:
   Before reduction:        3104
   After  reduction:        2400
 
 The contributions to the second order correlation energy in atomic units.
-----------------------------------------------------------------------------------------------------------------------------
  IT.      VJTU        VJTI        ATVX        AIVX        VJAI        BVAT        BJAT        BJAI        TOTAL       RNORM  
-----------------------------------------------------------------------------------------------------------------------------
   1     0.000000    0.000000   -0.005014    0.000000    0.000000   -0.021421    0.000000    0.000000   -0.026435    0.003048
   2     0.000000    0.000000   -0.005108    0.000000    0.000000   -0.021466    0.000000    0.000000   -0.026573    0.000309
   3     0.000000    0.000000   -0.005107    0.000000    0.000000   -0.021466    0.000000    0.000000   -0.026573    0.000051
   4     0.000000    0.000000   -0.005106    0.000000    0.000000   -0.021466    0.000000    0.000000   -0.026572    0.000005
-------------------------------------------------------------------------------------------------------------------
 
  FINAL CASPT2 RESULT:
 
  Correlation energy /Case, /Symm, and sums:
 VJTU      0.00000000  0.00000000
 VJTIP     0.00000000  0.00000000
 VJTIM     0.00000000  0.00000000
 ATVX     -0.00510603 -0.00510603
 AIVX      0.00000000  0.00000000
 VJAIP     0.00000000  0.00000000
 VJAIM     0.00000000  0.00000000
 BVATP    -0.02045712 -0.02045712
 BVATM    -0.00100919 -0.00100919
 BJATP     0.00000000  0.00000000
 BJATM     0.00000000  0.00000000
 BJAIP     0.00000000  0.00000000
 BJAIM     0.00000000  0.00000000
 Summed:  -0.02657234 -0.02657234
 
      Reference energy:          -2.2246842728
      E2 (Non-variational):      -0.0265723351
      E2 (Variational):          -0.0265723441
      Total energy:              -2.2512566169
      Residual norm:              0.0000007757
      Reference weight:           0.99007
 
      Contributions to the CASPT2 correlation energy
      Active & Virtual Only:         -0.0265723351
      One Inactive Excited:           0.0000000000
      Two Inactive Excited:           0.0000000000
 
 
++ Denominators, etc.
----------------------------------------------------------------------------------------------------
 Report on small energy denominators, large coefficients, and large energy contributions.
CASE  SYMM ACTIVE-MIX  NON-ACTIVE INDICES          DENOMINATOR     RHS VALUE       COEFFICIENT     CONTRIBUTION
BVATP    1  Mu1.0002  Se1.010 Se1.007               2.51794460     -0.07641046      0.03034636     -0.00231878
BVATP    1  Mu1.0002  Se1.011 Se1.008               2.51794460      0.07641046     -0.03034636     -0.00231878
--
 
   (Skipping property calculation,
    use PROP keyword to activate)
--
 
  Total CASPT2 energies:
::    CASPT2 Root  1     Total energy:     -2.25125662
 
  A NEW JOBIPH FILE NAMED 'JOBMIX' IS PREPARED.
********************************************************************************
--- Stop Module: caspt2 at Tue Nov 12 16:12:31 2024 /rc=_RC_ALL_IS_WELL_ ---
*** files: xmldump
    saved to directory /home/grierjones/DDCASPT2/hydrogen_comps/H4_chain/H4_0.99

>>> EXPORT i = B

>>> EXPORT j = P

>>> IF (-FILE GMJ_e2_${i}_${j}.csv)
(Skipped)

>>> END FOREACH

>>> EXPORT j = M

>>> IF (-FILE GMJ_e2_${i}_${j}.csv)
(Skipped)

>>> END FOREACH

>>> END FOREACH

>>> EXPORT i = E

>>> EXPORT j = P

>>> IF (-FILE GMJ_e2_${i}_${j}.csv)
(Skipped)

>>> END FOREACH

>>> EXPORT j = M

>>> IF (-FILE GMJ_e2_${i}_${j}.csv)
(Skipped)

>>> END FOREACH

>>> END FOREACH

>>> EXPORT i = F

>>> EXPORT j = P

>>> IF (-FILE GMJ_e2_${i}_${j}.csv)

>>> COPY /tmp/H4_0.99/GMJ_RHS_F_P.csv /home/grierjones/DDCASPT2/hydrogen_comps/H4_chain/H4_0.99/GMJ_RHS_F_P.csv

>>> COPY /tmp/H4_0.99/GMJ_IVECW_F_P.csv /home/grierjones/DDCASPT2/hydrogen_comps/H4_chain/H4_0.99/GMJ_IVECW_F_P.csv

>>> COPY /tmp/H4_0.99/GMJ_IVECX_F_P.csv /home/grierjones/DDCASPT2/hydrogen_comps/H4_chain/H4_0.99/GMJ_IVECX_F_P.csv

>>> COPY /tmp/H4_0.99/GMJ_IVECC2_F_P.csv /home/grierjones/DDCASPT2/hydrogen_comps/H4_chain/H4_0.99/GMJ_IVECC2_F_P.csv

>>> COPY /tmp/H4_0.99/GMJ_e2_F_P.csv /home/grierjones/DDCASPT2/hydrogen_comps/H4_chain/H4_0.99/GMJ_e2_F_P.csv

>>> END FOREACH

>>> EXPORT j = M

>>> IF (-FILE GMJ_e2_${i}_${j}.csv)

>>> COPY /tmp/H4_0.99/GMJ_RHS_F_M.csv /home/grierjones/DDCASPT2/hydrogen_comps/H4_chain/H4_0.99/GMJ_RHS_F_M.csv

>>> COPY /tmp/H4_0.99/GMJ_IVECW_F_M.csv /home/grierjones/DDCASPT2/hydrogen_comps/H4_chain/H4_0.99/GMJ_IVECW_F_M.csv

>>> COPY /tmp/H4_0.99/GMJ_IVECX_F_M.csv /home/grierjones/DDCASPT2/hydrogen_comps/H4_chain/H4_0.99/GMJ_IVECX_F_M.csv

>>> COPY /tmp/H4_0.99/GMJ_IVECC2_F_M.csv /home/grierjones/DDCASPT2/hydrogen_comps/H4_chain/H4_0.99/GMJ_IVECC2_F_M.csv

>>> COPY /tmp/H4_0.99/GMJ_e2_F_M.csv /home/grierjones/DDCASPT2/hydrogen_comps/H4_chain/H4_0.99/GMJ_e2_F_M.csv

>>> END FOREACH

>>> END FOREACH

>>> EXPORT i = G

>>> EXPORT j = P

>>> IF (-FILE GMJ_e2_${i}_${j}.csv)
(Skipped)

>>> END FOREACH

>>> EXPORT j = M

>>> IF (-FILE GMJ_e2_${i}_${j}.csv)
(Skipped)

>>> END FOREACH

>>> END FOREACH

>>> EXPORT i = H

>>> EXPORT j = P

>>> IF (-FILE GMJ_e2_${i}_${j}.csv)
(Skipped)

>>> END FOREACH

>>> EXPORT j = M

>>> IF (-FILE GMJ_e2_${i}_${j}.csv)
(Skipped)

>>> END FOREACH

>>> END FOREACH

>>> EXPORT i = A

>>> IF (-FILE GMJ_e2_$i.csv)
(Skipped)

>>> END FOREACH

>>> EXPORT i = C

>>> IF (-FILE GMJ_e2_$i.csv)

>>> COPY /tmp/H4_0.99/GMJ_RHS_C.csv /home/grierjones/DDCASPT2/hydrogen_comps/H4_chain/H4_0.99/GMJ_RHS_C.csv

>>> COPY /tmp/H4_0.99/GMJ_IVECW_C.csv /home/grierjones/DDCASPT2/hydrogen_comps/H4_chain/H4_0.99/GMJ_IVECW_C.csv

>>> COPY /tmp/H4_0.99/GMJ_IVECX_C.csv /home/grierjones/DDCASPT2/hydrogen_comps/H4_chain/H4_0.99/GMJ_IVECX_C.csv

>>> COPY /tmp/H4_0.99/GMJ_IVECC2_C.csv /home/grierjones/DDCASPT2/hydrogen_comps/H4_chain/H4_0.99/GMJ_IVECC2_C.csv

>>> COPY /tmp/H4_0.99/GMJ_e2_C.csv /home/grierjones/DDCASPT2/hydrogen_comps/H4_chain/H4_0.99/GMJ_e2_C.csv

>>> END FOREACH

>>> EXPORT i = D

>>> IF (-FILE GMJ_e2_$i.csv)
(Skipped)

>>> END FOREACH

.########################.
.# Non-zero return code #.
.########################.

    Timing: Wall=1.20 User=0.82 System=0.37
***************************************
*** WorkDir at /tmp/H4_0.99 cleaned ***
***************************************
