[Molden Format]
[N_Atoms]
                     2
[Atoms] (AU)
B1          1      5           0.00000000      0.00000000      0.00000000
O2          2      8           0.00000000      0.00000000      4.72431531
[Charge] (Mulliken)
  0.237614671622675     
 -0.237614671622778     
[GTO] (AU)
   1
   s  14
  3.336021700E+04  1.039699991E-04
  4.972095200E+03  5.254399956E-04
  1.125641700E+03  2.509059979E-03
  3.164913600E+02  1.031887991E-02
  1.020072600E+02  3.636632969E-02
  3.629587300E+01  1.064607991E-01
  1.397141000E+01  2.403999880E-01
  5.741156000E+00  3.748581168E-01
  2.494268000E+00  3.100066974E-01
  1.114202000E+00  7.922455933E-02
  4.215490000E-01 -4.947589958E-03
  1.696330000E-01 -7.737119935E-03
  6.853500000E-02 -1.501079987E-03
  2.398700000E-02 -1.333299989E-04
   s  14
  3.336021700E+04 -2.030000008E-05
  4.972095200E+03 -1.025700004E-04
  1.125641700E+03 -4.911300020E-04
  3.164913600E+02 -2.026570008E-03
  1.020072600E+02 -7.261010030E-03
  3.629587300E+01 -2.197722009E-02
  1.397141000E+01 -5.408428022E-02
  5.741156000E+00 -1.022402604E-01
  2.494268000E+00 -1.423595206E-01
  1.114202000E+00 -4.658690019E-02
  4.215490000E-01  3.799402916E-01
  1.696330000E-01  5.890463624E-01
  6.853500000E-02  1.749075107E-01
  2.398700000E-02 -1.142030005E-03
   p   9
  5.500000000E+01  1.229800005E-03
  1.336610100E+01  8.827380035E-03
  4.135394000E+00  3.843340015E-02
  1.481256000E+00  1.150031805E-01
  6.021360000E-01  2.733674011E-01
  2.556360000E-01  4.061972116E-01
  1.111510000E-01  3.014967912E-01
  4.764800000E-02  7.684809030E-02
  1.667700000E-02 -8.170000032E-06
 
   2
   s  14
  1.053749500E+05  1.238600013E-04
  1.567924000E+04  5.120100053E-04
  3.534544700E+03  2.152910022E-03
  9.873651600E+02  8.528440089E-03
  3.159787500E+02  3.018049031E-02
  1.116542800E+02  9.099702095E-02
  4.269945100E+01  2.177936423E-01
  1.739559600E+01  3.686245738E-01
  7.438309000E+00  3.366707335E-01
  3.222862000E+00  9.657630101E-02
  1.253877000E+00  2.144520022E-03
  4.951550000E-01  1.194350012E-03
  1.916650000E-01  5.390200056E-04
  6.708300000E-02  2.103400022E-04
   s  14
  1.053749500E+05 -2.815000008E-05
  1.567924000E+04 -1.163000003E-04
  3.534544700E+03 -4.909200013E-04
  9.873651600E+02 -1.946160005E-03
  3.159787500E+02 -7.005300019E-03
  1.116542800E+02 -2.167814006E-02
  4.269945100E+01 -5.641213015E-02
  1.739559600E+01 -1.127053003E-01
  7.438309000E+00 -1.589119704E-01
  3.222862000E+00 -3.355083009E-02
  1.253877000E+00  3.531902810E-01
  4.951550000E-01  5.534199315E-01
  1.916650000E-01  2.301839106E-01
  6.708300000E-02  1.127267003E-02
   p   9
  2.000000000E+02  9.173000030E-04
  4.653336700E+01  7.377140024E-03
  1.462180900E+01  3.483515011E-02
  5.313064000E+00  1.144397004E-01
  2.102525000E+00  2.554966408E-01
  8.502230000E-01  3.722557412E-01
  3.375970000E-01  3.323314911E-01
  1.288920000E-01  1.400847905E-01
  4.511200000E-02  2.395784008E-02
 
[MO]
Sym=     1a  
Ene=   -20.5440
Spin= Alpha
Occup=    1.00000
   1        -0.00000631
   2        -0.00012399
   3         0.00000000
   4        -0.00000000
   5        -0.00015219
   6         1.00000235
   7         0.00022406
   8         0.00000000
   9        -0.00000000
  10        -0.00014620
Sym=     1a  
Ene=   -20.5370
Spin= Beta
Occup=    1.00000
   1        -0.00000915
   2        -0.00014819
   3         0.00000000
   4        -0.00000000
   5        -0.00019792
   6         1.00000300
   7        -0.00012748
   8         0.00000000
   9        -0.00000000
  10        -0.00023217
Sym=     2a  
Ene=    -7.7462
Spin= Alpha
Occup=    1.00000
   1         0.99989045
   2         0.01473485
   3         0.00000000
   4        -0.00000000
   5         0.00005687
   6        -0.00002005
   7        -0.00008059
   8         0.00000000
   9        -0.00000000
  10        -0.00012447
Sym=     2a  
Ene=    -7.7349
Spin= Beta
Occup=    1.00000
   1         0.99992078
   2         0.01263155
   3        -0.00000000
   4         0.00000000
   5         0.00026083
   6        -0.00001004
   7        -0.00007681
   8         0.00000000
   9        -0.00000000
  10         0.00005375
Sym=     3a  
Ene=    -1.1774
Spin= Alpha
Occup=    1.00000
   1         0.00191431
   2        -0.02977029
   3        -0.00000000
   4         0.00000000
   5        -0.02957950
   6         0.00067565
   7        -0.99263622
   8         0.00000000
   9        -0.00000000
  10        -0.02349573
Sym=     3a  
Ene=    -1.1416
Spin= Beta
Occup=    1.00000
   1         0.00203105
   2        -0.01732282
   3        -0.00000000
   4         0.00000000
   5        -0.00694720
   6        -0.00000170
   7        -0.99712302
   8        -0.00000000
   9         0.00000000
  10         0.02691658
Sym=     4a  
Ene=    -0.5728
Spin= Alpha
Occup=    1.00000
   1         0.01538190
   2        -0.97861862
   3        -0.00000000
   4         0.00000000
   5         0.07147616
   6         0.00354885
   7         0.08322799
   8         0.00000000
   9        -0.00000000
  10         0.12028814
Sym=     4a  
Ene=    -0.4943
Spin= Beta
Occup=    1.00000
   1         0.01286980
   2        -0.99357546
   3        -0.00000000
   4         0.00000000
   5        -0.03781202
   6         0.00490567
   7         0.10007125
   8        -0.00000000
   9         0.00000000
  10         0.05495222
Sym=     5a  
Ene=    -0.4811
Spin= Alpha
Occup=    1.00000
   1        -0.00000000
   2        -0.00000000
   3        -0.01155164
   4         0.02833459
   5         0.00000000
   6        -0.00000000
   7        -0.00000000
   8        -0.37666299
   9         0.92390286
  10        -0.00000000
Sym=     5a  
Ene=    -0.4724
Spin= Beta
Occup=    1.00000
   1        -0.00000000
   2         0.00000000
   3        -0.00446622
   4         0.02690055
   5         0.00000000
   6        -0.00000000
   7        -0.00000000
   8        -0.16346166
   9         0.98454786
  10         0.00000000
Sym=     6a  
Ene=    -0.4811
Spin= Alpha
Occup=    1.00000
   1        -0.00000000
   2        -0.00000000
   3         0.02833459
   4         0.01155164
   5         0.00000000
   6        -0.00000000
   7        -0.00000000
   8         0.92390286
   9         0.37666299
  10        -0.00000000
Sym=     6a  
Ene=    -0.4724
Spin= Beta
Occup=    1.00000
   1         0.00000000
   2        -0.00000000
   3         0.02690055
   4         0.00446622
   5        -0.00000000
   6         0.00000000
   7         0.00000000
   8         0.98454786
   9         0.16346166
  10        -0.00000000
Sym=     7a  
Ene=    -0.3407
Spin= Alpha
Occup=    1.00000
   1        -0.00294595
   2        -0.03916491
   3         0.00000000
   4        -0.00000000
   5         0.86436493
   6        -0.01013973
   7        -0.13574136
   8         0.00000000
   9        -0.00000000
  10        -0.40532317
Sym=     7a  
Ene=     0.0716
Spin= Beta
Occup=    0.00000
   1        -0.00336205
   2        -0.13080594
   3        -0.00000000
   4         0.00000000
   5         0.74169136
   6        -0.00831775
   7        -0.11958685
   8        -0.00000000
   9         0.00000000
  10        -0.57562131
Sym=     8a  
Ene=     0.0565
Spin= Alpha
Occup=    0.00000
   1        -0.00000000
   2        -0.00000000
   3         0.10464391
   4        -0.99578439
   5        -0.00000000
   6         0.00000000
   7         0.00000000
   8        -0.00934877
   9         0.08896228
  10        -0.00000000
Sym=     8a  
Ene=     0.0742
Spin= Beta
Occup=    0.00000
   1         0.00000000
   2         0.00000000
   3        -0.86754944
   4         0.50008756
   5        -0.00000000
   6         0.00000000
   7         0.00000000
   8         0.07462330
   9        -0.04301563
  10         0.00000000
Sym=     9a  
Ene=     0.0565
Spin= Alpha
Occup=    0.00000
   1         0.00000000
   2         0.00000000
   3        -0.99578439
   4        -0.10464391
   5         0.00000000
   6        -0.00000000
   7        -0.00000000
   8         0.08896228
   9         0.00934877
  10         0.00000000
Sym=     9a  
Ene=     0.0742
Spin= Beta
Occup=    0.00000
   1        -0.00000000
   2        -0.00000000
   3        -0.50008756
   4        -0.86754944
   5         0.00000000
   6        -0.00000000
   7        -0.00000000
   8         0.04301563
   9         0.07462330
  10        -0.00000000
Sym=    10a  
Ene=     0.0807
Spin= Alpha
Occup=    0.00000
   1         0.00501762
   2         0.24649586
   3         0.00000000
   4        -0.00000000
   5         0.54150715
   6        -0.00743466
   7        -0.13023018
   8        -0.00000000
   9         0.00000000
  10         0.92755819
Sym=    10a  
Ene=     0.2177
Spin= Beta
Occup=    0.00000
   1         0.00569232
   2         0.12778830
   3        -0.00000000
   4         0.00000000
   5         0.70338919
   6        -0.00875228
   7        -0.09523459
   8         0.00000000
   9        -0.00000000
  10         0.83939752
