[Molden Format]
[N_Atoms]
                     2
[Atoms] (AU)
F1          1      9           0.00000000      0.00000000      0.00000000
O2          2      8           0.00000000      0.00000000      2.83458919
[Charge] (Mulliken)
 -7.389924242706059E-002
  7.389924242702950E-002
[GTO] (AU)
   1
   s  14
  1.031094600E+05  1.713099991E-04
  1.528100700E+04  7.123999962E-04
  3.441539200E+03  2.990479984E-03
  9.670948300E+02  1.164036994E-02
  3.140353400E+02  3.968642979E-02
  1.134423000E+02  1.128546094E-01
  4.464472700E+01  2.473650687E-01
  1.894287400E+01  3.672702681E-01
  8.532743000E+00  2.896286985E-01
  3.919401000E+00  7.786681959E-02
  1.568157000E+00  4.562139976E-03
  6.232900000E-01  2.468879987E-03
  2.408610000E-01  1.106309994E-03
  8.430100000E-02  1.739699991E-04
   s  14
  1.031094600E+05 -4.044999995E-05
  1.528100700E+04 -1.682299998E-04
  3.441539200E+03 -7.084299991E-04
  9.670948300E+02 -2.767999996E-03
  3.140353400E+02 -9.611379987E-03
  1.134423000E+02 -2.833957996E-02
  4.464472700E+01 -6.839343991E-02
  1.894287400E+01 -1.237379298E-01
  8.532743000E+00 -1.512859698E-01
  3.919401000E+00 -9.099909988E-03
  1.568157000E+00  3.716257695E-01
  6.232900000E-01  5.500214393E-01
  2.408610000E-01  2.092318697E-01
  8.430100000E-02  8.074639989E-03
   p   9
  2.453302900E+02  1.024860004E-03
  5.691900500E+01  8.344290032E-03
  1.760456800E+01  4.078927016E-02
  6.274995000E+00  1.351370605E-01
  2.447030000E+00  2.798830811E-01
  9.950600000E-01  3.597966414E-01
  4.039730000E-01  3.055347412E-01
  1.548100000E-01  1.354703905E-01
  5.418400000E-02  2.804449011E-02
 
   2
   s  14
  1.053749500E+05  1.238600013E-04
  1.567924000E+04  5.120100053E-04
  3.534544700E+03  2.152910022E-03
  9.873651600E+02  8.528440089E-03
  3.159787500E+02  3.018049031E-02
  1.116542800E+02  9.099702095E-02
  4.269945100E+01  2.177936423E-01
  1.739559600E+01  3.686245738E-01
  7.438309000E+00  3.366707335E-01
  3.222862000E+00  9.657630101E-02
  1.253877000E+00  2.144520022E-03
  4.951550000E-01  1.194350012E-03
  1.916650000E-01  5.390200056E-04
  6.708300000E-02  2.103400022E-04
   s  14
  1.053749500E+05 -2.815000008E-05
  1.567924000E+04 -1.163000003E-04
  3.534544700E+03 -4.909200013E-04
  9.873651600E+02 -1.946160005E-03
  3.159787500E+02 -7.005300019E-03
  1.116542800E+02 -2.167814006E-02
  4.269945100E+01 -5.641213015E-02
  1.739559600E+01 -1.127053003E-01
  7.438309000E+00 -1.589119704E-01
  3.222862000E+00 -3.355083009E-02
  1.253877000E+00  3.531902810E-01
  4.951550000E-01  5.534199315E-01
  1.916650000E-01  2.301839106E-01
  6.708300000E-02  1.127267003E-02
   p   9
  2.000000000E+02  9.173000030E-04
  4.653336700E+01  7.377140024E-03
  1.462180900E+01  3.483515011E-02
  5.313064000E+00  1.144397004E-01
  2.102525000E+00  2.554966408E-01
  8.502230000E-01  3.722557412E-01
  3.375970000E-01  3.323314911E-01
  1.288920000E-01  1.400847905E-01
  4.511200000E-02  2.395784008E-02
 
[MO]
Sym=     1a  
Ene=   -26.4100
Spin= Alpha
Occup=    1.00000
   1         0.99999719
   2        -0.00374691
   3         0.00000000
   4         0.00000000
   5         0.00054824
   6        -0.00001628
   7        -0.00020610
   8        -0.00000000
   9        -0.00000000
  10         0.00009798
Sym=     1a  
Ene=   -26.4360
Spin= Beta
Occup=    1.00000
   1         1.00000514
   2        -0.00255026
   3        -0.00000000
   4        -0.00000000
   5         0.00061669
   6        -0.00002490
   7        -0.00032355
   8         0.00000000
   9        -0.00000000
  10         0.00022073
Sym=     2a  
Ene=   -20.8370
Spin= Alpha
Occup=    1.00000
   1        -0.00007292
   2        -0.00050250
   3         0.00000000
   4        -0.00000000
   5        -0.00029579
   6         1.00000994
   7         0.00134920
   8         0.00000000
   9         0.00000000
  10        -0.00077402
Sym=     2a  
Ene=   -20.7800
Spin= Beta
Occup=    1.00000
   1        -0.00003918
   2        -0.00013424
   3         0.00000000
   4        -0.00000000
   5         0.00001770
   6         0.99999853
   7        -0.00192936
   8         0.00000000
   9         0.00000000
  10        -0.00061852
Sym=     3a  
Ene=    -1.6550
Spin= Alpha
Occup=    1.00000
   1        -0.00411665
   2         0.78004878
   3         0.00000000
   4         0.00000000
   5         0.05609258
   6        -0.00787327
   7         0.46208081
   8        -0.00000000
   9        -0.00000000
  10        -0.11126427
Sym=     3a  
Ene=    -1.7080
Spin= Beta
Occup=    1.00000
   1        -0.00062783
   2         0.93866968
   3        -0.00000000
   4        -0.00000000
   5         0.07759629
   6        -0.00850252
   7         0.16638158
   8        -0.00000000
   9        -0.00000000
  10        -0.06104980
Sym=     4a  
Ene=    -1.3921
Spin= Alpha
Occup=    1.00000
   1        -0.00941001
   2        -0.58788957
   3        -0.00000000
   4         0.00000000
   5         0.06993671
   6         0.00171247
   7         0.87168683
   8        -0.00000000
   9        -0.00000000
  10         0.04156499
Sym=     4a  
Ene=    -1.2106
Spin= Beta
Occup=    1.00000
   1        -0.00981525
   2        -0.33387263
   3        -0.00000000
   4        -0.00000000
   5         0.25425201
   6        -0.00184469
   7         0.89819967
   8         0.00000000
   9         0.00000000
  10        -0.01326300
Sym=     5a  
Ene=    -0.8007
Spin= Alpha
Occup=    1.00000
   1         0.00000000
   2         0.00000000
   3         0.46889021
   4         0.32087436
   5        -0.00000000
   6         0.00000000
   7         0.00000000
   8         0.62329399
   9         0.42653707
  10         0.00000000
Sym=     5a  
Ene=    -0.7687
Spin= Beta
Occup=    1.00000
   1         0.00000000
   2         0.00000000
   3        -0.51527564
   4         0.75296669
   5        -0.00000000
   6         0.00000000
   7         0.00000000
   8        -0.17578437
   9         0.25687179
  10         0.00000000
Sym=     6a  
Ene=    -0.7621
Spin= Alpha
Occup=    1.00000
   1         0.00000000
   2         0.00000000
   3        -0.44328177
   4         0.64776284
   5        -0.00000000
   6         0.00000000
   7         0.00000000
   8        -0.29909892
   9         0.43706999
  10         0.00000000
Sym=     6a  
Ene=    -0.7678
Spin= Beta
Occup=    1.00000
   1         0.00295456
   2         0.04921621
   3         0.00000000
   4        -0.00000000
   5        -0.89385991
   6         0.02198429
   7         0.46451919
   8         0.00000000
   9        -0.00000000
  10         0.27386868
Sym=     7a  
Ene=    -0.7248
Spin= Alpha
Occup=    1.00000
   1         0.02146063
   2         0.30632108
   3         0.00000000
   4        -0.00000000
   5        -0.37915571
   6         0.00726199
   7         0.12163029
   8        -0.00000000
   9        -0.00000000
  10         0.86659736
Sym=     7a  
Ene=    -0.7432
Spin= Beta
Occup=    1.00000
   1        -0.00000000
   2         0.00000000
   3         0.81392681
   4         0.55699231
   5         0.00000000
   6        -0.00000000
   7        -0.00000000
   8         0.06855585
   9         0.04691464
  10        -0.00000000
Sym=     8a  
Ene=    -0.6773
Spin= Alpha
Occup=    1.00000
   1         0.00000000
   2         0.00000000
   3        -0.68695164
   4        -0.47009974
   5         0.00000000
   6        -0.00000000
   7         0.00000000
   8         0.55069519
   9         0.37685574
  10         0.00000000
Sym=     8a  
Ene=    -0.5877
Spin= Beta
Occup=    1.00000
   1         0.00000000
   2         0.00000000
   3         0.24175429
   4        -0.35327292
   5        -0.00000000
   6         0.00000000
   7         0.00000000
   8        -0.54134460
   9         0.79106098
  10         0.00000000
Sym=     9a  
Ene=    -0.6317
Spin= Alpha
Occup=    1.00000
   1        -0.00000000
   2        -0.00000000
   3         0.35700895
   4        -0.52169330
   5         0.00000000
   6        -0.00000000
   7        -0.00000000
   8        -0.48424577
   9         0.70762307
  10        -0.00000000
Sym=     9a  
Ene=     0.0774
Spin= Beta
Occup=    0.00000
   1        -0.00000000
   2        -0.00000000
   3        -0.17112494
   4        -0.11710546
   5        -0.00000000
   6         0.00000000
   7        -0.00000000
   8         0.82889124
   9         0.56723288
  10        -0.00000000
Sym=    10a  
Ene=     0.1282
Spin= Alpha
Occup=    0.00000
   1         0.01802237
   2         0.21945474
   3         0.00000000
   4         0.00000000
   5         0.98246759
   6        -0.02478266
   7        -0.32099357
   8        -0.00000000
   9        -0.00000000
  10         0.59747997
Sym=    10a  
Ene=     0.1544
Spin= Beta
Occup=    0.00000
   1         0.02773976
   2         0.31795764
   3        -0.00000000
   4         0.00000000
   5         0.49738148
   6        -0.01398782
   7        -0.20239041
   8         0.00000000
   9         0.00000000
  10         1.02135881
