   This run of MOLCAS is using the pymolcas driver

                             OPE
                             OPE          NMOL  CASOP  ENMOLC A   SO
                 OPE        NMOLC        AS  OP EN  MO LC     AS  OP
                OPENM       OL CA        SO  PE NM  OL CA     SOP EN
                OP EN      MO   LC       AS  OP ENMOL  CASO   PENMOL
                OP  EN     MO   LC       AS  OP EN     MO     LC ASO
               OP   E  NMOL  C  AS       OP  EN MO     LC     AS  OP
               OP  E   NMO   LC AS        OPEN  MO     LCASOP EN   M
               O  PEN   MO  LCA  SO
            OPE   NMO   L   CAS    OP
        OPENMOL  CASOP     ENMOL   CASOPE
     OPENMOLCA   SOPENMOLCASOPEN   MOLCASOPE
    OPENMOLCAS   OP           EN   MOL    CAS
    OPENMOLCAS       OP  ENM        O     LCA
    OPENMOLCAS    OPEN  MOLCASO     P  E  NMO
    OPENMOLCAS     OP               E  N  MOL
    OPENMOLCA   SO           PENM   O  L  CAS    OPEN    MO    LCAS
    OPENMOLCA   SOP           ENM   O  L  CAS   OP  EN  MOLC  AS   O
    OPENMOLCA   SOPE           NM      O  LCA   S      OP  EN MO
    OPENMOLC                AS         O  PEN   M      OL  CA  SOPE
    OPENMO        LCASOPE  NMOL        C  ASO   P      ENMOLC     AS
    OPE     NMO      LCA  SO     P     E   NM   OL  CA SO  PE N   MO
          OPENMOLCA            SOPE   NMO        LCAS  O    P  ENMO
     OPENMOLCASOPENMOLCASOPENMOLCASOPENMOLCA
        OPENMOLCASOPENMOLCASOPENMOLCASOPE
            OPENMOLCASOPENMOLCASOPENM
               OPENMOLCASOPENMOLCA        version: 24.02
                   OPENMOLCASO
                       OPE                tag: 126-g611b04c8f

 OpenMolcas is free software; you can redistribute it and/or modify it
 under the terms of the GNU Lesser General Public License version 2.1.
 OpenMolcas is distributed in the hope that it will be useful, but it
 is provided "as is" and without any express or implied warranties.
 For more details see the full text of the license in the file
 LICENSE or in <http://www.gnu.org/licenses/>.

                 Copyright (C) The OpenMolcas Authors
           For the author list and the recommended citation,
                   consult the file CONTRIBUTORS.md

           *************************************************
           * pymolcas version py2.28                       *
           *   build c4a6d18ded8cb6cad61d2372a9abd97c      *
           *   (after the EMIL interpreter by V. Veryazov) *
           *************************************************

configuration info
------------------
Host name: debian (Linux)
C Compiler ID: GNU
C flags: -std=gnu99
Fortran Compiler ID: Intel
Fortran flags: -fpp -i8 -heap-arrays
Definitions: _MOLCAS_;_I8_;_LINUX_
Parallel: OFF (GA=OFF)


   -----------------------------------------------------------------
  |
  |              Project: 1.50
  |       Submitted from: /home/grierjones/DDCASPT2/delta_ML/FO/1.50
  |         Scratch area: /tmp/1.50
  |      Save outputs to: /home/grierjones/DDCASPT2/delta_ML/FO/1.50
  |               Molcas: /usr/local
  |
  | Scratch area is empty
  |
  |       MOLCAS_DRIVER = /usr/local/pymolcas
  | MOLCAS_KEEP_WORKDIR = NO
  |  MOLCAS_NEW_WORKDIR = YES
  |       MOLCAS_NPROCS = 1
  |       MOLCAS_SOURCE = /usr/local
  |    MOLCAS_STRUCTURE = 0
  |
   -----------------------------------------------------------------

++ ---------   Input file   ---------

&GATEWAY
coord=1.50.xyz
Basis = ANO-RCC-MB
Group = nosymm
End of Input

&SEWARD
End of Input

&SCF
UHF

&MBPT2
Frozen
0

&RASSCF
Title= RASSCF
FileOrb
/home/grierjones/DDCASPT2/delta_ML/FO/1.40/1.40.RasOrb

NACTEL
1 0 0
Inactive
8
RAS2
2
Symmetry
1
Spin
2
orblisting
all
ITERation
200 100
CIMX
200
SDAV
500

&CASPT2
Imaginary Shift
0.0
Frozen
0

-- ----------------------------------

--- Start Module: gateway at Thu Apr 25 13:57:06 2024 ---
 
()()()()()()()()()()()()()()()()()()()()()()()()()()()()()()()()()()()()()()()()()()()()()()()()()()

                                              &GATEWAY

                                   only a single process is used
                       available to each process: 2.0 GB of memory, 1 thread?
                                            pid: 110038
()()()()()()()()()()()()()()()()()()()()()()()()()()()()()()()()()()()()()()()()()()()()()()()()()()
 
 
++    Symmetry information:
      ---------------------
 
                    Character Table for C1 
 
                             E  
                    a        1  x, y, xy, Rz, z, xz, Ry, yz, Rx, I
--
 
 
++    Basis set information:
      ----------------------
 
 
      Basis set label: F.ANO-RCC...2S1P.
 
      Electronic valence basis set:
      ------------------
      Associated Effective Charge   9.000000 au
      Associated Actual Charge      9.000000 au
      Nuclear Model: Point charge
 
      Shell  nPrim  nBasis  Cartesian Spherical Contaminant
         s      14       2        X                  
         p       9       1        X                  
 
 
      Basis set label: O.ANO-RCC...2S1P.
 
      Electronic valence basis set:
      ------------------
      Associated Effective Charge   8.000000 au
      Associated Actual Charge      8.000000 au
      Nuclear Model: Point charge
 
      Shell  nPrim  nBasis  Cartesian Spherical Contaminant
         s      14       2        X                  
         p       9       1        X                  
--
 
 
++    Molecular structure info:
      -------------------------
 
                    ************************************************ 
                    **** Cartesian Coordinates / Bohr, Angstrom **** 
                    ************************************************ 
 
     Center  Label                x              y              z                     x              y              z
        1      F1               0.000000       0.000000       0.000000              0.000000       0.000000       0.000000
        2      O2               0.000000       0.000000       2.834589              0.000000       0.000000       1.500000
--
 
 
            Nuclear Potential Energy             25.40050612 au
 
--- Stop Module: gateway at Thu Apr 25 13:57:06 2024 /rc=_RC_ALL_IS_WELL_ ---
*** files: xmldump
    saved to directory /home/grierjones/DDCASPT2/delta_ML/FO/1.50

--- Start Module: seward at Thu Apr 25 13:57:06 2024 ---
 
()()()()()()()()()()()()()()()()()()()()()()()()()()()()()()()()()()()()()()()()()()()()()()()()()()

                                              &SEWARD

                                   only a single process is used
                       available to each process: 2.0 GB of memory, 1 thread?
                                            pid: 110041
()()()()()()()()()()()()()()()()()()()()()()()()()()()()()()()()()()()()()()()()()()()()()()()()()()
 
               SEWARD will generate:
                  Multipole Moment integrals up to order  2
                  Kinetic Energy integrals
                  Nuclear Attraction integrals (point charge)
                  One-Electron Hamiltonian integrals
                  Velocity integrals
                  Relativistic Douglas-Kroll-Hess integrals:
                    - Parametrization         : EXP
                    - DKH order of Hamiltonian: 2
                    - DKH order of Properties : 0
                         - multipole moment operators
                         - electric potential operators
                         - contact operators
                  Orbital angular momentum around ( 0.0000  0.0000  1.2956 )
                  Velocity quadrupole around ( 0.0000  0.0000  1.2956 )
                  Atomic mean-field integrals
                  Two-Electron Repulsion integrals
 
                   Integrals are discarded if absolute value <: 1.00E-14
                   Integral cutoff threshold is set to       <: 1.00E-16
 
            Nuclear Potential Energy             25.40050612 au
 
 
      Basis set specifications :
      Symmetry species         a  
      Basis functions           10
 
 
      Input file to MOLDEN was generated!
 
--- Stop Module: seward at Thu Apr 25 13:57:07 2024 /rc=_RC_ALL_IS_WELL_ ---
*** files: 1.50.GssOrb 1.50.guessorb.h5 1.50.guessorb.molden xmldump
    saved to directory /home/grierjones/DDCASPT2/delta_ML/FO/1.50

*** symbolic link created: INPORB -> 1.50.GssOrb
--- Start Module: scf at Thu Apr 25 13:57:07 2024 ---
 
()()()()()()()()()()()()()()()()()()()()()()()()()()()()()()()()()()()()()()()()()()()()()()()()()()

                                                &SCF

                                   only a single process is used
                       available to each process: 2.0 GB of memory, 1 thread?
                                            pid: 110044
()()()()()()()()()()()()()()()()()()()()()()()()()()()()()()()()()()()()()()()()()()()()()()()()()()
 
++    Input section:
      --------------
 
      Header of the integral files:
      
       Integrals generated by Gateway/Seward, Thu Apr 25 13:57:06 2024
 
 
      Cartesian coordinates in Angstrom:
      -----------------------------------------------------
      No.  Label        X            Y            Z        
      -----------------------------------------------------
       1   F1         0.00000000   0.00000000   0.00000000
       2   O2         0.00000000   0.00000000   1.50000000
      -----------------------------------------------------
      Nuclear repulsion energy =   25.40050612
--
 
++    Orbital specifications:
      -----------------------
 
      Symmetry species               1
                                     a
      Frozen orbitals                0
      Occupied orbitals alpha        9
      Occupied orbitals beta         8
      Secondary orbitals alpha       1
      Secondary orbitals beta        2
      Deleted orbitals               0
      Total number of orbitals      10
      Number of basis functions     10
--
 
      Molecular charge                           0.000
 
++    Optimization specifications:
      ----------------------------
 
      SCF Algorithm: Conventional USCF
      D(i)-D(i-1) density differences are used
      Number of density matrices in core                 5
      Maximum number of NDDO SCF iterations            400
      Maximum number of HF SCF iterations              400
      Threshold for SCF energy change             1.00E-09
      Threshold for density matrix                1.00E-04
      Threshold for Fock matrix                   1.50E-04
      Threshold for linear dependence             1.00E-09
      Threshold at which DIIS is turned on        1.50E-01
      Maximum depth in the DIIS procedure                5
      Maximum depth in the BFGS Hessian update          30
      Threshold at which QNR/C2DIIS is turned on  7.50E-02
      Threshold for Norm(delta) (QNR/C2DIIS)      1.00E-03
      All orbitals punched on: UHFORB
--
 
      Input vectors read from INPORB
      Orbital file label: *Guess orbitals
 
 
++ Convergence information
                               UHF SCF        iterations: Energy and convergence statistics
 
Iter     Tot. SCF        One-elec.       Two-elec.     Energy      Max Dij or  Max Fij      DNorm      TNorm      AccCon     Time
         Energy          Energy          Energy        Change      Delta Norm                                                in Sec.
   1  -174.203758852  -291.753124528    92.148859553   0.00E+00    3.39E-01*   1.06E-01*    6.05E+00   3.51E+01   None         0.
   2  -174.247255012  -292.433429889    92.785668754  -4.35E-02*   1.56E-01*   5.58E-02*    6.57E-01   3.52E+01   EDIIS        0.
   3  -174.260038217  -292.335004728    92.674460387  -1.28E-02*   1.34E-01*   4.64E-02*    2.92E-01   3.52E+01   EDIIS        0.
   4  -174.265518465  -292.401689650    92.735665062  -5.48E-03*   1.08E-01*   9.88E-03*    1.91E-01   3.52E+01   c2DIIS       0.
   5  -174.266721110  -292.396224382    92.728997149  -1.20E-03*   5.30E-02*   7.70E-02*    1.61E-01   3.52E+01   c2DIIS       0.
   6  -174.271153781  -292.380322147    92.708662243  -4.43E-03*   6.01E-02*   2.12E-02*    9.39E-02   3.52E+01   QNRc2DIIS    0.
   7  -174.272500896  -292.398853922    92.725846902  -1.35E-03*   1.14E+00*   1.60E-02*    8.06E-02   3.52E+01   QNRc2DIIS    0.
   8  -174.256720247  -292.533183783    92.875957413   1.58E-02*   9.26E-01*   1.04E-01*    1.66E+00   3.53E+01   QNRc2DIIS    0.
   9  -174.277355720  -292.437746949    92.759885105  -2.06E-02*   1.94E-01*   2.78E-02*    1.39E+00   3.52E+01   QNRc2DIIS    0.
 DIIS_X: Resetting BFGS depth!
         Too large B matrix values.
 DIIS_X: Resetting kOptim!
         Caused by energies and gradients which are inconsistent with a convex e
 nergy functional.
 kOptim=                     5 -> kOptim=                     1
  10  -174.272891190  -292.405318319    92.731921005   4.46E-03*   5.87E-02*   1.69E-02*    2.65E-01   3.52E+01   QNRc2DIIS    0.
 DIIS_X: Resetting kOptim!
         Caused by energies and gradients which are inconsistent with a convex e
 nergy functional.
 kOptim=                     2 -> kOptim=                     1
  11  -174.274278271  -292.398239754    92.723455359  -1.39E-03*   6.17E-02*   1.75E-02*    7.74E-02   3.52E+01   QNRc2DIIS    0.
 DIIS_X: Resetting kOptim!
         Caused by energies and gradients which are inconsistent with a convex e
 nergy functional.
 kOptim=                     2 -> kOptim=                     1
  12  -174.275833128  -292.401750407    92.725411156  -1.55E-03*   6.45E-02*   1.80E-02*    8.25E-02   3.52E+01   QNRc2DIIS    0.
 DIIS_X: Resetting BFGS depth!
         Too large B matrix values.
 DIIS_X: Resetting kOptim!
         Caused by energies and gradients which are inconsistent with a convex e
 nergy functional.
 kOptim=                     2 -> kOptim=                     1
  13  -174.277526112  -292.405672864    92.727640629  -1.69E-03*   6.59E-02*   1.85E-02*    8.69E-02   3.52E+01   QNRc2DIIS    0.
 DIIS_X: Resetting BFGS depth!
         Too large B matrix values.
 DIIS_X: Resetting kOptim!
         Caused by energies and gradients which are inconsistent with a convex e
 nergy functional.
 kOptim=                     2 -> kOptim=                     1
  14  -174.279284921  -292.410928018    92.731136973  -1.76E-03*   6.54E-02*   1.87E-02*    8.97E-02   3.52E+01   QNRc2DIIS    0.
 DIIS_X: Resetting BFGS depth!
         Too large B matrix values.
  15  -174.281014031  -292.417091273    92.735571119  -1.73E-03*   3.07E-02*   1.82E-02*    9.03E-02   3.52E+01   QNRc2DIIS    0.
  16  -174.281805334  -292.420328684    92.738017227  -7.91E-04*   1.28E+00*   1.78E-02*    4.28E-02   3.52E+01   QNRc2DIIS    0.
  17  -174.214486660  -292.662759786    93.047767002   6.73E-02*   7.86E-01*   1.39E-01*    1.98E+00   3.53E+01   QNRc2DIIS    0.
  18  -174.287083890  -292.498085676    92.810495663  -7.26E-02*   9.81E-02*   9.81E-03*    1.30E+00   3.52E+01   QNRc2DIIS    0.
  19  -174.287802952  -292.484105348    92.795796272  -7.19E-04*   4.42E-02*   1.15E-03*    1.50E-01   3.52E+01   QNRc2DIIS    0.
  20  -174.287635382  -292.492601882    92.804460376   1.68E-04*   3.97E-02*   4.86E-03*    6.81E-02   3.52E+01   QNRc2DIIS    0.
  21  -174.287797534  -292.486001643    92.797697985  -1.62E-04*   1.73E-03*   1.26E-03*    6.07E-02   3.52E+01   QNRc2DIIS    0.
  22  -174.287794409  -292.486092945    92.797792412   3.12E-06*   1.51E-02*   1.41E-03*    2.58E-03   3.52E+01   QNRc2DIIS    0.
  23  -174.287809780  -292.483221745    92.794905842  -1.54E-05*   1.31E-03*   1.16E-04     2.31E-02   3.52E+01   QNRc2DIIS    0.
  24  -174.287809886  -292.482997442    92.794681432  -1.06E-07*   1.00E-04    5.04E-06     2.00E-03   3.52E+01   QNRc2DIIS    0.
  25  -174.287809886  -292.482979417    92.794663408  -8.36E-11    4.78E-05    3.55E-06     1.54E-04   3.52E+01   QNRc2DIIS    0.
 
       Convergence after  25 Macro Iterations
--
 
 *****************************************************************************************************************************
 *                                                                                                                           *
 *                                             SCF/KS-DFT Program, Final results                                             *
 *                                                                                                                           *
 *                                                                                                                           *
 *                                                                                                                           *
 *                                                       Final Results                                                       *
 *                                                                                                                           *
 *****************************************************************************************************************************
 
::    Total SCF energy                               -174.2878098863
      One-electron energy                            -292.4829794174
      Two-electron energy                              92.7946634078
      Nuclear repulsion energy                         25.4005061233
      Kinetic energy (interpolated)                   175.2399489356
      Virial theorem                                    0.9945666553
      Total spin, S(S+1)                                1.1723269808
      Total spin, S                                     0.6926135086
      Max non-diagonal density matrix element           0.0000350807
      Max non-diagonal Fock matrix element              0.0000116146
 
 
      All orbitals with orbital energies smaller than  E(LUMO)+0.5 are printed
 
++    Molecular orbitals:
      -------------------
 
      Title: UHF orbitals (alpha)

      Molecular orbitals for symmetry species 1: a  
 
          Orbital            1         2         3         4         5         6         7         8         9        10    
          Energy          -26.4105  -20.8369   -1.6550   -1.3921   -0.8007   -0.7621   -0.7248   -0.6773   -0.6316    0.1282
          Occ. No.          1.0000    1.0000    1.0000    1.0000    1.0000    1.0000    1.0000    1.0000    1.0000    0.0000
 
        1 F1     1s         1.0000   -0.0001   -0.0041   -0.0094    0.0000    0.0000    0.0215    0.0000   -0.0000    0.0180
        2 F1     2s        -0.0037   -0.0005    0.7800   -0.5879    0.0000    0.0000    0.3063    0.0000   -0.0000    0.2195
        3 F1     2px        0.0000    0.0000    0.0000   -0.0000    0.4689   -0.4433    0.0000   -0.6870    0.3570    0.0000
        4 F1     2py        0.0000   -0.0000    0.0000    0.0000    0.3209    0.6478   -0.0000   -0.4701   -0.5217    0.0000
        5 F1     2pz        0.0005   -0.0003    0.0561    0.0699   -0.0000   -0.0000   -0.3792    0.0000    0.0000    0.9825
        6 O2     1s        -0.0000    1.0000   -0.0079    0.0017    0.0000    0.0000    0.0073   -0.0000   -0.0000   -0.0248
        7 O2     2s        -0.0002    0.0013    0.4621    0.8717    0.0000    0.0000    0.1216   -0.0000   -0.0000   -0.3210
        8 O2     2px       -0.0000    0.0000   -0.0000   -0.0000    0.6233   -0.2991   -0.0000    0.5507   -0.4842   -0.0000
        9 O2     2py       -0.0000    0.0000   -0.0000   -0.0000    0.4265    0.4371   -0.0000    0.3769    0.7076   -0.0000
       10 O2     2pz        0.0001   -0.0008   -0.1113    0.0416    0.0000    0.0000    0.8666    0.0000   -0.0000    0.5975
--
 
 
      Input file to MOLDEN was generated!
 
 
++    Static properties:
      ------------------
 
 
      LoProp Charges per center
 

                   F1       O2    
      Nuclear      9.0000   8.0000
      Electronic  -9.0632  -7.9368
 
      Total       -0.0632   0.0632
--
 
 
      All orbitals with orbital energies smaller than  E(LUMO)+0.5 are printed
 
++    Molecular orbitals:
      -------------------
 
      Title: UHF orbitals (beta)

      Molecular orbitals for symmetry species 1: a  
 
          Orbital            1         2         3         4         5         6         7         8         9        10    
          Energy          -26.4362  -20.7804   -1.7080   -1.2106   -0.7687   -0.7678   -0.7433   -0.5877    0.0774    0.1544
          Occ. No.          1.0000    1.0000    1.0000    1.0000    1.0000    1.0000    1.0000    1.0000    0.0000    0.0000
 
        1 F1     1s         1.0000   -0.0000   -0.0006   -0.0098    0.0000    0.0030   -0.0000    0.0000   -0.0000    0.0277
        2 F1     2s        -0.0026   -0.0001    0.9387   -0.3339    0.0000    0.0492   -0.0000    0.0000   -0.0000    0.3180
        3 F1     2px       -0.0000    0.0000   -0.0000   -0.0000   -0.5153    0.0000    0.8139    0.2418   -0.1711    0.0000
        4 F1     2py       -0.0000   -0.0000   -0.0000   -0.0000    0.7530   -0.0000    0.5570   -0.3533   -0.1171    0.0000
        5 F1     2pz        0.0006    0.0000    0.0776    0.2543   -0.0000   -0.8939    0.0000   -0.0000   -0.0000    0.4974
        6 O2     1s        -0.0000    1.0000   -0.0085   -0.0018    0.0000    0.0220   -0.0000    0.0000    0.0000   -0.0140
        7 O2     2s        -0.0003   -0.0019    0.1664    0.8982    0.0000    0.4645   -0.0000    0.0000   -0.0000   -0.2024
        8 O2     2px        0.0000    0.0000   -0.0000    0.0000   -0.1758    0.0000    0.0686   -0.5413    0.8289    0.0000
        9 O2     2py       -0.0000    0.0000   -0.0000    0.0000    0.2569   -0.0000    0.0469    0.7911    0.5672    0.0000
       10 O2     2pz        0.0002   -0.0006   -0.0610   -0.0133    0.0000    0.2739   -0.0000    0.0000   -0.0000    1.0214
--
 
 
++    Molecular charges:
      ------------------
 
      Mulliken charges per centre and basis function type
      ---------------------------------------------------
 
                            F1                      O2    
                     alpha        beta       alpha        beta
      1s           1.0000      1.0000      1.0000      1.0000
      2s           0.9938      0.9867      0.9806      0.9920
      2px          1.0000      0.9884      1.0000      0.3306
      2pz          0.2296      0.8809      0.7959      0.1405
      2py          1.0000      0.9945      1.0000      0.6865
      Total        4.2235      4.8504      4.7765      3.1496
      Total              9.0739                  7.9261
 
      Charge           -0.0739                  0.0739
 
      Total electronic charge=   17.000000
 
      Total            charge=   -0.000000
--
 
 
      Input file to MOLDEN was generated!
 
 
++    Static properties:
      ------------------
 
 
      LoProp Charges per center
 

                   F1       O2    
      Nuclear      9.0000   8.0000
      Electronic  -9.0632  -7.9368
 
      Total       -0.0632   0.0632
--
 
 
++    Natural Bond Order analysis
      ---------------------------
      Based on LoProp computed density
      -------------------------------------------------------------------------------------
      Atom A       Atom B       Bond Order
      -------------------------------------------------------------------------------------
      NBO located      1.000 non-bonded electrons on atom F1        
      NBO located      0.990 non-bonded electrons on atom F1        
      NBO located      0.978 non-bonded electrons on atom F1        
      NBO located      0.994 non-bonded electrons on atom F1        
      The remaining    4.526 electrons are to be considered as diffuse
--
 
 
++    Molecular orbitals:
      -------------------
 
      Title: Natural orbitals

      Molecular orbitals for symmetry species 1: a  
 
          Orbital            1         2         3         4         5         6         7         8         9        10    
          Energy          -26.4233  -20.8085   -1.6488   -1.3169   -0.7424   -0.7603   -0.6148   -0.6550   -0.3295    0.0327
          Occ. No.          2.0000    2.0000    2.0000    2.0000    2.0000    2.0000    2.0000    1.7533    1.0000    0.2467
 
        1 F1     1s         1.0000   -0.0001    0.0019    0.0092   -0.0000   -0.0000   -0.0000    0.0140    0.0000   -0.0244
        2 F1     2s        -0.0037   -0.0004   -0.8082    0.5838    0.0000    0.0000   -0.0000    0.1422    0.0000   -0.2861
        3 F1     2px        0.0000   -0.0000    0.0000   -0.0000    0.8140   -0.4433    0.3570   -0.0000   -0.1708   -0.0000
        4 F1     2py        0.0000   -0.0000    0.0000    0.0000    0.5570    0.6478   -0.5217   -0.0000   -0.1169   -0.0000
        5 F1     2pz        0.0004   -0.0005   -0.0176   -0.0656    0.0000    0.0000    0.0000   -0.7000    0.0000   -0.7889
        6 O2     1s        -0.0000    1.0000    0.0071   -0.0018   -0.0000   -0.0000   -0.0000    0.0156   -0.0000    0.0207
        7 O2     2s        -0.0002    0.0014   -0.4701   -0.8735    0.0000    0.0000    0.0000    0.1720   -0.0000    0.2786
        8 O2     2px        0.0000    0.0000   -0.0000   -0.0000    0.0682   -0.2991   -0.4842    0.0000    0.8289    0.0000
        9 O2     2py       -0.0000   -0.0000    0.0000    0.0000    0.0467    0.4371    0.7076   -0.0000    0.5673    0.0000
       10 O2     2pz        0.0003   -0.0003    0.0233   -0.0509   -0.0000    0.0000    0.0000    0.6121    0.0000   -0.8627
--
 
 
++    Molecular properties:
      ---------------------
 
      Charge (e):
                      =   -0.0000
      Dipole Moment (Debye):
      Origin of the operator (Ang)=    0.0000    0.0000    0.0000
                   X= -9.3336E-15               Y=  8.4517E-14               Z=  3.2061E-01           Total=  3.2061E-01
      Quadrupole Moment (Debye*Ang):
      Origin of the operator (Ang)=    0.0000    0.0000    0.6856
                  XX= -1.0262E+01              XY=  4.9591E-01              XZ= -4.9347E-15              YY= -1.0647E+01
                  YZ=  4.3993E-14              ZZ= -9.9746E+00
      In traceless form (Debye*Ang)
                  XX=  4.9018E-02              XY=  7.4387E-01              XZ= -7.4021E-15              YY= -5.2894E-01
                  YZ=  6.5990E-14              ZZ=  4.7992E-01
--
 
 
      Input file to MOLDEN was generated!
 
 ###############################################################################
 ###############################################################################
 ###                                                                         ###
 ###                                                                         ###
 ###    WARNING: RunFile label nBas                                          ###
 ###    was used       87 times                                              ###
 ###                                                                         ###
 ###                                                                         ###
 ###############################################################################
 ###############################################################################
--- Stop Module: scf at Thu Apr 25 13:57:08 2024 /rc=_RC_ALL_IS_WELL_ ---
*** files: 1.50.LprOrb 1.50.LoProp.molden 1.50.scf.molden 1.50.scf.h5 1.50.UhfOrb 1.50.UnaOrb xmldump
    saved to directory /home/grierjones/DDCASPT2/delta_ML/FO/1.50

*** symbolic link created: INPORB -> 1.50.UnaOrb
--- Start Module: mbpt2 at Thu Apr 25 13:57:08 2024 ---
 
()()()()()()()()()()()()()()()()()()()()()()()()()()()()()()()()()()()()()()()()()()()()()()()()()()

                                               &MBPT2

                                   only a single process is used
                       available to each process: 2.0 GB of memory, 1 thread?
                                            pid: 110047
()()()()()()()()()()()()()()()()()()()()()()()()()()()()()()()()()()()()()()()()()()()()()()()()()()
 
 
 ###############################################################################
 ###############################################################################
 ###                                                                         ###
 ###                                                                         ###
 ###    WARNING: MP2 implementation intended for RHF references only         ###
 ###                                                                         ###
 ###                                                                         ###
 ###############################################################################
 ###############################################################################
MBPT2 WARNING: Reference function according to RunFile:UHF-SCF 
I'll assume you know what you're doing and continue
 
 
WARNING!
Default frozen orbitals as non valence orbitals is overwritten by user input.
Default values:   2
 
 
      Cartesian coordinates in Angstrom:
      -----------------------------------------------------
      No.  Label        X            Y            Z        
      -----------------------------------------------------
       1   F1         0.00000000   0.00000000   0.00000000
       2   O2         0.00000000   0.00000000   1.50000000
      -----------------------------------------------------
      Nuclear repulsion energy =   25.40050612
 
      Contents of RUNFILE file:
      -------------------------
 
      Symmetry species                           1
                                                 a
      Number of basis functions                 10
      Frozen occupied orbitals                   0
      Active occupied orbitals                   9
      Active external orbitals                   1
      Deleted external orbitals                  0
 
 
      Energies of the active occupied orbitals
 
      symmetry species 1                   -26.410487    -20.836893     -1.655011     -1.392077     -0.800662
                                            -0.762072     -0.724827     -0.677317     -0.631646
 
 
      Energies of the active external orbitals
 
      symmetry species 1                     0.128224
 
 
      ********************************************************************************************************
      *                                               Results                                                *
      ********************************************************************************************************
 
 Conventional algorithm used...

       SCF energy                           =     -174.2878098863 a.u.
       Second-order correlation energy      =       -0.0257343185 a.u.

       Total energy                         =     -174.3135442048 a.u.
       Reference weight ( Cref**2 )         =        0.98725
 
::    Total MBPT2 energy                             -174.3135442048
 
 
       Zeroth-order energy (E0)             =      -82.3814788440 a.u.
 
       Shanks-type energy S1(E)             =     -174.3135514126 a.u.
 
 


       Data processing and timing information:

       Section                                              time(sec)
                                                          CPU  Elapsed

      Input data processing                              0.00      0.04
      Transformation of integrals                        0.00      0.01
      MBPT2 calculations (BJAI)                          0.00      0.00
      Total MBPT2 calculations                           0.00      0.05
 
 
--- Stop Module: mbpt2 at Thu Apr 25 13:57:08 2024 /rc=_RC_ALL_IS_WELL_ ---
*** files: xmldump
    saved to directory /home/grierjones/DDCASPT2/delta_ML/FO/1.50

*** symbolic link created: INPORB -> 1.50.UnaOrb
--- Start Module: rasscf at Thu Apr 25 13:57:08 2024 ---
 
()()()()()()()()()()()()()()()()()()()()()()()()()()()()()()()()()()()()()()()()()()()()()()()()()()

                                              &RASSCF

                                   only a single process is used
                       available to each process: 2.0 GB of memory, 1 thread?
                                            pid: 110051
()()()()()()()()()()()()()()()()()()()()()()()()()()()()()()()()()()()()()()()()()()()()()()()()()()
 
 
      Header of the ONEINT file:
      --------------------------
      
      Integrals generated by Gateway/Seward, Thu Apr 25 13:57:06 2024
 
 
      OrdInt status: non-squared
 
 
      Cartesian coordinates in Angstrom:
      -----------------------------------------------------
      No.  Label        X            Y            Z        
      -----------------------------------------------------
       1   F1         0.00000000   0.00000000   0.00000000
       2   O2         0.00000000   0.00000000   1.50000000
      -----------------------------------------------------
      Nuclear repulsion energy =   25.40050612
 
++    Wave function specifications:
      -----------------------------
 
      Number of closed shell electrons          16
      Number of electrons in active shells       1
      Max number of holes in RAS1 space          0
      Max nr of electrons in RAS3 space          0
      Number of inactive orbitals                8
      Number of active orbitals                  2
      Number of secondary orbitals               0
      Spin quantum number                      0.5
      State symmetry                             1
--
 
++    Orbital specifications:
      -----------------------
 
      Symmetry species                           1
                                                 a
      Frozen orbitals                            0
      Inactive orbitals                          8
      Active orbitals                            2
      RAS1 orbitals                              0
      RAS2 orbitals                              2
      RAS3 orbitals                              0
      Secondary orbitals                         0
      Deleted orbitals                           0
      Number of basis functions                 10
--
 
++    CI expansion specifications:
      ----------------------------
 
      Number of CSFs                             2
      Number of determinants                     2
      Number of root(s) required                 1
      Root chosen for geometry opt.              1
      CI root used                               1
         
      highest root included in the CI            1
      max. size of the explicit Hamiltonian      2
--
 
++    Optimization specifications:
      ----------------------------
 
      RASSCF algorithm: Conventional
      Maximum number of macro iterations       200
      Maximum number of SX iterations          100
      Threshold for RASSCF energy            1.000E-08
      Threshold for max MO rotation          1.000E-01
      Threshold for max BLB element          1.000E-04
      Level shift parameter                  5.000E-01
      Make Quasi-Newton update
--
 
      The MO-coefficients are taken from the file:
      /home/grierjones/DDCASPT2/delta_ML/FO/1.40/1.40.RasOrb                                                                                                                                                                                                          
      Title: RASSCF average (pseudo-natural) orbitals                                      
 
      Total molecular charge    0.00
 
      ************************************************************************************************************************
      *                                                                                                                      *
      *                                            Wave function control section                                             *
      *                                                                                                                      *
      ************************************************************************************************************************
 
 
                                         RASSCF iterations: Energy and convergence statistics
                                         ----------------------------------------------------
 
      Iter CI   SX   CI       RASSCF       Energy    max ROT     max BLB   max BLB  Level Ln srch  Step   QN   Walltime
          iter iter root      energy       change     param      element    value   shift minimum  type update hh:mm:ss
 Nr of preliminary CI iterations:   1
 ###############################################################################
 ###############################################################################
 ###                                                                         ###
 ###                                                                         ###
 ###    WARNING: Problems in orbital optimization.                           ###
 ###                                                                         ###
 ###                                                                         ###
 ###############################################################################
 ###############################################################################
  Warning: In symmetry  1, orbital p=  10 has diagonal density matrix element D(p,p) close to zero. D(p,p)=  4.925845E-28
        1   1    4    1  -174.26663171    0.00E+00  -2.28E-02    4  10 1  3.68E-02*  0.22   0.00    SX    NO    0:00:00
 ###############################################################################
 ###############################################################################
 ###                                                                         ###
 ###                                                                         ###
 ###    WARNING: Problems in orbital optimization.                           ###
 ###                                                                         ###
 ###                                                                         ###
 ###############################################################################
 ###############################################################################
  Warning: In symmetry  1, orbital p=  10 has diagonal density matrix element D(p,p) close to zero. D(p,p)=  4.491508E-28
        2   1    4    1  -174.26764508   -1.01E-03* -6.54E-03    4  10 1  1.40E-02*  0.23   0.00    SX    NO    0:00:00
 ###############################################################################
 ###############################################################################
 ###                                                                         ###
 ###                                                                         ###
 ###    WARNING: Problems in orbital optimization.                           ###
 ###                                                                         ###
 ###                                                                         ###
 ###############################################################################
 ###############################################################################
  Warning: In symmetry  1, orbital p=  10 has diagonal density matrix element D(p,p) close to zero. D(p,p)=  4.267446E-28
        3   1    4    1  -174.26779220   -1.47E-04* -3.53E-03    4  10 1  4.92E-03*  0.23   0.00    SX    NO    0:00:00
 ###############################################################################
 ###############################################################################
 ###                                                                         ###
 ###                                                                         ###
 ###    WARNING: Problems in orbital optimization.                           ###
 ###                                                                         ###
 ###                                                                         ###
 ###############################################################################
 ###############################################################################
  Warning: In symmetry  1, orbital p=  10 has diagonal density matrix element D(p,p) close to zero. D(p,p)=  4.133017E-28
        4   1    4    1  -174.26781842   -2.62E-05* -1.67E-03    4  10 1  1.76E-03*  0.22   0.00    SX    NO    0:00:00
 ###############################################################################
 ###############################################################################
 ###                                                                         ###
 ###                                                                         ###
 ###    WARNING: Problems in orbital optimization.                           ###
 ###                                                                         ###
 ###                                                                         ###
 ###############################################################################
 ###############################################################################
  Warning: In symmetry  1, orbital p=  10 has diagonal density matrix element D(p,p) close to zero. D(p,p)=  4.062375E-28
        5   1    4    1  -174.26782345   -5.03E-06* -1.33E-03    4  10 1  6.36E-04*  0.22   1.80    LS   YES    0:00:00
 ###############################################################################
 ###############################################################################
 ###                                                                         ###
 ###                                                                         ###
 ###    WARNING: Problems in orbital optimization.                           ###
 ###                                                                         ###
 ###                                                                         ###
 ###############################################################################
 ###############################################################################
  Warning: In symmetry  1, orbital p=  10 has diagonal density matrix element D(p,p) close to zero. D(p,p)=  4.006779E-28
        6   1    3    1  -174.26782469   -1.24E-06* -1.03E-04    4  10 1 -2.62E-04*  0.22   1.00    QN   YES    0:00:00
 ###############################################################################
 ###############################################################################
 ###                                                                         ###
 ###                                                                         ###
 ###    WARNING: Problems in orbital optimization.                           ###
 ###                                                                         ###
 ###                                                                         ###
 ###############################################################################
 ###############################################################################
  Warning: In symmetry  1, orbital p=  10 has diagonal density matrix element D(p,p) close to zero. D(p,p)=  3.997711E-28
        7   1    3    1  -174.26782473   -4.19E-08* -5.79E-05    4  10 1 -1.01E-04*  0.22   1.62    QN   YES    0:00:00
 ###############################################################################
 ###############################################################################
 ###                                                                         ###
 ###                                                                         ###
 ###    WARNING: Problems in orbital optimization.                           ###
 ###                                                                         ###
 ###                                                                         ###
 ###############################################################################
 ###############################################################################
  Warning: In symmetry  1, orbital p=  10 has diagonal density matrix element D(p,p) close to zero. D(p,p)=  3.992230E-28
        8   1    2    1  -174.26782474   -7.16E-09   6.37E-07    3  10 1 -2.52E-06   0.22   1.00    QN   YES    0:00:00
      Convergence after  8 iterations
        9   1    2    1  -174.26782474   -1.99E-12   6.37E-07    3  10 1 -7.95E-07   0.22   1.00    QN   YES    0:00:00
 
      ************************************************************************************************************************
                                                      Wave function printout:
                       occupation of active orbitals, and spin coupling of open shells (u,d: Spin up or down)
      ************************************************************************************************************************
 
      Note: transformation to natural orbitals
      has been made, which may change the order of the CSFs.
 
      printout of CI-coefficients larger than  0.05 for root  1
      energy=    -174.267825
      conf/sym  11     Coeff  Weight
             1  u0   1.00000 1.00000
 
      Natural orbitals and occupation numbers for root  1
      sym 1:   1.000000   0.000000
 
      ************************************************************************************************************************
      *                                                                                                                      *
      *                                                    Final results                                                     *
      *                                                                                                                      *
      ************************************************************************************************************************
 
 
++    Wave function specifications:
      -----------------------------
 
      Number of closed shell electrons          16
      Number of electrons in active shells       1
      Max number of holes in RAS1 space          0
      Max nr of electrons in RAS3 space          0
      Number of inactive orbitals                8
      Number of active orbitals                  2
      Number of secondary orbitals               0
      Spin quantum number                      0.5
      State symmetry                             1
--
 
++    Orbital specifications:
      -----------------------
 
      Symmetry species                           1
                                                 a
      Frozen orbitals                            0
      Inactive orbitals                          8
      Active orbitals                            2
      RAS1 orbitals                              0
      RAS2 orbitals                              2
      RAS3 orbitals                              0
      Secondary orbitals                         0
      Deleted orbitals                           0
      Number of basis functions                 10
--
 
++    CI expansion specifications:
      ----------------------------
 
      Number of CSFs                             2
      Number of determinants                     2
      Number of root(s) required                 1
      CI root used                               1
      highest root included in the CI            1
      Root passed to geometry opt.               1
--
 
++    Final optimization conditions:
      ------------------------------
 
      Average CI energy                            -174.26782474
      RASSCF energy for state  1                   -174.26782474
      Super-CI energy                                -0.00000000
      RASSCF energy change                           -0.00000000
      Max change in MO coefficients               5.541E-07
      Max non-diagonal density matrix element     6.372E-07
      Maximum BLB matrix element                 -7.948E-07
      (orbital pair   3,  10 in symmetry   1)
      Norm of electronic gradient            8.084E-07
--
 
 
      Final state energy(ies):
      ------------------------
 
::    RASSCF root number  1 Total energy:   -174.26782474
 
++    Molecular orbitals:
      -------------------
 
      Pseudonatural active orbitals and approximate occupation numbers
 
 
 
 
      Molecular orbitals for symmetry species 1: a  
 
 
      Orbital                 1         2         3         4         5         6         7         8         9        10
      Energy           -26.4149  -20.8657   -1.6732   -1.3227   -0.7633   -0.7347   -0.6957   -0.6281   -0.3528    0.0000
      Occ. No.           2.0000    2.0000    2.0000    2.0000    2.0000    2.0000    2.0000    2.0000    1.0000    0.0000
 
     1 F1     1s         1.0000   -0.0001   -0.0024   -0.0097    0.0000    0.0000    0.0132    0.0000    0.0000    0.0246
     2 F1     2s        -0.0031   -0.0003    0.8746   -0.4527    0.0000    0.0000    0.1918    0.0000    0.0000    0.2991
     3 F1     2px        0.0000    0.0000   -0.0000   -0.0000    0.8012   -0.1289   -0.0000   -0.5968    0.0301   -0.0000
     4 F1     2py        0.0000   -0.0000    0.0000    0.0000    0.1062    0.9729   -0.0000   -0.0791   -0.2274   -0.0000
     5 F1     2pz        0.0008   -0.0001    0.0716    0.1311   -0.0000   -0.0000   -0.6990   -0.0000   -0.0000    0.7786
     6 O2     1s        -0.0000    1.0000   -0.0082    0.0007    0.0000    0.0000    0.0160    0.0000    0.0000   -0.0205
     7 O2     2s        -0.0003   -0.0004    0.3028    0.9171    0.0000    0.0000    0.2719    0.0000    0.0000   -0.2908
     8 O2     2px        0.0000    0.0000   -0.0000    0.0000    0.4925   -0.0139   -0.0000    0.8693   -0.1317   -0.0000
     9 O2     2py       -0.0000   -0.0000   -0.0000   -0.0000    0.0653    0.1046   -0.0000    0.1152    0.9936   -0.0000
    10 O2     2pz        0.0002   -0.0009   -0.0926    0.0184    0.0000    0.0000    0.5976    0.0000    0.0000    0.8695
--
 
      Von Neumann Entropy (Root   1) =  0.50000
 

      Mulliken population analysis for root number:  1
      -----------------------------------------------
 
 
++    Molecular charges:
      ------------------
 
      Mulliken charges per centre and basis function type
      ---------------------------------------------------
 
                F1      O2    
      1s       2.0000  2.0000
      2s       1.9721  1.9618
      2px      1.9996  1.9831
      2pz      1.1728  0.8933
      2py      1.9764  1.0409
      Total    9.1209  7.8791
 
      N-E     -0.1209  0.1209
 
      Total electronic charge=   17.000000
 
      Total            charge=   -0.000000
--
 
 

      Expectation values of various properties for root number:  1
      -----------------------------------------------------------
 
 
++    Molecular properties:
      ---------------------
 
      Charge (e):
                      =   -0.0000
      Dipole Moment (Debye):
      Origin of the operator (Ang)=    0.0000    0.0000    0.0000
                   X= -7.3830E-15               Y=  7.8756E-14               Z=  5.9889E-01           Total=  5.9889E-01
      Quadrupole Moment (Debye*Ang):
      Origin of the operator (Ang)=    0.0000    0.0000    0.6856
                  XX= -1.0988E+01              XY= -1.3758E-01              XZ= -2.0467E-14              YY= -9.9680E+00
                  YZ=  7.5623E-14              ZZ= -1.0127E+01
      In traceless form (Debye*Ang)
                  XX= -9.4035E-01              XY= -2.0637E-01              XZ= -3.0700E-14              YY=  5.8927E-01
                  YZ=  1.1343E-13              ZZ=  3.5108E-01
--
 

      Mulliken spin population analysis for root number:  1
      ---------------------------------------------------
 
 
++    Molecular charges:
      ------------------
 
      Mulliken spin population per centre and basis function type
      ---------------------------------------------------
 
                F1      O2    
      1s       0.0000  0.0000
      2s       0.0000  0.0000
      2px      0.0004  0.0169
      2pz      0.0000  0.0000
      2py      0.0236  0.9591
      Total    0.0240  0.9760
 
      Total electronic spin=    1.000000
--
 
 

      LoProp population analysis for root number:  1
      -----------------------------------------------
 
 
++    LoProp analysis:
      ----------------
 
 
 
      Input file to MOLDEN was generated!
 
 
++    Static properties:
      ------------------
 
 
      LoProp Charges per center
 

                   F1       O2    
      Nuclear      9.0000   8.0000
      Electronic  -9.1067  -7.8933
 
      Total       -0.1067   0.1067
--
 
 
      Natural Bond Order analysis for root number:  1
 
++    Natural Bond Order analysis
      ---------------------------
      Based on LoProp computed density
      -------------------------------------------------------------------------------------
      Atom A       Atom B       Bond Order
        F1           O2             0.752
      -------------------------------------------------------------------------------------
      NBO located      1.504 electrons involved in    1 bonds.
      NBO located      1.000 non-bonded electrons on atom F1        
      NBO located      0.982 non-bonded electrons on atom F1        
      NBO located      0.989 non-bonded electrons on atom F1        
      The remaining    4.100 electrons are to be considered as diffuse
--
 
--
 
 
      Input file to MOLDEN was generated!
 
 
      Input file to MOLDEN was generated!
 
      Average orbitals are written to the RASORB file
      Natural orbitals for root   1 are written to the RASORB.1 file
      Spin density orbitals for root   1 are written to the SPDORB.1 file
 
--- Stop Module: rasscf at Thu Apr 25 13:57:08 2024 /rc=_RC_ALL_IS_WELL_ ---
*** files: 1.50.LprOrb 1.50.rasscf.molden 1.50.rasscf.molden.1 1.50.LoProp.molden 1.50.RasOrb 1.50.RasOrb.1 1.50.rasscf.h5 1.50.SpdOrb.1 xmldump
    saved to directory /home/grierjones/DDCASPT2/delta_ML/FO/1.50

*** symbolic link created: INPORB -> 1.50.RasOrb
--- Start Module: caspt2 at Thu Apr 25 13:57:08 2024 ---
 
()()()()()()()()()()()()()()()()()()()()()()()()()()()()()()()()()()()()()()()()()()()()()()()()()()

                                              &CASPT2

                                   only a single process is used
                       available to each process: 2.0 GB of memory, 1 thread?
                                            pid: 110055
()()()()()()()()()()()()()()()()()()()()()()()()()()()()()()()()()()()()()()()()()()()()()()()()()()
 
 ###############################################################################
 ###############################################################################
 ###                                                                         ###
 ###                                                                         ###
 ###    WARNING: User changed nr of frozen orbitals.                         ###
 ###                                                                         ###
 ###                                                                         ###
 ###############################################################################
 ###############################################################################
 
++    Wave function specifications:
      -----------------------------
 
      Number of closed shell electrons          16
      Number of electrons in active shells       1
      Max number of holes in RAS1 space          0
      Max number of electrons in RAS3 space      0
      Number of inactive orbitals                8
      Number of active orbitals                  2
      Number of secondary orbitals               0
      Spin quantum number                      0.5
      State symmetry                             1
      Number of CSFs                             2
      Number of CASSCF root(s) available         1
      CASPT2 state passed to geometry opt.       1
      A file JOBMIX will be created
      This is a CASSCF or RASSCF reference function
--
 
++    Orbital specifications:
      -----------------------
 
      Symmetry species                           1
                                                 a
      Frozen orbitals                            0
      Inactive orbitals                          8
      Active orbitals                            2
      Secondary orbitals                         0
      Deleted orbitals                           0
      Number of basis functions                 10
--
 
++    CASPT2 specifications:
      ----------------------
 
      Type of calculation                        SS-CASPT2
      Fock operator                              state-specific
      IPEA shift                                 0.25
      Real shift                                 0.00
      Imaginary shift                            0.00
      The input orbitals will be transformed to quasi-canonical
--
 
--------------------------------------------------------------------------------
 Estimated memory requirements:
  POLY3 :                   250056
  RHS:                      250422
  SIGMA :                   250432
  PRPCTL:                        0
 Available workspace:    230392719
 
++ CASPT2 computation for group   1
 
********************************************************************************
 Multi-State initialization phase begins for group   1
--------------------------------------------------------------------------------
********************************************************************************
 Compute H0 matrices for state    1
--------------------------------------------------------------------------------
--------------------------------------------------------------------------------
 H0 matrices have been computed.
 
********************************************************************************
  CASPT2 EQUATION SOLUTION
--------------------------------------------------------------------------------
 
  Total nr of CASPT2 parameters:
   Before reduction:         200
   After  reduction:         132
 
 Variance of |WF0>:       0.0911593430
 
 The contributions to the second order correlation energy in atomic units.
-----------------------------------------------------------------------------------------------------------------------------
  IT.      VJTU        VJTI        ATVX        AIVX        VJAI        BVAT        BJAT        BJAI        TOTAL       RNORM  
-----------------------------------------------------------------------------------------------------------------------------
   1    -0.000719   -0.050797    0.000000    0.000000    0.000000    0.000000    0.000000    0.000000   -0.051516    0.000076
-----------------------------------------------------------------------------------------------------------------------------
 
  FINAL CASPT2 RESULT:
 
      Reference energy:        -174.2678247384
      E2 (Non-variational):      -0.0515222676
      E2 (Variational):          -0.0515222676
      Total energy:            -174.3193470060
      Residual norm:              0.0000004031
      Reference weight:           0.96886
 
      Contributions to the CASPT2 correlation energy
      Active & Virtual Only:          0.0000000000
      One Inactive Excited:          -0.0007193481
      Two Inactive Excited:          -0.0508029196
 
 
++ Denominators, etc.
--------------------------------------------------------------------------------------------------------------
 Report on small energy denominators, large coefficients, and large energy contributions.
CASE  SYMM ACTIVE-MIX  NON-ACTIVE INDICES          DENOMINATOR     RHS VALUE       COEFFICIENT     CONTRIBUTION
VJTIP    1  Mu1.0002  In1.004 In1.004               2.78759687      0.09146241     -0.03281049     -0.00300093
VJTIP    1  Mu1.0002  In1.007 In1.003               2.51114458     -0.07233512      0.02880564     -0.00208366
VJTIP    1  Mu1.0001  In1.007 In1.006               1.27379033      0.05209141     -0.04059392     -0.00211459
VJTIP    1  Mu1.0002  In1.007 In1.007               1.53362212      0.22970236     -0.14977768     -0.03440429
VJTIM    1  Mu1.0001  In1.007 In1.006               1.27379033      0.07945282     -0.06255580     -0.00497023
--
 
   (Skipping property calculation,
    use PROP keyword to activate)
--
 
  Total CASPT2 energies:
::    CASPT2 Root  1     Total energy:   -174.31934701
 
  A NEW JOBIPH FILE NAMED 'JOBMIX' IS PREPARED.
********************************************************************************
--- Stop Module: caspt2 at Thu Apr 25 13:57:08 2024 /rc=_RC_ALL_IS_WELL_ ---
*** files: xmldump
    saved to directory /home/grierjones/DDCASPT2/delta_ML/FO/1.50

.##################.
.# Happy landing! #.
.##################.

    Timing: Wall=2.66 User=1.77 System=0.23
************************************
*** WorkDir at /tmp/1.50 removed ***
************************************
