[Molden Format]
[N_Atoms]
                     2
[Atoms] (AU)
F1          1      9           0.00000000      0.00000000      0.00000000
O2          2      8           0.00000000      0.00000000      2.83458919
[Charge] (Mulliken)
 -0.120874603092075     
  0.120874603092046     
[GTO] (AU)
   1
   s  14
  1.031094600E+05  1.713099991E-04
  1.528100700E+04  7.123999962E-04
  3.441539200E+03  2.990479984E-03
  9.670948300E+02  1.164036994E-02
  3.140353400E+02  3.968642979E-02
  1.134423000E+02  1.128546094E-01
  4.464472700E+01  2.473650687E-01
  1.894287400E+01  3.672702681E-01
  8.532743000E+00  2.896286985E-01
  3.919401000E+00  7.786681959E-02
  1.568157000E+00  4.562139976E-03
  6.232900000E-01  2.468879987E-03
  2.408610000E-01  1.106309994E-03
  8.430100000E-02  1.739699991E-04
   s  14
  1.031094600E+05 -4.044999995E-05
  1.528100700E+04 -1.682299998E-04
  3.441539200E+03 -7.084299991E-04
  9.670948300E+02 -2.767999996E-03
  3.140353400E+02 -9.611379987E-03
  1.134423000E+02 -2.833957996E-02
  4.464472700E+01 -6.839343991E-02
  1.894287400E+01 -1.237379298E-01
  8.532743000E+00 -1.512859698E-01
  3.919401000E+00 -9.099909988E-03
  1.568157000E+00  3.716257695E-01
  6.232900000E-01  5.500214393E-01
  2.408610000E-01  2.092318697E-01
  8.430100000E-02  8.074639989E-03
   p   9
  2.453302900E+02  1.024860004E-03
  5.691900500E+01  8.344290032E-03
  1.760456800E+01  4.078927016E-02
  6.274995000E+00  1.351370605E-01
  2.447030000E+00  2.798830811E-01
  9.950600000E-01  3.597966414E-01
  4.039730000E-01  3.055347412E-01
  1.548100000E-01  1.354703905E-01
  5.418400000E-02  2.804449011E-02
 
   2
   s  14
  1.053749500E+05  1.238600013E-04
  1.567924000E+04  5.120100053E-04
  3.534544700E+03  2.152910022E-03
  9.873651600E+02  8.528440089E-03
  3.159787500E+02  3.018049031E-02
  1.116542800E+02  9.099702095E-02
  4.269945100E+01  2.177936423E-01
  1.739559600E+01  3.686245738E-01
  7.438309000E+00  3.366707335E-01
  3.222862000E+00  9.657630101E-02
  1.253877000E+00  2.144520022E-03
  4.951550000E-01  1.194350012E-03
  1.916650000E-01  5.390200056E-04
  6.708300000E-02  2.103400022E-04
   s  14
  1.053749500E+05 -2.815000008E-05
  1.567924000E+04 -1.163000003E-04
  3.534544700E+03 -4.909200013E-04
  9.873651600E+02 -1.946160005E-03
  3.159787500E+02 -7.005300019E-03
  1.116542800E+02 -2.167814006E-02
  4.269945100E+01 -5.641213015E-02
  1.739559600E+01 -1.127053003E-01
  7.438309000E+00 -1.589119704E-01
  3.222862000E+00 -3.355083009E-02
  1.253877000E+00  3.531902810E-01
  4.951550000E-01  5.534199315E-01
  1.916650000E-01  2.301839106E-01
  6.708300000E-02  1.127267003E-02
   p   9
  2.000000000E+02  9.173000030E-04
  4.653336700E+01  7.377140024E-03
  1.462180900E+01  3.483515011E-02
  5.313064000E+00  1.144397004E-01
  2.102525000E+00  2.554966408E-01
  8.502230000E-01  3.722557412E-01
  3.375970000E-01  3.323314911E-01
  1.288920000E-01  1.400847905E-01
  4.511200000E-02  2.395784008E-02
 
[MO]
Sym=     1a  
Ene=   -26.4150
Spin= Alpha
Occup=    2.00000
   1         1.00000143
   2        -0.00313424
   3         0.00000000
   4         0.00000000
   5         0.00075235
   6        -0.00001784
   7        -0.00028714
   8         0.00000000
   9        -0.00000000
  10         0.00015678
Sym=     2a  
Ene=   -20.8660
Spin= Alpha
Occup=    2.00000
   1        -0.00006591
   2        -0.00032207
   3         0.00000000
   4        -0.00000000
   5        -0.00010946
   6         1.00000463
   7        -0.00044329
   8         0.00000000
   9        -0.00000000
  10        -0.00087286
Sym=     3a  
Ene=    -1.6732
Spin= Alpha
Occup=    2.00000
   1        -0.00236978
   2         0.87459182
   3        -0.00000000
   4         0.00000000
   5         0.07160432
   6        -0.00818860
   7         0.30278356
   8        -0.00000000
   9        -0.00000000
  10        -0.09258514
Sym=     4a  
Ene=    -1.3227
Spin= Alpha
Occup=    2.00000
   1        -0.00972449
   2        -0.45270934
   3        -0.00000000
   4         0.00000000
   5         0.13108495
   6         0.00072178
   7         0.91705520
   8         0.00000000
   9        -0.00000000
  10         0.01842182
Sym=     5a  
Ene=    -0.7633
Spin= Alpha
Occup=    2.00000
   1         0.00000000
   2         0.00000000
   3         0.80124154
   4         0.10620060
   5        -0.00000000
   6         0.00000000
   7         0.00000000
   8         0.49251986
   9         0.06528107
  10         0.00000000
Sym=     6a  
Ene=    -0.7347
Spin= Alpha
Occup=    2.00000
   1         0.00000000
   2         0.00000000
   3        -0.12894856
   4         0.97286591
   5        -0.00000000
   6         0.00000000
   7         0.00000000
   8        -0.01386734
   9         0.10462359
  10         0.00000000
Sym=     7a  
Ene=    -0.6957
Spin= Alpha
Occup=    2.00000
   1         0.01324421
   2         0.19176361
   3        -0.00000000
   4        -0.00000000
   5        -0.69898301
   6         0.01599732
   7         0.27190160
   8        -0.00000000
   9        -0.00000000
  10         0.59755069
Sym=     8a  
Ene=    -0.6281
Spin= Alpha
Occup=    2.00000
   1         0.00000000
   2         0.00000000
   3        -0.59681700
   4        -0.07910514
   5        -0.00000000
   6         0.00000000
   7         0.00000000
   8         0.86925411
   9         0.11521533
  10         0.00000000
Sym=     9a  
Ene=    -0.3528
Spin= Alpha
Occup=    1.00000
   1         0.00000000
   2         0.00000000
   3         0.03014065
   4        -0.22739932
   5        -0.00000000
   6         0.00000000
   7         0.00000000
   8        -0.13169619
   9         0.99359571
  10         0.00000000
Sym=    10a  
Ene=     0.0000
Spin= Alpha
Occup=    0.00000
   1         0.02463308
   2         0.29909484
   3        -0.00000000
   4        -0.00000000
   5         0.77855716
   6        -0.02046889
   7        -0.29084425
   8        -0.00000000
   9        -0.00000000
  10         0.86954143
