[Molden Format]
[N_Atoms]
                     2
[Atoms] (AU)
BE1         1      4           0.00000000      0.00000000      0.00000000
F2          2      9           0.00000000      0.00000000      2.45664396
[Charge] (Mulliken)
  0.602983759819008     
 -0.602983759819029     
[GTO] (AU)
   1
   s  14
  2.262859900E+04  8.443999941E-05
  3.372318100E+03  4.601499968E-04
  7.603504000E+02  2.285389984E-03
  2.117404800E+02  9.648129932E-03
  6.722346800E+01  3.494469975E-02
  2.337217700E+01  1.061099893E-01
  8.721373000E+00  2.458240383E-01
  3.468091000E+00  3.862428773E-01
  1.452144000E+00  3.105526078E-01
  6.086150000E-01  6.415933955E-02
  2.576860000E-01 -2.265049984E-03
  1.041760000E-01 -5.217499963E-04
  4.242700000E-02 -8.757499938E-04
  1.484900000E-02  1.242199991E-04
   s  14
  2.262859900E+04 -1.586999994E-05
  3.372318100E+03 -8.656999968E-05
  7.603504000E+02 -4.302199984E-04
  2.117404800E+02 -1.825079993E-03
  6.722346800E+01 -6.682749976E-03
  2.337217700E+01 -2.095119992E-02
  8.721373000E+00 -5.200308981E-02
  3.468091000E+00 -9.849176964E-02
  1.452144000E+00 -1.355800695E-01
  6.086150000E-01 -6.429875976E-02
  2.576860000E-01  3.125414989E-01
  1.041760000E-01  6.270468577E-01
  4.242700000E-02  2.110231492E-01
  1.484900000E-02 -4.104669985E-03
   p   9
  3.371018400E+01  1.069960000E-03
  8.057649500E+00  6.828550001E-03
  2.836471400E+00  2.119065000E-02
  1.099965700E+00  5.843696001E-02
  4.433964000E-01  2.020920800E-01
  1.822264000E-01  4.582953101E-01
  7.572410000E-02  3.691239601E-01
  3.168540000E-02  6.611471001E-02
  1.108990000E-02  1.405160000E-03
 
   2
   s  14
  1.031094600E+05  1.713099991E-04
  1.528100700E+04  7.123999962E-04
  3.441539200E+03  2.990479984E-03
  9.670948300E+02  1.164036994E-02
  3.140353400E+02  3.968642979E-02
  1.134423000E+02  1.128546094E-01
  4.464472700E+01  2.473650687E-01
  1.894287400E+01  3.672702681E-01
  8.532743000E+00  2.896286985E-01
  3.919401000E+00  7.786681959E-02
  1.568157000E+00  4.562139976E-03
  6.232900000E-01  2.468879987E-03
  2.408610000E-01  1.106309994E-03
  8.430100000E-02  1.739699991E-04
   s  14
  1.031094600E+05 -4.044999995E-05
  1.528100700E+04 -1.682299998E-04
  3.441539200E+03 -7.084299991E-04
  9.670948300E+02 -2.767999996E-03
  3.140353400E+02 -9.611379987E-03
  1.134423000E+02 -2.833957996E-02
  4.464472700E+01 -6.839343991E-02
  1.894287400E+01 -1.237379298E-01
  8.532743000E+00 -1.512859698E-01
  3.919401000E+00 -9.099909988E-03
  1.568157000E+00  3.716257695E-01
  6.232900000E-01  5.500214393E-01
  2.408610000E-01  2.092318697E-01
  8.430100000E-02  8.074639989E-03
   p   9
  2.453302900E+02  1.024860004E-03
  5.691900500E+01  8.344290032E-03
  1.760456800E+01  4.078927016E-02
  6.274995000E+00  1.351370605E-01
  2.447030000E+00  2.798830811E-01
  9.950600000E-01  3.597966414E-01
  4.039730000E-01  3.055347412E-01
  1.548100000E-01  1.354703905E-01
  5.418400000E-02  2.804449011E-02
 
[MO]
Sym=     1a  
Ene=   -26.1580
Spin= Alpha
Occup=    1.00000
   1        -0.00023437
   2        -0.00064631
   3        -0.00000000
   4         0.00000000
   5        -0.00054644
   6         1.00006171
   7        -0.00202664
   8         0.00000000
   9         0.00000000
  10        -0.00096157
Sym=     1a  
Ene=   -26.1590
Spin= Beta
Occup=    1.00000
   1        -0.00024261
   2        -0.00065813
   3        -0.00000000
   4         0.00000000
   5        -0.00057758
   6         1.00006454
   7        -0.00193441
   8         0.00000000
   9         0.00000000
  10        -0.00096128
Sym=     2a  
Ene=    -4.7962
Spin= Alpha
Occup=    1.00000
   1         0.99888961
   2         0.00199570
   3         0.00000000
   4         0.00000000
   5        -0.00016803
   6        -0.00061074
   7         0.00674073
   8         0.00000000
   9        -0.00000000
  10        -0.00621981
Sym=     2a  
Ene=    -4.7756
Spin= Beta
Occup=    1.00000
   1         0.99893565
   2         0.00203724
   3         0.00000000
   4         0.00000000
   5         0.00097963
   6        -0.00068838
   7         0.00614204
   8         0.00000000
   9        -0.00000000
  10        -0.00608731
Sym=     3a  
Ene=    -1.5569
Spin= Alpha
Occup=    1.00000
   1        -0.07178561
   2         0.03663632
   3         0.00000000
   4        -0.00000000
   5         0.06300485
   6        -0.00343332
   7         0.94528449
   8        -0.00000000
   9         0.00000000
  10        -0.13321760
Sym=     3a  
Ene=    -1.5605
Spin= Beta
Occup=    1.00000
   1        -0.07125420
   2         0.03415637
   3         0.00000000
   4        -0.00000000
   5         0.06083948
   6        -0.00324201
   7         0.94830341
   8        -0.00000000
   9         0.00000000
  10        -0.12737913
Sym=     4a  
Ene=    -0.6767
Spin= Alpha
Occup=    1.00000
   1         0.10416448
   2        -0.08806104
   3        -0.00000000
   4        -0.00000000
   5        -0.10390846
   6         0.01190476
   7         0.22996120
   8        -0.00000000
   9        -0.00000000
  10         0.95849534
Sym=     4a  
Ene=    -0.6715
Spin= Beta
Occup=    1.00000
   1         0.10495381
   2        -0.06874162
   3        -0.00000000
   4        -0.00000000
   5        -0.11961949
   6         0.01213377
   7         0.22404778
   8        -0.00000000
   9        -0.00000000
  10         0.96182047
Sym=     5a  
Ene=    -0.6108
Spin= Alpha
Occup=    1.00000
   1         0.00000000
   2        -0.00000000
   3        -0.02277276
   4         0.16475902
   5        -0.00000000
   6         0.00000000
   7         0.00000000
   8        -0.12858547
   9         0.93030529
  10         0.00000000
Sym=     5a  
Ene=    -0.6216
Spin= Beta
Occup=    1.00000
   1         0.00000000
   2        -0.00000000
   3        -0.00907165
   4         0.12655422
   5        -0.00000000
   6         0.00000000
   7         0.00000000
   8        -0.06834603
   9         0.95346266
  10         0.00000000
Sym=     6a  
Ene=    -0.6108
Spin= Alpha
Occup=    1.00000
   1         0.00000000
   2        -0.00000000
   3         0.16475902
   4         0.02277276
   5        -0.00000000
   6         0.00000000
   7         0.00000000
   8         0.93030529
   9         0.12858547
  10         0.00000000
Sym=     6a  
Ene=    -0.6216
Spin= Beta
Occup=    1.00000
   1         0.00000000
   2        -0.00000000
   3         0.12655422
   4         0.00907165
   5        -0.00000000
   6         0.00000000
   7         0.00000000
   8         0.95346266
   9         0.06834603
  10         0.00000000
Sym=     7a  
Ene=    -0.3533
Spin= Alpha
Occup=    1.00000
   1         0.01867500
   2         0.87100619
   3         0.00000000
   4         0.00000000
   5        -0.51394906
   6        -0.00139749
   7        -0.05849582
   8         0.00000000
   9         0.00000000
  10         0.15089795
Sym=     7a  
Ene=     0.0549
Spin= Beta
Occup=    0.00000
   1         0.02528790
   2         0.94188277
   3         0.00000000
   4         0.00000000
   5        -0.40182246
   6        -0.01213390
   7        -0.14602903
   8         0.00000000
   9         0.00000000
  10         0.16573324
Sym=     8a  
Ene=     0.1225
Spin= Alpha
Occup=    0.00000
   1        -0.00000000
   2        -0.00000000
   3        -0.67148935
   4         0.78273571
   5        -0.00000000
   6        -0.00000000
   7         0.00000000
   8         0.29783295
   9        -0.34717525
  10        -0.00000000
Sym=     8a  
Ene=     0.1805
Spin= Beta
Occup=    0.00000
   1        -0.00000000
   2        -0.00000000
   3        -0.48309308
   4         0.91747484
   5        -0.00000000
   6         0.00000000
   7         0.00000000
   8         0.19627598
   9        -0.37276103
  10        -0.00000000
Sym=     9a  
Ene=     0.1225
Spin= Alpha
Occup=    0.00000
   1        -0.00000000
   2         0.00000000
   3        -0.78273571
   4        -0.67148935
   5         0.00000000
   6        -0.00000000
   7        -0.00000000
   8         0.34717525
   9         0.29783295
  10        -0.00000000
Sym=     9a  
Ene=     0.1805
Spin= Beta
Occup=    0.00000
   1        -0.00000000
   2         0.00000000
   3        -0.91747484
   4        -0.48309308
   5         0.00000000
   6        -0.00000000
   7        -0.00000000
   8         0.37276103
   9         0.19627598
  10        -0.00000000
Sym=    10a  
Ene=     0.3960
Spin= Alpha
Occup=    0.00000
   1         0.08871686
   2         0.74039753
   3        -0.00000000
   4         0.00000000
   5         1.08049656
   6        -0.10561268
   7        -0.84185922
   8        -0.00000000
   9        -0.00000000
  10         0.39367736
Sym=    10a  
Ene=     0.4298
Spin= Beta
Occup=    0.00000
   1         0.08601699
   2         0.65030904
   3         0.00000000
   4         0.00000000
   5         1.12557120
   6        -0.10487502
   7        -0.82933736
   8        -0.00000000
   9        -0.00000000
  10         0.38134284
