[Molden Format]
[N_Atoms]
                     2
[Atoms] (AU)
C1          1      6           0.00000000      0.00000000      0.00000000
C2          2      6           0.00000000      0.00000000      3.77945225
[Charge] (Mulliken)
   1.00695230454404     
  0.993047695455934     
[GTO] (AU)
   1
   s  14
  5.055750100E+04  1.128874000E-04
  7.524785600E+03  5.295373000E-04
  1.694327600E+03  2.450038300E-03
  4.728227900E+02  1.005398470E-02
  1.517107500E+02  3.545398060E-02
  5.391874600E+01  1.044071086E-01
  2.065931100E+01  2.412894918E-01
  8.383976000E+00  3.834225483E-01
  3.577015000E+00  3.078514393E-01
  1.547118000E+00  6.872442990E-02
  6.130130000E-01  2.224445000E-04
  2.460680000E-01  1.976748900E-03
  9.908700000E-02  2.057859400E-03
  3.468000000E-02  4.182020000E-04
   s  14
  5.055750100E+04 -2.507420000E-05
  7.524785600E+03 -1.175945000E-04
  1.694327600E+03 -5.456275000E-04
  4.728227900E+02 -2.245077100E-03
  1.517107500E+02 -8.043471800E-03
  5.391874600E+01 -2.442588710E-02
  2.065931100E+01 -6.136791180E-02
  8.383976000E+00 -1.177767835E-01
  3.577015000E+00 -1.550487783E-01
  1.547118000E+00 -1.933316860E-02
  6.130130000E-01  3.996930678E-01
  2.460680000E-01  5.589420949E-01
  9.908700000E-02  1.711195023E-01
  3.468000000E-02  7.456244600E-03
   p   9
  8.333315500E+01  1.344656000E-03
  1.955761100E+01  1.023555500E-02
  6.080365000E+00  4.520067100E-02
  2.179317000E+00  1.410756198E-01
  8.651500000E-01  3.047388085E-01
  3.619440000E-01  3.995281011E-01
  1.547400000E-01  2.719163432E-01
  6.542900000E-02  5.857669330E-02
  2.290000000E-02 -1.263813000E-04
 
   2
   s  14
  5.055750100E+04  1.128874000E-04
  7.524785600E+03  5.295373000E-04
  1.694327600E+03  2.450038300E-03
  4.728227900E+02  1.005398470E-02
  1.517107500E+02  3.545398060E-02
  5.391874600E+01  1.044071086E-01
  2.065931100E+01  2.412894918E-01
  8.383976000E+00  3.834225483E-01
  3.577015000E+00  3.078514393E-01
  1.547118000E+00  6.872442990E-02
  6.130130000E-01  2.224445000E-04
  2.460680000E-01  1.976748900E-03
  9.908700000E-02  2.057859400E-03
  3.468000000E-02  4.182020000E-04
   s  14
  5.055750100E+04 -2.507420000E-05
  7.524785600E+03 -1.175945000E-04
  1.694327600E+03 -5.456275000E-04
  4.728227900E+02 -2.245077100E-03
  1.517107500E+02 -8.043471800E-03
  5.391874600E+01 -2.442588710E-02
  2.065931100E+01 -6.136791180E-02
  8.383976000E+00 -1.177767835E-01
  3.577015000E+00 -1.550487783E-01
  1.547118000E+00 -1.933316860E-02
  6.130130000E-01  3.996930678E-01
  2.460680000E-01  5.589420949E-01
  9.908700000E-02  1.711195023E-01
  3.468000000E-02  7.456244600E-03
   p   9
  8.333315500E+01  1.344656000E-03
  1.955761100E+01  1.023555500E-02
  6.080365000E+00  4.520067100E-02
  2.179317000E+00  1.410756198E-01
  8.651500000E-01  3.047388085E-01
  3.619440000E-01  3.995281011E-01
  1.547400000E-01  2.719163432E-01
  6.542900000E-02  5.857669330E-02
  2.290000000E-02 -1.263813000E-04
 
[MO]
Sym=     1a  
Ene=   -12.3160
Spin= Alpha
Occup=    2.00000
   1         0.99980996
   2        -0.01653877
   3        -0.00000000
   4         0.00000000
   5        -0.00080311
   6         0.00952870
   7         0.00234156
   8        -0.00000000
   9         0.00000000
  10         0.00073838
Sym=     2a  
Ene=   -12.3110
Spin= Alpha
Occup=    2.00000
   1        -0.00946305
   2        -0.00008531
   3         0.00000000
   4         0.00000000
   5        -0.00000821
   6         0.99994735
   7        -0.00459024
   8        -0.00000000
   9         0.00000000
  10         0.00004438
Sym=     3a  
Ene=    -1.4780
Spin= Alpha
Occup=    2.00000
   1        -0.01335867
   2        -0.00605929
   3        -0.00000000
   4         0.00000000
   5         0.08668373
   6         0.00229551
   7         0.96980677
   8        -0.00000000
   9         0.00000000
  10        -0.09185266
Sym=     4a  
Ene=    -1.0255
Spin= Alpha
Occup=    2.00000
   1        -0.00000000
   2         0.00000000
   3        -0.25150126
   4         0.61195824
   5         0.00000000
   6        -0.00000000
   7        -0.00000000
   8        -0.25637360
   9         0.62381372
  10        -0.00000000
Sym=     5a  
Ene=    -0.6584
Spin= Alpha
Occup=    0.04887
   1        -0.00000000
   2         0.00000000
   3         0.92756869
   4         0.38121016
   5        -0.00000000
   6        -0.00000000
   7         0.00000000
   8        -0.02456864
   9        -0.01009717
  10         0.00000000
Sym=     6a  
Ene=    -0.0009
Spin= Alpha
Occup=    1.95113
   1        -0.01765345
   2        -0.99988610
   3        -0.00000000
   4         0.00000000
   5        -0.06829693
   6         0.01416496
   7         0.22604255
   8        -0.00000000
   9         0.00000000
  10         0.05791429
Sym=     7a  
Ene=    -0.7433
Spin= Alpha
Occup=    0.00000
   1         0.01473632
   2         0.23616678
   3        -0.00000000
   4         0.00000000
   5        -0.64271718
   6         0.01519201
   7         0.25391875
   8        -0.00000000
   9         0.00000000
  10         0.63469460
Sym=     8a  
Ene=    -0.7052
Spin= Alpha
Occup=    0.00000
   1        -0.00000000
   2        -0.00000000
   3         0.28873292
   4        -0.70255109
   5        -0.00000000
   6         0.00000000
   7         0.00000000
   8        -0.28441547
   9         0.69204578
  10        -0.00000000
Sym=     9a  
Ene=    -0.6390
Spin= Alpha
Occup=    0.00000
   1         0.00000000
   2         0.00000000
   3        -0.08767693
   4        -0.03603328
   5        -0.00000000
   6         0.00000000
   7         0.00000000
   8         0.93137925
   9         0.38277621
  10         0.00000000
Sym=    10a  
Ene=    -0.4858
Spin= Alpha
Occup=    0.00000
   1        -0.02668132
   2        -0.25904815
   3        -0.00000000
   4         0.00000000
   5        -0.85603490
   6         0.02657877
   7         0.25853717
   8         0.00000000
   9        -0.00000000
  10        -0.86222477
