[Molden Format]
[N_Atoms]
                     2
[Atoms] (AU)
C1          1      6           0.00000000      0.00000000      0.00000000
C2          2      6           0.00000000      0.00000000      3.77945225
[Charge] (Mulliken)
 -4.233777772810754E-010
  4.233644546047799E-010
[GTO] (AU)
   1
   s  14
  5.055750100E+04  1.128874000E-04
  7.524785600E+03  5.295373000E-04
  1.694327600E+03  2.450038300E-03
  4.728227900E+02  1.005398470E-02
  1.517107500E+02  3.545398060E-02
  5.391874600E+01  1.044071086E-01
  2.065931100E+01  2.412894918E-01
  8.383976000E+00  3.834225483E-01
  3.577015000E+00  3.078514393E-01
  1.547118000E+00  6.872442990E-02
  6.130130000E-01  2.224445000E-04
  2.460680000E-01  1.976748900E-03
  9.908700000E-02  2.057859400E-03
  3.468000000E-02  4.182020000E-04
   s  14
  5.055750100E+04 -2.507420000E-05
  7.524785600E+03 -1.175945000E-04
  1.694327600E+03 -5.456275000E-04
  4.728227900E+02 -2.245077100E-03
  1.517107500E+02 -8.043471800E-03
  5.391874600E+01 -2.442588710E-02
  2.065931100E+01 -6.136791180E-02
  8.383976000E+00 -1.177767835E-01
  3.577015000E+00 -1.550487783E-01
  1.547118000E+00 -1.933316860E-02
  6.130130000E-01  3.996930678E-01
  2.460680000E-01  5.589420949E-01
  9.908700000E-02  1.711195023E-01
  3.468000000E-02  7.456244600E-03
   p   9
  8.333315500E+01  1.344656000E-03
  1.955761100E+01  1.023555500E-02
  6.080365000E+00  4.520067100E-02
  2.179317000E+00  1.410756198E-01
  8.651500000E-01  3.047388085E-01
  3.619440000E-01  3.995281011E-01
  1.547400000E-01  2.719163432E-01
  6.542900000E-02  5.857669330E-02
  2.290000000E-02 -1.263813000E-04
 
   2
   s  14
  5.055750100E+04  1.128874000E-04
  7.524785600E+03  5.295373000E-04
  1.694327600E+03  2.450038300E-03
  4.728227900E+02  1.005398470E-02
  1.517107500E+02  3.545398060E-02
  5.391874600E+01  1.044071086E-01
  2.065931100E+01  2.412894918E-01
  8.383976000E+00  3.834225483E-01
  3.577015000E+00  3.078514393E-01
  1.547118000E+00  6.872442990E-02
  6.130130000E-01  2.224445000E-04
  2.460680000E-01  1.976748900E-03
  9.908700000E-02  2.057859400E-03
  3.468000000E-02  4.182020000E-04
   s  14
  5.055750100E+04 -2.507420000E-05
  7.524785600E+03 -1.175945000E-04
  1.694327600E+03 -5.456275000E-04
  4.728227900E+02 -2.245077100E-03
  1.517107500E+02 -8.043471800E-03
  5.391874600E+01 -2.442588710E-02
  2.065931100E+01 -6.136791180E-02
  8.383976000E+00 -1.177767835E-01
  3.577015000E+00 -1.550487783E-01
  1.547118000E+00 -1.933316860E-02
  6.130130000E-01  3.996930678E-01
  2.460680000E-01  5.589420949E-01
  9.908700000E-02  1.711195023E-01
  3.468000000E-02  7.456244600E-03
   p   9
  8.333315500E+01  1.344656000E-03
  1.955761100E+01  1.023555500E-02
  6.080365000E+00  4.520067100E-02
  2.179317000E+00  1.410756198E-01
  8.651500000E-01  3.047388085E-01
  3.619440000E-01  3.995281011E-01
  1.547400000E-01  2.719163432E-01
  6.542900000E-02  5.857669330E-02
  2.290000000E-02 -1.263813000E-04
 
[MO]
Sym=     1a  
Ene=   -11.3180
Spin= Alpha
Occup=    1.00000
   1         0.70705408
   2        -0.00214680
   3         0.00000000
   4         0.00000000
   5         0.00001707
   6         0.70705340
   7        -0.00214680
   8         0.00000000
   9        -0.00000000
  10        -0.00001707
Sym=     1a  
Ene=   -11.3180
Spin= Beta
Occup=    1.00000
   1         0.70705408
   2        -0.00214680
   3         0.00000000
   4         0.00000000
   5         0.00001707
   6         0.70705340
   7        -0.00214680
   8         0.00000000
   9        -0.00000000
  10        -0.00001707
Sym=     2a  
Ene=   -11.3180
Spin= Alpha
Occup=    1.00000
   1        -0.70717674
   2         0.00144051
   3         0.00000000
   4         0.00000000
   5        -0.00052756
   6         0.70717743
   7        -0.00144051
   8         0.00000000
   9        -0.00000000
  10        -0.00052756
Sym=     2a  
Ene=   -11.3180
Spin= Beta
Occup=    1.00000
   1        -0.70717674
   2         0.00144051
   3         0.00000000
   4         0.00000000
   5        -0.00052756
   6         0.70717743
   7        -0.00144051
   8         0.00000000
   9        -0.00000000
  10        -0.00052756
Sym=     3a  
Ene=    -0.8096
Spin= Alpha
Occup=    1.00000
   1        -0.00725137
   2         0.63440292
   3        -0.00000000
   4         0.00000000
   5         0.06178259
   6        -0.00725137
   7         0.63440292
   8         0.00000000
   9         0.00000000
  10        -0.06178259
Sym=     3a  
Ene=    -0.8096
Spin= Beta
Occup=    1.00000
   1        -0.00725137
   2         0.63440292
   3        -0.00000000
   4         0.00000000
   5         0.06178259
   6        -0.00725137
   7         0.63440292
   8         0.00000000
   9         0.00000000
  10        -0.06178259
Sym=     4a  
Ene=    -0.6236
Spin= Alpha
Occup=    1.00000
   1        -0.00876320
   2        -0.75495257
   3        -0.00000000
   4         0.00000000
   5         0.07717459
   6         0.00876320
   7         0.75495257
   8         0.00000000
   9         0.00000000
  10         0.07717459
Sym=     4a  
Ene=    -0.6236
Spin= Beta
Occup=    1.00000
   1        -0.00876320
   2        -0.75495257
   3        -0.00000000
   4         0.00000000
   5         0.07717459
   6         0.00876320
   7         0.75495257
   8         0.00000000
   9         0.00000000
  10         0.07717459
Sym=     5a  
Ene=    -0.2907
Spin= Alpha
Occup=    1.00000
   1        -0.00000000
   2        -0.00000000
   3         0.64100636
   4         0.18817651
   5         0.00000000
   6        -0.00000000
   7         0.00000000
   8         0.64100636
   9         0.18817651
  10        -0.00000000
Sym=     5a  
Ene=    -0.2907
Spin= Beta
Occup=    1.00000
   1        -0.00000000
   2        -0.00000000
   3         0.64100636
   4         0.18817651
   5         0.00000000
   6        -0.00000000
   7         0.00000000
   8         0.64100636
   9         0.18817651
  10        -0.00000000
Sym=     6a  
Ene=    -0.2907
Spin= Alpha
Occup=    1.00000
   1         0.00000000
   2         0.00000000
   3        -0.18817651
   4         0.64100636
   5        -0.00000000
   6        -0.00000000
   7        -0.00000000
   8        -0.18817651
   9         0.64100636
  10         0.00000000
Sym=     6a  
Ene=    -0.2907
Spin= Beta
Occup=    1.00000
   1         0.00000000
   2         0.00000000
   3        -0.18817651
   4         0.64100636
   5        -0.00000000
   6        -0.00000000
   7        -0.00000000
   8        -0.18817651
   9         0.64100636
  10         0.00000000
Sym=     7a  
Ene=     0.0009
Spin= Alpha
Occup=    0.00000
   1         0.01535949
   2         0.19884910
   3         0.00000000
   4         0.00000000
   5        -0.64504994
   6         0.01535949
   7         0.19884910
   8        -0.00000000
   9        -0.00000000
  10         0.64504994
Sym=     7a  
Ene=     0.0009
Spin= Beta
Occup=    0.00000
   1         0.01535949
   2         0.19884910
   3         0.00000000
   4         0.00000000
   5        -0.64504994
   6         0.01535949
   7         0.19884910
   8        -0.00000000
   9        -0.00000000
  10         0.64504994
Sym=     8a  
Ene=     0.0517
Spin= Alpha
Occup=    0.00000
   1         0.00000000
   2         0.00000000
   3        -0.04606887
   4        -0.75250821
   5        -0.00000000
   6         0.00000000
   7         0.00000000
   8         0.04606887
   9         0.75250821
  10         0.00000000
Sym=     8a  
Ene=     0.0517
Spin= Beta
Occup=    0.00000
   1         0.00000000
   2         0.00000000
   3        -0.04606887
   4        -0.75250821
   5        -0.00000000
   6         0.00000000
   7         0.00000000
   8         0.04606887
   9         0.75250821
  10         0.00000000
Sym=     9a  
Ene=     0.0517
Spin= Alpha
Occup=    0.00000
   1         0.00000000
   2         0.00000000
   3        -0.75250821
   4         0.04606887
   5        -0.00000000
   6         0.00000000
   7        -0.00000000
   8         0.75250821
   9        -0.04606887
  10         0.00000000
Sym=     9a  
Ene=     0.0517
Spin= Beta
Occup=    0.00000
   1         0.00000000
   2         0.00000000
   3        -0.75250821
   4         0.04606887
   5        -0.00000000
   6         0.00000000
   7        -0.00000000
   8         0.75250821
   9        -0.04606887
  10         0.00000000
Sym=    10a  
Ene=     0.3183
Spin= Alpha
Occup=    0.00000
   1         0.02718343
   2         0.33315922
   3         0.00000000
   4         0.00000000
   5         0.85568545
   6        -0.02718343
   7        -0.33315922
   8         0.00000000
   9        -0.00000000
  10         0.85568545
Sym=    10a  
Ene=     0.3183
Spin= Beta
Occup=    0.00000
   1         0.02718343
   2         0.33315922
   3         0.00000000
   4         0.00000000
   5         0.85568545
   6        -0.02718343
   7        -0.33315922
   8         0.00000000
   9        -0.00000000
  10         0.85568545
