[Molden Format]
[N_Atoms]
                     2
[Atoms] (AU)
B1          1      5           0.00000000      0.00000000      0.00000000
BE2         2      4           0.00000000      0.00000000      3.59047964
[Charge] (Mulliken)
 -0.140088576461308     
  0.140088576461245     
[GTO] (AU)
   1
   s  14
  3.336021700E+04  1.039699991E-04
  4.972095200E+03  5.254399956E-04
  1.125641700E+03  2.509059979E-03
  3.164913600E+02  1.031887991E-02
  1.020072600E+02  3.636632969E-02
  3.629587300E+01  1.064607991E-01
  1.397141000E+01  2.403999880E-01
  5.741156000E+00  3.748581168E-01
  2.494268000E+00  3.100066974E-01
  1.114202000E+00  7.922455933E-02
  4.215490000E-01 -4.947589958E-03
  1.696330000E-01 -7.737119935E-03
  6.853500000E-02 -1.501079987E-03
  2.398700000E-02 -1.333299989E-04
   s  14
  3.336021700E+04 -2.030000008E-05
  4.972095200E+03 -1.025700004E-04
  1.125641700E+03 -4.911300020E-04
  3.164913600E+02 -2.026570008E-03
  1.020072600E+02 -7.261010030E-03
  3.629587300E+01 -2.197722009E-02
  1.397141000E+01 -5.408428022E-02
  5.741156000E+00 -1.022402604E-01
  2.494268000E+00 -1.423595206E-01
  1.114202000E+00 -4.658690019E-02
  4.215490000E-01  3.799402916E-01
  1.696330000E-01  5.890463624E-01
  6.853500000E-02  1.749075107E-01
  2.398700000E-02 -1.142030005E-03
   p   9
  5.500000000E+01  1.229800005E-03
  1.336610100E+01  8.827380035E-03
  4.135394000E+00  3.843340015E-02
  1.481256000E+00  1.150031805E-01
  6.021360000E-01  2.733674011E-01
  2.556360000E-01  4.061972116E-01
  1.111510000E-01  3.014967912E-01
  4.764800000E-02  7.684809030E-02
  1.667700000E-02 -8.170000032E-06
 
   2
   s  14
  2.262859900E+04  8.443999941E-05
  3.372318100E+03  4.601499968E-04
  7.603504000E+02  2.285389984E-03
  2.117404800E+02  9.648129932E-03
  6.722346800E+01  3.494469975E-02
  2.337217700E+01  1.061099893E-01
  8.721373000E+00  2.458240383E-01
  3.468091000E+00  3.862428773E-01
  1.452144000E+00  3.105526078E-01
  6.086150000E-01  6.415933955E-02
  2.576860000E-01 -2.265049984E-03
  1.041760000E-01 -5.217499963E-04
  4.242700000E-02 -8.757499938E-04
  1.484900000E-02  1.242199991E-04
   s  14
  2.262859900E+04 -1.586999994E-05
  3.372318100E+03 -8.656999968E-05
  7.603504000E+02 -4.302199984E-04
  2.117404800E+02 -1.825079993E-03
  6.722346800E+01 -6.682749976E-03
  2.337217700E+01 -2.095119992E-02
  8.721373000E+00 -5.200308981E-02
  3.468091000E+00 -9.849176964E-02
  1.452144000E+00 -1.355800695E-01
  6.086150000E-01 -6.429875976E-02
  2.576860000E-01  3.125414989E-01
  1.041760000E-01  6.270468577E-01
  4.242700000E-02  2.110231492E-01
  1.484900000E-02 -4.104669985E-03
   p   9
  3.371018400E+01  1.069960000E-03
  8.057649500E+00  6.828550001E-03
  2.836471400E+00  2.119065000E-02
  1.099965700E+00  5.843696001E-02
  4.433964000E-01  2.020920800E-01
  1.822264000E-01  4.582953101E-01
  7.572410000E-02  3.691239601E-01
  3.168540000E-02  6.611471001E-02
  1.108990000E-02  1.405160000E-03
 
[MO]
Sym=     1a  
Ene=    -7.6378
Spin= Alpha
Occup=    1.00000
   1         0.99998017
   2         0.01803216
   3         0.00000000
   4        -0.00000000
   5         0.00075444
   6        -0.00025900
   7        -0.00118883
   8        -0.00000000
   9        -0.00000000
  10         0.00095324
Sym=     1a  
Ene=    -7.6066
Spin= Beta
Occup=    1.00000
   1         0.99995900
   2         0.01385947
   3        -0.00000000
   4         0.00000000
   5         0.00096640
   6        -0.00013213
   7        -0.00059201
   8        -0.00000000
   9        -0.00000000
  10         0.00031111
Sym=     2a  
Ene=    -4.7290
Spin= Alpha
Occup=    1.00000
   1        -0.00031039
   2         0.00006273
   3         0.00000000
   4        -0.00000000
   5         0.00058951
   6         0.99993711
   7         0.00314646
   8        -0.00000000
   9        -0.00000000
  10        -0.00120170
Sym=     2a  
Ene=    -4.7414
Spin= Beta
Occup=    1.00000
   1        -0.00011072
   2         0.00108346
   3         0.00000000
   4        -0.00000000
   5         0.00079570
   6         0.99987364
   7         0.00277210
   8        -0.00000000
   9        -0.00000000
  10         0.00055975
Sym=     3a  
Ene=    -0.6080
Spin= Alpha
Occup=    1.00000
   1        -0.03919331
   2         0.80317615
   3        -0.00000000
   4         0.00000000
   5        -0.02652127
   6        -0.03579366
   7         0.22576564
   8         0.00000000
   9        -0.00000000
  10        -0.16460485
Sym=     3a  
Ene=    -0.4854
Spin= Beta
Occup=    1.00000
   1        -0.03880891
   2         0.61346176
   3        -0.00000000
   4         0.00000000
   5         0.26063850
   6        -0.05378406
   7         0.39803502
   8         0.00000000
   9         0.00000000
  10        -0.13037463
Sym=     4a  
Ene=    -0.3683
Spin= Alpha
Occup=    1.00000
   1        -0.03080813
   2        -0.41647076
   3        -0.00000000
   4         0.00000000
   5         0.74453863
   6        -0.05092473
   7         0.37977420
   8        -0.00000000
   9         0.00000000
  10        -0.21963589
Sym=     4a  
Ene=    -0.3111
Spin= Beta
Occup=    1.00000
   1         0.01868405
   2        -0.28703981
   3         0.00000000
   4         0.00000000
   5        -0.07095655
   6         0.01723090
   7         0.76352884
   8         0.00000000
   9        -0.00000000
  10         0.59992036
Sym=     5a  
Ene=    -0.3072
Spin= Alpha
Occup=    1.00000
   1         0.00000000
   2         0.00000000
   3        -0.34744640
   4         0.83500003
   5        -0.00000000
   6         0.00000000
   7        -0.00000000
   8        -0.08779903
   9         0.21100288
  10         0.00000000
Sym=     5a  
Ene=     0.0411
Spin= Beta
Occup=    0.00000
   1        -0.00000000
   2         0.00000000
   3         0.38600408
   4         0.16061763
   5        -0.00000000
   6         0.00000000
   7        -0.00000000
   8         0.72618688
   9         0.30216888
  10        -0.00000000
Sym=     6a  
Ene=     0.0352
Spin= Alpha
Occup=    0.00000
   1         0.00000000
   2        -0.00000000
   3         0.60874925
   4         0.25330267
   5        -0.00000000
   6         0.00000000
   7         0.00000000
   8         0.52881045
   9         0.22003986
  10         0.00000000
Sym=     6a  
Ene=     0.0603
Spin= Beta
Occup=    0.00000
   1        -0.00000000
   2        -0.00000000
   3        -0.13071267
   4         0.31413502
   5         0.00000000
   6         0.00000000
   7         0.00000000
   8        -0.32252554
   9         0.77510901
  10        -0.00000000
Sym=     7a  
Ene=     0.0905
Spin= Alpha
Occup=    0.00000
   1         0.00442167
   2        -0.15779376
   3        -0.00000000
   4         0.00000000
   5        -0.37617155
   6         0.03971760
   7         0.87445799
   8        -0.00000000
   9        -0.00000000
  10         0.51269812
Sym=     7a  
Ene=     0.1415
Spin= Beta
Occup=    0.00000
   1         0.03869991
   2         0.76722706
   3        -0.00000000
   4        -0.00000000
   5        -0.63073817
   6         0.02304415
   7        -0.16853391
   8        -0.00000000
   9         0.00000000
  10         0.47103019
Sym=     8a  
Ene=     0.1560
Spin= Alpha
Occup=    0.00000
   1        -0.00000000
   2        -0.00000000
   3         0.20740944
   4        -0.49845641
   5        -0.00000000
   6         0.00000000
   7         0.00000000
   8        -0.39500507
   9         0.94929533
  10         0.00000000
Sym=     8a  
Ene=     0.2270
Spin= Beta
Occup=    0.00000
   1         0.00000000
   2         0.00000000
   3        -0.89257195
   4        -0.37140228
   5         0.00000000
   6        -0.00000000
   7        -0.00000000
   8         0.64678934
   9         0.26913128
  10         0.00000000
Sym=     9a  
Ene=     0.2092
Spin= Alpha
Occup=    0.00000
   1         0.00000000
   2        -0.00000000
   3        -0.75835888
   4        -0.31555576
   5         0.00000000
   6        -0.00000000
   7         0.00000000
   8         0.81611479
   9         0.33958819
  10         0.00000000
Sym=     9a  
Ene=     0.2632
Spin= Beta
Occup=    0.00000
   1        -0.00000000
   2        -0.00000000
   3         0.38295153
   4        -0.92032767
   5         0.00000000
   6        -0.00000000
   7         0.00000000
   8        -0.24436643
   9         0.58727324
  10        -0.00000000
Sym=    10a  
Ene=     0.4588
Spin= Alpha
Occup=    0.00000
   1         0.13884643
   2         1.17600422
   3         0.00000000
   4        -0.00000000
   5         0.97270057
   6        -0.13898809
   7        -0.98933547
   8        -0.00000000
   9        -0.00000000
  10         1.26082320
Sym=    10a  
Ene=     0.4789
Spin= Beta
Occup=    0.00000
   1         0.13591421
   2         1.08590606
   3         0.00000000
   4         0.00000000
   5         1.08254055
   6        -0.14551980
   7        -1.08113434
   8        -0.00000000
   9        -0.00000000
  10         1.15286586
