[Molden Format]
[N_Atoms]
                     2
[Atoms] (AU)
B1          1      5           0.00000000      0.00000000      0.00000000
BE2         2      4           0.00000000      0.00000000      3.59047964
[Charge] (Mulliken)
 -8.578632057205748E-002
  8.578632057203173E-002
[GTO] (AU)
   1
   s  14
  3.336021700E+04  1.039699991E-04
  4.972095200E+03  5.254399956E-04
  1.125641700E+03  2.509059979E-03
  3.164913600E+02  1.031887991E-02
  1.020072600E+02  3.636632969E-02
  3.629587300E+01  1.064607991E-01
  1.397141000E+01  2.403999880E-01
  5.741156000E+00  3.748581168E-01
  2.494268000E+00  3.100066974E-01
  1.114202000E+00  7.922455933E-02
  4.215490000E-01 -4.947589958E-03
  1.696330000E-01 -7.737119935E-03
  6.853500000E-02 -1.501079987E-03
  2.398700000E-02 -1.333299989E-04
   s  14
  3.336021700E+04 -2.030000008E-05
  4.972095200E+03 -1.025700004E-04
  1.125641700E+03 -4.911300020E-04
  3.164913600E+02 -2.026570008E-03
  1.020072600E+02 -7.261010030E-03
  3.629587300E+01 -2.197722009E-02
  1.397141000E+01 -5.408428022E-02
  5.741156000E+00 -1.022402604E-01
  2.494268000E+00 -1.423595206E-01
  1.114202000E+00 -4.658690019E-02
  4.215490000E-01  3.799402916E-01
  1.696330000E-01  5.890463624E-01
  6.853500000E-02  1.749075107E-01
  2.398700000E-02 -1.142030005E-03
   p   9
  5.500000000E+01  1.229800005E-03
  1.336610100E+01  8.827380035E-03
  4.135394000E+00  3.843340015E-02
  1.481256000E+00  1.150031805E-01
  6.021360000E-01  2.733674011E-01
  2.556360000E-01  4.061972116E-01
  1.111510000E-01  3.014967912E-01
  4.764800000E-02  7.684809030E-02
  1.667700000E-02 -8.170000032E-06
 
   2
   s  14
  2.262859900E+04  8.443999941E-05
  3.372318100E+03  4.601499968E-04
  7.603504000E+02  2.285389984E-03
  2.117404800E+02  9.648129932E-03
  6.722346800E+01  3.494469975E-02
  2.337217700E+01  1.061099893E-01
  8.721373000E+00  2.458240383E-01
  3.468091000E+00  3.862428773E-01
  1.452144000E+00  3.105526078E-01
  6.086150000E-01  6.415933955E-02
  2.576860000E-01 -2.265049984E-03
  1.041760000E-01 -5.217499963E-04
  4.242700000E-02 -8.757499938E-04
  1.484900000E-02  1.242199991E-04
   s  14
  2.262859900E+04 -1.586999994E-05
  3.372318100E+03 -8.656999968E-05
  7.603504000E+02 -4.302199984E-04
  2.117404800E+02 -1.825079993E-03
  6.722346800E+01 -6.682749976E-03
  2.337217700E+01 -2.095119992E-02
  8.721373000E+00 -5.200308981E-02
  3.468091000E+00 -9.849176964E-02
  1.452144000E+00 -1.355800695E-01
  6.086150000E-01 -6.429875976E-02
  2.576860000E-01  3.125414989E-01
  1.041760000E-01  6.270468577E-01
  4.242700000E-02  2.110231492E-01
  1.484900000E-02 -4.104669985E-03
   p   9
  3.371018400E+01  1.069960000E-03
  8.057649500E+00  6.828550001E-03
  2.836471400E+00  2.119065000E-02
  1.099965700E+00  5.843696001E-02
  4.433964000E-01  2.020920800E-01
  1.822264000E-01  4.582953101E-01
  7.572410000E-02  3.691239601E-01
  3.168540000E-02  6.611471001E-02
  1.108990000E-02  1.405160000E-03
 
[MO]
Sym=     1a  
Ene=    -7.6418
Spin= Alpha
Occup=    2.00000
   1         0.99995120
   2         0.01516001
   3        -0.00000007
   4         0.00000004
   5         0.00099537
   6        -0.00016539
   7        -0.00048181
   8         0.00000003
   9        -0.00000002
  10         0.00049534
Sym=     2a  
Ene=    -4.7529
Spin= Alpha
Occup=    2.00000
   1        -0.00000690
   2         0.00171191
   3        -0.00000002
   4         0.00000001
   5         0.00114985
   6         0.99981142
   7         0.00277898
   8         0.00000025
   9        -0.00000010
  10         0.00222115
Sym=     3a  
Ene=    -0.5111
Spin= Alpha
Occup=    2.00000
   1        -0.04333276
   2         0.62348852
   3         0.00000923
   4        -0.00000267
   5         0.19552839
   6        -0.04808066
   7         0.39519776
   8         0.00000443
   9        -0.00000522
  10        -0.17038005
Sym=     4a  
Ene=    -0.2107
Spin= Alpha
Occup=    2.00000
   1         0.00000072
   2         0.00003814
   3         0.54641135
   4        -0.28525721
   5        -0.00002988
   6         0.00000105
   7        -0.00006247
   8         0.54722375
   9        -0.28568092
  10        -0.00002120
Sym=     5a  
Ene=     0.0115
Spin= Alpha
Occup=   -0.00000
   1         0.03968171
   2         0.18174847
   3         0.22515423
   4         0.43135670
   5        -0.21019763
   6         0.00845160
   7         0.42814424
   8         0.03733435
   9         0.07134974
  10         0.73029912
Sym=     6a  
Ene=     0.0003
Spin= Alpha
Occup=    1.00000
   1        -0.01427459
   2        -0.66047311
   3         0.00004623
   4        -0.00002820
   5         0.65144962
   6        -0.03085289
   7         0.40989681
   8         0.00002782
   9        -0.00001515
  10        -0.04082337
Sym=     7a  
Ene=     0.0405
Spin= Alpha
Occup=    0.00000
   1         0.01139759
   2         0.01287504
   3        -0.21308359
   4        -0.40819485
   5        -0.18475271
   6         0.01481777
   7         0.30657395
   8        -0.29253526
   9        -0.56037037
  10         0.30588719
Sym=     8a  
Ene=     0.1697
Spin= Alpha
Occup=    0.00000
   1        -0.00000235
   2        -0.00000933
   3        -0.75710522
   4         0.39531778
   5         0.00004332
   6        -0.00000345
   7        -0.00005072
   8         0.75649769
   9        -0.39505105
  10        -0.00005642
Sym=     9a  
Ene=     0.1994
Spin= Alpha
Occup=    0.00000
   1         0.00334252
   2        -0.02026885
   3        -0.37418936
   4        -0.71656366
   5        -0.13023097
   6         0.01192124
   7         0.20217131
   8         0.38818937
   9         0.74335284
  10         0.14848414
Sym=    10a  
Ene=     0.4721
Spin= Alpha
Occup=    0.00000
   1        -0.13432784
   2        -1.16959192
   3         0.03912945
   4         0.07495710
   5        -1.04153565
   6         0.14602848
   7         1.13855100
   8        -0.00414751
   9        -0.00796385
  10        -1.11723728
