   This run of MOLCAS is using the pymolcas driver

                             OPE
                             OPE          NMOL  CASOP  ENMOLC A   SO
                 OPE        NMOLC        AS  OP EN  MO LC     AS  OP
                OPENM       OL CA        SO  PE NM  OL CA     SOP EN
                OP EN      MO   LC       AS  OP ENMOL  CASO   PENMOL
                OP  EN     MO   LC       AS  OP EN     MO     LC ASO
               OP   E  NMOL  C  AS       OP  EN MO     LC     AS  OP
               OP  E   NMO   LC AS        OPEN  MO     LCASOP EN   M
               O  PEN   MO  LCA  SO
            OPE   NMO   L   CAS    OP
        OPENMOL  CASOP     ENMOL   CASOPE
     OPENMOLCA   SOPENMOLCASOPEN   MOLCASOPE
    OPENMOLCAS   OP           EN   MOL    CAS
    OPENMOLCAS       OP  ENM        O     LCA
    OPENMOLCAS    OPEN  MOLCASO     P  E  NMO
    OPENMOLCAS     OP               E  N  MOL
    OPENMOLCA   SO           PENM   O  L  CAS    OPEN    MO    LCAS
    OPENMOLCA   SOP           ENM   O  L  CAS   OP  EN  MOLC  AS   O
    OPENMOLCA   SOPE           NM      O  LCA   S      OP  EN MO
    OPENMOLC                AS         O  PEN   M      OL  CA  SOPE
    OPENMO        LCASOPE  NMOL        C  ASO   P      ENMOLC     AS
    OPE     NMO      LCA  SO     P     E   NM   OL  CA SO  PE N   MO
          OPENMOLCA            SOPE   NMO        LCAS  O    P  ENMO
     OPENMOLCASOPENMOLCASOPENMOLCASOPENMOLCA
        OPENMOLCASOPENMOLCASOPENMOLCASOPE
            OPENMOLCASOPENMOLCASOPENM
               OPENMOLCASOPENMOLCA        version: 44d3b5344-dirty
                   OPENMOLCASO
                       OPE                tag:

 OpenMolcas is free software; you can redistribute it and/or modify it
 under the terms of the GNU Lesser General Public License version 2.1.
 OpenMolcas is distributed in the hope that it will be useful, but it
 is provided "as is" and without any express or implied warranties.
 For more details see the full text of the license in the file
 LICENSE or in <http://www.gnu.org/licenses/>.

                 Copyright (C) The OpenMolcas Authors
           For the author list and the recommended citation,
                   consult the file CONTRIBUTORS.md

           *************************************************
           * pymolcas version py2.28                       *
           *   build c4a6d18ded8cb6cad61d2372a9abd97c      *
           *   (after the EMIL interpreter by V. Veryazov) *
           *************************************************

configuration info
------------------
C Compiler ID: Intel
C flags: -std=gnu99
Fortran Compiler ID: Intel
Fortran flags: -fpp -i8 -r8 -heap-arrays
Definitions: _MOLCAS_;_I8_;_LINUX_
Parallel: OFF (GA=OFF)


   ----------------------------------------------------------------------------------------------------------
  |
  |              Project: H8_1.88
  |       Submitted from: /home/grierjones/DDCASPT2/hydrogen_comps/minimal_2e_2o/chains/even/H8_chain/H8_1.88
  |         Scratch area: /tmp/H8_1.88
  |      Save outputs to: /home/grierjones/DDCASPT2/hydrogen_comps/minimal_2e_2o/chains/even/H8_chain/H8_1.88
  |               Molcas: /home/grierjones/Test/build
  |
  | Scratch area is empty
  |
  |       MOLCAS_DRIVER = /usr/local/pymolcas
  | MOLCAS_KEEP_WORKDIR = NO
  |  MOLCAS_NEW_WORKDIR = YES
  |       MOLCAS_NPROCS = 1
  |       MOLCAS_SOURCE = /home/grierjones/Test/build
  |    MOLCAS_STRUCTURE = 0
  |
   ----------------------------------------------------------------------------------------------------------

++ ---------   Input file   ---------

&GATEWAY
coord=H8_1.88.xyz
Basis = ANO-RCC-VDZP
Group = nosymm
Expert
End of Input

&SEWARD
End of Input

&MOTRA
Frozen=0

>>> COPY $WorkDir/GMJ_one_int_indx.csv $CurrDir/H8_1.88.GMJ_one_int_indx.csv

>>> COPY $WorkDir/GMJ_one_int.csv $CurrDir/H8_1.88.GMJ_one_int.csv

>>> COPY $WorkDir/GMJ_two_int_indx.csv $CurrDir/H8_1.88.GMJ_two_int_indx.csv

>>> COPY $WorkDir/GMJ_two_int.csv $CurrDir/H8_1.88.GMJ_two_int.csv

&SCF

>>> COPY $WorkDir/H8_1.88.scf.h5 $CurrDir/

&RASSCF
Title= RASSCF
FileOrb
/home/grierjones/DDCASPT2/hydrogen_comps/minimal_2e_2o/chains/even/H8_chain/H8_1.86/H8_1.86.RasOrb

NACTEL
8 0 0
Inactive
0
RAS2
8
Symmetry
1
Spin
1
orblisting
all
ITERation
200 100
CIMX
200
SDAV
500

>>> COPY $WorkDir/H8_1.88.rasscf.h5 $CurrDir/

>>> COPY $WorkDir/GMJ_Fock_MO.csv $CurrDir/H8_1.88.GMJ_Fock_MO.csv

&CASPT2
Frozen
0
Imaginary Shift
0.0

>>> FOREACH i IN (B,E,F,G,H)

  >>> FOREACH j IN (P,M)

    >>> IF (-FILE GMJ_e2_${i}_${j}.csv)

      >>> COPY $WorkDir/GMJ_RHS_${i}_${j}.csv $CurrDir/GMJ_RHS_${i}_${j}.csv

      >>> COPY $WorkDir/GMJ_IVECW_${i}_${j}.csv $CurrDir/GMJ_IVECW_${i}_${j}.csv

      >>> COPY $WorkDir/GMJ_e2_${i}_${j}.csv $CurrDir/GMJ_e2_${i}_${j}.csv

    >>> END IF

  >>> END FOREACH

>>> END FOREACH

>>> FOREACH i IN (A,C,D)

  >>> IF (-FILE GMJ_e2_$i.csv)

    >>> COPY $WorkDir/GMJ_RHS_$i.csv $CurrDir/GMJ_RHS_$i.csv

    >>> COPY $WorkDir/GMJ_IVECW_$i.csv $CurrDir/GMJ_IVECW_$i.csv

    >>> COPY $WorkDir/GMJ_e2_$i.csv $CurrDir/GMJ_e2_$i.csv

  >>> END IF

>>> END FOREACH

-- ----------------------------------

--- Start Module: gateway at Thu Oct 17 11:44:19 2024 ---
 
()()()()()()()()()()()()()()()()()()()()()()()()()()()()()()()()()()()()()()()()()()()()()()()()()()

                                              &GATEWAY

                                   only a single process is used
                       available to each process: 2.0 GB of memory, 1 thread?
()()()()()()()()()()()()()()()()()()()()()()()()()()()()()()()()()()()()()()()()()()()()()()()()()()
 
 ###############################################################################
 ###############################################################################
 ###                                                                         ###
 ###                                                                         ###
 ###                                                                         ###
 ###    WARNING: EXPERT option is ON!                                        ###
 ###                                                                         ###
 ###                                                                         ###
 ###############################################################################
 ###############################################################################
 
++    Symmetry information:
      ---------------------
 
                    Character Table for C1 
 
                             E  
                    a        1  x, y, xy, Rz, z, xz, Ry, yz, Rx, I
--
 
 
++    Basis set information:
      ----------------------
 
 
      Basis set label: H.ANO-RCC...2S1P.
 
      Electronic valence basis set:
      ------------------
      Associated Effective Charge   1.000000 au
      Associated Actual Charge      1.000000 au
      Nuclear Model: Point charge
 
      Shell  nPrim  nBasis  Cartesian Spherical Contaminant
         s       8       2        X                  
         p       4       1        X                  
--
 
 
++    Molecular structure info:
      -------------------------
 
                    ************************************************ 
                    **** Cartesian Coordinates / Bohr, Angstrom **** 
                    ************************************************ 
 
     Center  Label                x              y              z                     x              y              z
        1      H1               0.000000       0.000000       0.000000              0.000000       0.000000       0.000000
        2      H2               0.000000       0.000000       3.561847              0.000000       0.000000       1.884848
        3      H3               0.000000       0.000000       7.123695              0.000000       0.000000       3.769697
        4      H4               0.000000       0.000000      10.685541              0.000000       0.000000       5.654545
        5      H5               0.000000       0.000000      14.247390              0.000000       0.000000       7.539394
        6      H6               0.000000       0.000000      17.809236              0.000000       0.000000       9.424242
        7      H7               0.000000       0.000000      21.371085              0.000000       0.000000      11.309091
        8      H8               0.000000       0.000000      24.932931              0.000000       0.000000      13.193939
 
                    *************************************** 
                    *    InterNuclear Distances / Bohr    * 
                    *************************************** 
 
               1 H1            2 H2            3 H3            4 H4            5 H5            6 H6    
    1 H1       0.000000
    2 H2       3.561847        0.000000
    3 H3       7.123695        3.561848        0.000000
    4 H4      10.685541        7.123695        3.561847        0.000000
    5 H5      14.247390       10.685543        7.123695        3.561848        0.000000
    6 H6      17.809236       14.247390       10.685541        7.123695        3.561847        0.000000
    7 H7      21.371085       17.809238       14.247390       10.685543        7.123695        3.561848
    8 H8      24.932931       21.371085       17.809236       14.247390       10.685541        7.123695
 
               7 H7            8 H8    
    7 H7       0.000000
    8 H8       3.561847        0.000000
 
                    ******************************************* 
                    *    InterNuclear Distances / Angstrom    * 
                    ******************************************* 
 
               1 H1            2 H2            3 H3            4 H4            5 H5            6 H6    
    1 H1       0.000000
    2 H2       1.884848        0.000000
    3 H3       3.769697        1.884849        0.000000
    4 H4       5.654545        3.769697        1.884848        0.000000
    5 H5       7.539394        5.654546        3.769697        1.884849        0.000000
    6 H6       9.424242        7.539394        5.654545        3.769697        1.884848        0.000000
    7 H7      11.309091        9.424243        7.539394        5.654546        3.769697        1.884849
    8 H8      13.193939       11.309091        9.424242        7.539394        5.654545        3.769697
 
               7 H7            8 H8    
    7 H7       0.000000
    8 H8       1.884848        0.000000
--
 
 
            Nuclear Potential Energy              3.85835094 au
 
 ###############################################################################
 ###############################################################################
 ###                                                                         ###
 ###                                                                         ###
 ###    There were warnings during the execution                             ###
 ###    Please, check the output with care!                                  ###
 ###                                                                         ###
 ###                                                                         ###
 ###############################################################################
 ###############################################################################
--- Stop Module: gateway at Thu Oct 17 11:44:19 2024 /rc=_RC_ALL_IS_WELL_ ---
*** files: xmldump
    saved to directory /home/grierjones/DDCASPT2/hydrogen_comps/minimal_2e_2o/chains/even/H8_chain/H8_1.88

--- Start Module: seward at Thu Oct 17 11:44:19 2024 ---
 
()()()()()()()()()()()()()()()()()()()()()()()()()()()()()()()()()()()()()()()()()()()()()()()()()()

                                              &SEWARD

                                   only a single process is used
                       available to each process: 2.0 GB of memory, 1 thread?
()()()()()()()()()()()()()()()()()()()()()()()()()()()()()()()()()()()()()()()()()()()()()()()()()()
 
 ###############################################################################
 ###############################################################################
 ###                                                                         ###
 ###                                                                         ###
 ###                                                                         ###
 ###    WARNING: EXPERT option is ON!                                        ###
 ###                                                                         ###
 ###                                                                         ###
 ###############################################################################
 ###############################################################################
               SEWARD will generate:
                  Multipole Moment integrals up to order  2
                  Kinetic Energy integrals
                  Nuclear Attraction integrals (point charge)
                  One-Electron Hamiltonian integrals
                  Velocity integrals
                  Relativistic Douglas-Kroll-Hess integrals:
                    - Parametrization         : EXP
                    - DKH order of Hamiltonian: 2
                    - DKH order of Properties : 0
                         - multipole moment operators
                         - electric potential operators
                         - contact operators
                  Atomic mean-field integrals
                  Two-Electron Repulsion integrals
 
                   Integrals are discarded if absolute value <: 0.10E-13
                   Integral cutoff threshold is set to       <: 0.10E-15
 
            Nuclear Potential Energy              3.85835094 au
 
 
      Basis set specifications :
      Symmetry species         a  
      Basis functions           40
 
 
  Input file to MOLDEN was generated!
 
 ###############################################################################
 ###############################################################################
 ###                                                                         ###
 ###                                                                         ###
 ###    There were warnings during the execution                             ###
 ###    Please, check the output with care!                                  ###
 ###                                                                         ###
 ###                                                                         ###
 ###############################################################################
 ###############################################################################
--- Stop Module: seward at Thu Oct 17 11:44:20 2024 /rc=_RC_ALL_IS_WELL_ ---
*** files: H8_1.88.GssOrb H8_1.88.guessorb.h5 H8_1.88.guessorb.molden xmldump
    saved to directory /home/grierjones/DDCASPT2/hydrogen_comps/minimal_2e_2o/chains/even/H8_chain/H8_1.88

*** symbolic link created: INPORB -> H8_1.88.GssOrb
--- Start Module: motra at Thu Oct 17 11:44:20 2024 ---
 
()()()()()()()()()()()()()()()()()()()()()()()()()()()()()()()()()()()()()()()()()()()()()()()()()()

                                               &MOTRA

                                   only a single process is used
                       available to each process: 2.0 GB of memory, 1 thread?
()()()()()()()()()()()()()()()()()()()()()()()()()()()()()()()()()()()()()()()()()()()()()()()()()()
 
 
      *** WARNING: Default frozen orbitals is overwritten by user input.
      *** Default values:   0
 
      Header of the integral files:
      
       Integrals generated by seward 4.2.0  , Thu Oct 17 11:44:19 2024
 
 
      Header of MO coefficients source file:
      *Guess orbitals                                                                 
 
 
      Cartesian coordinates in Angstrom:
      -----------------------------------------------------
      No.  Label        X            Y            Z        
      -----------------------------------------------------
       1   H1         0.00000000   0.00000000   0.00000000
       2   H2         0.00000000   0.00000000   1.88484800
       3   H3         0.00000000   0.00000000   3.76969700
       4   H4         0.00000000   0.00000000   5.65454500
       5   H5         0.00000000   0.00000000   7.53939400
       6   H6         0.00000000   0.00000000   9.42424200
       7   H7         0.00000000   0.00000000  11.30909100
       8   H8         0.00000000   0.00000000  13.19393900
      -----------------------------------------------------
      Nuclear repulsion energy =    3.85835094
 
      Orbital specifications:
      -----------------------
 
      Symmetry species:              1
      Number of basis functions:    40
      Frozen orbitals:               0
      Deleted orbitals:              0
      Number of orbitals used:      40

       SYMMETRY  BASIS FUNCTIONS       ORBITALS      INTEGRALS   CPU(SEC)  I/O(SEC)
 
        1 1 1 1   40  40  40  40    40  40  40  40      336610       0.00      0.00

       TOTAL CPU TIME(SEC)    6.13TOTAL I/O TIME(SEC)    8.90
 
--- Stop Module: motra at Thu Oct 17 11:44:29 2024 /rc=_RC_ALL_IS_WELL_ ---
*** files: xmldump
    saved to directory /home/grierjones/DDCASPT2/hydrogen_comps/minimal_2e_2o/chains/even/H8_chain/H8_1.88
--- Module motra spent 8 seconds ---

>>> COPY /tmp/H8_1.88/GMJ_one_int_indx.csv /home/grierjones/DDCASPT2/hydrogen_comps/minimal_2e_2o/chains/even/H8_chain/H8_1.88/H8_1.88.GMJ_one_int_indx.csv

>>> COPY /tmp/H8_1.88/GMJ_one_int.csv /home/grierjones/DDCASPT2/hydrogen_comps/minimal_2e_2o/chains/even/H8_chain/H8_1.88/H8_1.88.GMJ_one_int.csv

>>> COPY /tmp/H8_1.88/GMJ_two_int_indx.csv /home/grierjones/DDCASPT2/hydrogen_comps/minimal_2e_2o/chains/even/H8_chain/H8_1.88/H8_1.88.GMJ_two_int_indx.csv

>>> COPY /tmp/H8_1.88/GMJ_two_int.csv /home/grierjones/DDCASPT2/hydrogen_comps/minimal_2e_2o/chains/even/H8_chain/H8_1.88/H8_1.88.GMJ_two_int.csv

*** symbolic link created: INPORB -> H8_1.88.GssOrb
--- Start Module: scf at Thu Oct 17 11:44:29 2024 ---
 
()()()()()()()()()()()()()()()()()()()()()()()()()()()()()()()()()()()()()()()()()()()()()()()()()()

                                                &SCF

                                   only a single process is used
                       available to each process: 2.0 GB of memory, 1 thread?
()()()()()()()()()()()()()()()()()()()()()()()()()()()()()()()()()()()()()()()()()()()()()()()()()()
 
++    Input section:
      --------------
 
      Header of the integral files:
      
       Integrals generated by seward 4.2.0  , Thu Oct 17 11:44:19 2024
 
 
      Cartesian coordinates in Angstrom:
      -----------------------------------------------------
      No.  Label        X            Y            Z        
      -----------------------------------------------------
       1   H1         0.00000000   0.00000000   0.00000000
       2   H2         0.00000000   0.00000000   1.88484800
       3   H3         0.00000000   0.00000000   3.76969700
       4   H4         0.00000000   0.00000000   5.65454500
       5   H5         0.00000000   0.00000000   7.53939400
       6   H6         0.00000000   0.00000000   9.42424200
       7   H7         0.00000000   0.00000000  11.30909100
       8   H8         0.00000000   0.00000000  13.19393900
      -----------------------------------------------------
      Nuclear repulsion energy =    3.85835094
--
 
++    Orbital specifications:
      -----------------------
 
      Symmetry species               1
                                     a
      Frozen orbitals                0
      Occupied orbitals              4
      Secondary orbitals            36
      Deleted orbitals               0
      Total number of orbitals      40
      Number of basis functions     40
--
 
      Molecular charge                           0.000
 
++    Optimization specifications:
      ----------------------------
 
      SCF Algorithm: Conventional
      Minimized density differences are used
      Number of density matrices in core                5
      Maximum number of NDDO SCF iterations           400
      Maximum number of HF SCF iterations             400
      Threshold for SCF energy change            0.10E-08
      Threshold for density matrix               0.10E-03
      Threshold for Fock matrix                  0.15E-03
      Threshold for linear dependence            0.10E-08
      Threshold at which DIIS is turned on       0.15E+00
      Threshold at which QNR/C2DIIS is turned on 0.75E-01
      Threshold for Norm(delta) (QNR/C2DIIS)     0.20E-04
      DIIS extrapolation of the SCF procedure
      All orbitals punched on: SCFORB
--
 
      Input vectors read from INPORB
      Orbital file label: *Guess orbitals
 
 
++ Convergence information
                                   SCF        iterations: Energy and convergence statistics
 
Iter     Tot. SCF        One-elec.       Two-elec.     Energy      Max Dij or  Max Fij      DNorm      TNorm      AccCon     Time
         Energy          Energy          Energy        Change      Delta Norm                                                in Sec.
   1    -3.602896636   -12.019490149     4.558242578   0.00E+00    0.30E+00*   0.95E-01*    0.40E+01   0.92E+01   None         0.
   2    -3.751305214   -11.992966919     4.383310770  -0.15E+00*   0.11E+00*   0.17E-01*    0.12E+01   0.90E+01   EDIIS        0.
   3    -3.759200655   -11.937428284     4.319876694  -0.79E-02*   0.54E-01*   0.80E-02*    0.25E+00   0.89E+01   EDIIS        0.
   4    -3.760594749   -11.936781389     4.317835705  -0.14E-02*   0.24E-01*   0.59E-02*    0.10E+00   0.89E+01   c2DIIS       0.
   5    -3.761141703   -11.931048111     4.311555472  -0.55E-03*   0.63E-02*   0.14E-02*    0.19E-01   0.89E+01   QNRc2DIIS    0.
   6    -3.761182496   -11.932557532     4.313024101  -0.41E-04*   0.77E-02*   0.64E-03*    0.27E-02   0.89E+01   QNRc2DIIS    0.
   7    -3.761199831   -11.931955485     4.312404719  -0.17E-04*   0.15E-03*   0.49E-04     0.11E-02   0.89E+01   QNRc2DIIS    0.
   8    -3.761199865   -11.931898535     4.312347734  -0.34E-07*   0.35E-04*   0.11E-04     0.17E-03   0.89E+01   QNRc2DIIS    0.
   9    -3.761199866   -11.931874282     4.312323480  -0.14E-08*   0.45E-05    0.18E-05     0.39E-04   0.89E+01   QNRc2DIIS    0.
  10    -3.761199866   -11.931873950     4.312323148  -0.21E-10    0.21E-05    0.52E-06     0.16E-04   0.89E+01   QNRc2DIIS    0.
 
       Convergence after 10 Macro Iterations
--
 
 *****************************************************************************************************************************
 *                                                                                                                           *
 *                                             SCF/KS-DFT Program, Final results                                             *
 *                                                                                                                           *
 *                                                                                                                           *
 *                                                                                                                           *
 *                                                       Final Results                                                       *
 *                                                                                                                           *
 *****************************************************************************************************************************
 
::    Total SCF energy                                 -3.7611998664
      One-electron energy                             -11.9318739498
      Two-electron energy                               4.3123231476
      Nuclear repulsion energy                          3.8583509359
      Kinetic energy (interpolated)                     2.7825568253
      Virial theorem                                    1.3517063990
      Total spin, S(S+1)                                0.0000000000
      Total spin, S                                     0.0000000000
      Max non-diagonal density matrix element           0.0000035614
      Max non-diagonal Fock matrix element              0.0000001017
 
 
      All orbitals with orbital energies smaller than  E(LUMO)+0.5 are printed
 
++    Molecular orbitals:
      -------------------
 
      Title: SCF orbitals

      Molecular orbitals for symmetry species 1: a  
 
          Orbital            1         2         3         4         5         6         7         8         9        10    
          Energy           -0.4651   -0.4396   -0.3990   -0.3499   -0.1229   -0.0547    0.0183    0.0815    0.3073    0.3319
          Occ. No.          2.0000    2.0000    2.0000    2.0000    0.0000    0.0000    0.0000    0.0000    0.0000    0.0000
 
        1 H1     1s         0.1471   -0.2797    0.3688   -0.3297    0.4279   -0.5651    0.5020   -0.2948   -0.1261    0.1712
        2 H1     2s         0.0146   -0.0315    0.0519   -0.0590    0.1479   -0.2291    0.2337   -0.1522    0.2477   -0.4352
        3 H1     2px        0.0000   -0.0000    0.0000   -0.0000   -0.0000    0.0000   -0.0000    0.0000    0.0000   -0.0000
        4 H1     2py       -0.0000    0.0000   -0.0000    0.0000    0.0000   -0.0000    0.0000    0.0000   -0.0000    0.0000
        5 H1     2pz        0.0090   -0.0146    0.0150   -0.0098   -0.0026    0.0137   -0.0264    0.0260   -0.0332    0.0474
        6 H2     1s         0.2206   -0.3704    0.3879   -0.2468   -0.1952    0.5301   -0.7200    0.5323   -0.1528    0.1600
        7 H2     2s         0.0185   -0.0522    0.0891   -0.0825   -0.0597    0.2122   -0.3103    0.2281    0.1968   -0.2548
        8 H2     2px        0.0000   -0.0000    0.0000   -0.0000   -0.0000   -0.0000   -0.0000   -0.0000   -0.0000   -0.0000
        9 H2     2py       -0.0000    0.0000   -0.0000   -0.0000   -0.0000   -0.0000   -0.0000    0.0000   -0.0000    0.0000
       10 H2     2pz        0.0010    0.0041   -0.0141    0.0177   -0.0232    0.0205    0.0013   -0.0181    0.0064   -0.0283
       11 H3     1s         0.3290   -0.2877   -0.1202    0.4171   -0.4921    0.0939    0.6048   -0.7170   -0.1911    0.1584
       12 H3     2s         0.0364   -0.0273   -0.0430    0.1083   -0.1741    0.0307    0.2572   -0.3039    0.2443   -0.2070
       13 H3     2px        0.0000   -0.0000   -0.0000   -0.0000   -0.0000    0.0000   -0.0000   -0.0000    0.0000    0.0000
       14 H3     2py        0.0000   -0.0000    0.0000    0.0000   -0.0000    0.0000    0.0000    0.0000   -0.0000    0.0000
       15 H3     2pz        0.0072    0.0018   -0.0150    0.0131    0.0162   -0.0288    0.0122    0.0178   -0.0112   -0.0109
       16 H4     1s         0.3574   -0.1781   -0.2870    0.3711    0.3965   -0.4982   -0.2659    0.8091   -0.1910    0.0199
       17 H4     2s         0.0347   -0.0386   -0.0419    0.1028    0.1361   -0.2040   -0.1112    0.3414    0.2585   -0.0797
       18 H4     2px        0.0000    0.0000   -0.0000   -0.0000    0.0000    0.0000    0.0000   -0.0000    0.0000    0.0000
       19 H4     2py        0.0000    0.0000    0.0000    0.0000   -0.0000   -0.0000   -0.0000    0.0000   -0.0000   -0.0000
       20 H4     2pz       -0.0032    0.0122   -0.0030   -0.0171    0.0228    0.0088   -0.0323    0.0006    0.0037   -0.0272
       21 H5     1s         0.3574    0.1781   -0.2870   -0.3711    0.3965    0.4982   -0.2659   -0.8091   -0.1910   -0.0199
       22 H5     2s         0.0347    0.0386   -0.0419   -0.1028    0.1361    0.2040   -0.1112   -0.3414    0.2585    0.0797
       23 H5     2px       -0.0000   -0.0000   -0.0000    0.0000   -0.0000    0.0000   -0.0000   -0.0000    0.0000   -0.0000
       24 H5     2py       -0.0000    0.0000   -0.0000   -0.0000    0.0000    0.0000    0.0000    0.0000   -0.0000    0.0000
       25 H5     2pz        0.0032    0.0122    0.0030   -0.0171   -0.0228    0.0088    0.0323    0.0006   -0.0037   -0.0272
       26 H6     1s         0.3290    0.2877   -0.1202   -0.4171   -0.4921   -0.0939    0.6048    0.7170   -0.1911   -0.1584
       27 H6     2s         0.0364    0.0273   -0.0430   -0.1083   -0.1741   -0.0307    0.2572    0.3039    0.2443    0.2070
       28 H6     2px        0.0000   -0.0000    0.0000    0.0000   -0.0000    0.0000    0.0000    0.0000    0.0000   -0.0000
       29 H6     2py       -0.0000   -0.0000    0.0000    0.0000    0.0000   -0.0000    0.0000    0.0000    0.0000    0.0000
       30 H6     2pz       -0.0072    0.0018    0.0150    0.0131   -0.0162   -0.0288   -0.0122    0.0178    0.0112   -0.0109
       31 H7     1s         0.2206    0.3704    0.3879    0.2468   -0.1952   -0.5301   -0.7200   -0.5323   -0.1528   -0.1600
       32 H7     2s         0.0185    0.0522    0.0891    0.0825   -0.0597   -0.2122   -0.3103   -0.2281    0.1968    0.2548
       33 H7     2px        0.0000   -0.0000   -0.0000    0.0000   -0.0000   -0.0000    0.0000   -0.0000    0.0000   -0.0000
       34 H7     2py        0.0000   -0.0000    0.0000    0.0000    0.0000    0.0000   -0.0000   -0.0000    0.0000    0.0000
       35 H7     2pz       -0.0010    0.0041    0.0141    0.0177    0.0232    0.0205   -0.0013   -0.0181   -0.0064   -0.0283
       36 H8     1s         0.1471    0.2797    0.3688    0.3297    0.4279    0.5651    0.5020    0.2948   -0.1261   -0.1712
       37 H8     2s         0.0146    0.0315    0.0519    0.0590    0.1479    0.2291    0.2337    0.1522    0.2477    0.4352
       38 H8     2px        0.0000   -0.0000    0.0000   -0.0000    0.0000    0.0000   -0.0000    0.0000   -0.0000    0.0000
       39 H8     2py        0.0000    0.0000    0.0000    0.0000   -0.0000    0.0000    0.0000    0.0000    0.0000    0.0000
       40 H8     2pz       -0.0090   -0.0146   -0.0150   -0.0098    0.0026    0.0137    0.0264    0.0260    0.0332    0.0474
--
 
 
++    Molecular charges:
      ------------------
 
      Mulliken charges per centre and basis function type
      ---------------------------------------------------
 
                H1      H2      H3      H4      H5      H6      H7      H8    
      1s       0.8866  0.9826  0.9458  0.9522  0.9522  0.9458  0.9826  0.8866
      2s       0.0482  0.0570  0.0377  0.0416  0.0416  0.0377  0.0570  0.0482
      2px      0.0000  0.0000  0.0000  0.0000  0.0000  0.0000  0.0000  0.0000
      2pz      0.0100  0.0132  0.0125  0.0126  0.0126  0.0125  0.0132  0.0100
      2py      0.0000  0.0000  0.0000  0.0000  0.0000  0.0000  0.0000  0.0000
      Total    0.9448  1.0528  0.9960  1.0064  1.0064  0.9960  1.0528  0.9448
 
      N-E      0.0552 -0.0528  0.0040 -0.0064 -0.0064  0.0040 -0.0528  0.0552
 
      Total electronic charge=    8.000000
 
      Total            charge=   -0.000000
--
 
 
  Input file to MOLDEN was generated!
 
 
++    Static properties:
      ------------------
 
 
      LoProp Charges per center
 

                   H1       H2       H3       H4       H5       H6       H7       H8    
      Nuclear      1.0000   1.0000   1.0000   1.0000   1.0000   1.0000   1.0000   1.0000
      Electronic  -0.9739  -1.0211  -0.9986  -1.0063  -1.0063  -0.9986  -1.0211  -0.9739
 
      Total        0.0261  -0.0211   0.0014  -0.0063  -0.0063   0.0014  -0.0211   0.0261
--
 
 
++    Natural Bond Order analysis
      ---------------------------
      Based on LoProp computed density
      -------------------------------------------------------------------------------------
      Atom A       Atom B       Bond Order
      -------------------------------------------------------------------------------------
      NBO located      0.948 non-bonded electrons on atom H1        
      NBO located      1.010 non-bonded electrons on atom H3        
      NBO located      1.018 non-bonded electrons on atom H4        
      NBO located      1.018 non-bonded electrons on atom H5        
      NBO located      1.010 non-bonded electrons on atom H6        
      NBO located      0.948 non-bonded electrons on atom H8        
      The remaining    2.047 electrons are to be considered as diffuse
--
 
 
++    Molecular properties:
      ---------------------
 
      Charge (e):
                      =   -0.0000
      Dipole Moment (Debye):
      Origin of the operator (Ang)=    0.0000    0.0000    0.0000
                   X= -1.4051E-13               Y=  7.3557E-14               Z= -7.5853E-13           Total=  7.7493E-13
      Quadrupole Moment (Debye*Ang):
      Origin of the operator (Ang)=    0.0000    0.0000    6.5970
                  XX= -1.5883E+01              XY=  6.0855E-28              XZ=  8.9945E-13              YY= -1.5883E+01
                  YZ= -4.6956E-13              ZZ= -4.2385E-01
      In traceless form (Debye*Ang)
                  XX= -7.7298E+00              XY=  9.1282E-28              XZ=  1.3492E-12              YY= -7.7298E+00
                  YZ= -7.0434E-13              ZZ=  1.5460E+01
--
 
 
  Input file to MOLDEN was generated!
 
 ###############################################################################
 ###############################################################################
 ###                                                                         ###
 ###                                                                         ###
 ###    RunFile label nBas                                                   ###
 ###    was used       78 times                                              ###
 ###                                                                         ###
 ###                                                                         ###
 ###############################################################################
 ###############################################################################
--- Stop Module: scf at Thu Oct 17 11:44:29 2024 /rc=_RC_ALL_IS_WELL_ ---
*** files: H8_1.88.LprOrb H8_1.88.LoProp.molden H8_1.88.scf.molden H8_1.88.ScfOrb H8_1.88.scf.h5 xmldump
    saved to directory /home/grierjones/DDCASPT2/hydrogen_comps/minimal_2e_2o/chains/even/H8_chain/H8_1.88

>>> COPY /tmp/H8_1.88/H8_1.88.scf.h5 /home/grierjones/DDCASPT2/hydrogen_comps/minimal_2e_2o/chains/even/H8_chain/H8_1.88/

*** symbolic link created: INPORB -> H8_1.88.ScfOrb
--- Start Module: rasscf at Thu Oct 17 11:44:29 2024 ---
 
()()()()()()()()()()()()()()()()()()()()()()()()()()()()()()()()()()()()()()()()()()()()()()()()()()

                                              &RASSCF

                                   only a single process is used
                       available to each process: 2.0 GB of memory, 1 thread?
()()()()()()()()()()()()()()()()()()()()()()()()()()()()()()()()()()()()()()()()()()()()()()()()()()
 
 
      Header of the ONEINT file:
      --------------------------
      
      Integrals generated by seward 4.2.0  , Thu Oct 17 11:44:19 2024
 
 
      OrdInt status: non-squared
 
 
      Cartesian coordinates in Angstrom:
      -----------------------------------------------------
      No.  Label        X            Y            Z        
      -----------------------------------------------------
       1   H1         0.00000000   0.00000000   0.00000000
       2   H2         0.00000000   0.00000000   1.88484800
       3   H3         0.00000000   0.00000000   3.76969700
       4   H4         0.00000000   0.00000000   5.65454500
       5   H5         0.00000000   0.00000000   7.53939400
       6   H6         0.00000000   0.00000000   9.42424200
       7   H7         0.00000000   0.00000000  11.30909100
       8   H8         0.00000000   0.00000000  13.19393900
      -----------------------------------------------------
      Nuclear repulsion energy =    3.85835094
 
++    Wave function specifications:
      -----------------------------
 
      Number of closed shell electrons           0
      Number of electrons in active shells       8
      Max number of holes in RAS1 space          0
      Max nr of electrons in RAS3 space          0
      Number of inactive orbitals                0
      Number of active orbitals                  8
      Number of secondary orbitals              32
      Spin quantum number                      0.0
      State symmetry                             1
--
 
++    Orbital specifications:
      -----------------------
 
      Symmetry species                           1
                                                 a
      Frozen orbitals                            0
      Inactive orbitals                          0
      Active orbitals                            8
      RAS1 orbitals                              0
      RAS2 orbitals                              8
      RAS3 orbitals                              0
      Secondary orbitals                        32
      Deleted orbitals                           0
      Number of basis functions                 40
--
 
++    CI expansion specifications:
      ----------------------------
 
      Number of CSFs                          1764
      Number of determinants                  2485
      Number of root(s) required                 1
      Root chosen for geometry opt.              1
      CI root used                               1
         
      highest root included in the CI            1
      max. size of the explicit Hamiltonian    500
--
 
++    Optimization specifications:
      ----------------------------
 
      RASSCF algorithm: Conventional
      Maximum number of macro iterations       200
      Maximum number of SX iterations          100
      Threshold for RASSCF energy            0.100E-07
      Threshold for max MO rotation          0.100E+00
      Threshold for max BLB element          0.100E-03
      Level shift parameter                  0.500E+00
      Make Quasi-Newton update
--
 
      The MO-coefficients are taken from the file:
      /home/grierjones/DDCASPT2/hydrogen_comps/minimal_2e_2o/chains/even/H8_chain/H8_1.86/H8_1.86.RasOrb                              
      Title: RASSCF average (pseudo-natural) orbitals                                      
 
      Total molecular charge    0.00
 
      ************************************************************************************************************************
      *                                                                                                                      *
      *                                            Wave function control section                                             *
      *                                                                                                                      *
      ************************************************************************************************************************
 
 
                                         RASSCF iterations: Energy and convergence statistics
                                         ----------------------------------------------------
 
      Iter CI   SX   CI       RASSCF       Energy    max ROT     max BLB   max BLB  Level Ln srch  Step   QN   Walltime
          iter iter root      energy       change     param      element    value   shift minimum  type update hh:mm:ss
 Nr of preliminary CI iterations:   7
        1   1    4    1    -4.08269819    0.00E+00   0.21E-02    1   9 1 -0.23E-02*  0.03   0.00    SX    NO    0:00:00
        2   1    4    1    -4.08271159   -0.13E-04* -0.25E-03    4  12 1  0.23E-03*  0.03   0.00    SX    NO    0:00:00
        3   1    3    1    -4.08271177   -0.18E-06*  0.58E-04    4  12 1 -0.53E-04   0.03   0.00    SX    NO    0:00:00
        4  17    4    1    -4.08274834   -0.37E-04* -0.29E-03    1  13 1 -0.17E-03*  0.03   0.00    SX    NO    0:00:00
        5   1    3    1    -4.08274860   -0.26E-06* -0.29E-04    4  12 1  0.20E-04   0.03   1.02    QN   YES    0:00:00
        6   7    3    1    -4.08274865   -0.44E-07* -0.16E-03    1  13 1 -0.28E-04   0.03   1.01    QN   YES    0:00:00
        7   4    3    1    -4.08274861    0.39E-07*  0.90E-04    4  12 1 -0.87E-04   0.03   0.20    LS   YES    0:00:00
        8   3    3    1    -4.08274865   -0.38E-07*  0.38E-04    4  12 1 -0.47E-04   0.03   1.38    QN   YES    0:00:00
        9   1    3    1    -4.08274865   -0.57E-08   0.82E-05    4  17 1  0.27E-04   0.03   1.18    QN   YES    0:00:00
      Convergence after  9 iterations
       10   1    3    1    -4.08274865   -0.17E-08   0.82E-05    4  17 1  0.16E-04   0.03   1.18    QN   YES    0:00:00
 
      ************************************************************************************************************************
                                                      Wave function printout:
                       occupation of active orbitals, and spin coupling of open shells (u,d: Spin up or down)
      ************************************************************************************************************************
 
      Note: transformation to natural orbitals
      has been made, which may change the order of the CSFs.
 
      printout of CI-coefficients larger than  0.05 for root  1
      energy=      -4.082749
      conf/sym  11111111     Coeff  Weight
             1  22220000   0.61403 0.37703
            20  22200200  -0.06572 0.00432
            23  22200020  -0.26439 0.06990
            29  22udud00   0.05652 0.00319
            32  22ud0ud0  -0.25182 0.06341
            34  22udu00d   0.05051 0.00255
            40  2u2d0200  -0.07434 0.00553
            41  2u2du0d0   0.19155 0.03669
            45  2u2d0u0d  -0.07212 0.00520
            49  u22dud00   0.09511 0.00905
            56  u22d00ud  -0.19671 0.03869
            58  22022000  -0.05470 0.00299
            60  22020200  -0.14149 0.02002
            61  2202u0d0   0.07375 0.00544
            63  22020020  -0.07243 0.00525
            69  2ud2ud00   0.17395 0.03026
            72  2ud20ud0  -0.06357 0.00404
            76  2ud200ud  -0.09591 0.00920
            81  u2d2u0d0   0.07946 0.00631
            85  u2d20u0d  -0.13052 0.01704
            88  20222000  -0.09691 0.00939
            90  20220200  -0.06129 0.00376
           102  ud220ud0  -0.06191 0.00383
           104  ud22u00d   0.11889 0.01413
           106  ud2200ud   0.05017 0.00252
           117  02220002  -0.08672 0.00752
           120  22uu0dd0  -0.07546 0.00569
           125  2u2ud0d0   0.07036 0.00495
           135  u22u00dd   0.07621 0.00581
           559  22000220   0.10876 0.01183
           578  2ud0ud20  -0.10753 0.01156
           607  u2d00u2d  -0.08674 0.00752
           617  20202020   0.06944 0.00482
           646  ud20u02d   0.06515 0.00424
           673  02200022   0.05884 0.00346
           676  2u0du2d0  -0.08289 0.00687
           704  u20d02ud  -0.06683 0.00447
           715  20ud2ud0   0.05985 0.00358
           743  udududud   0.05531 0.00306
           745  ududuudd   0.06674 0.00445
           783  uuddudud   0.08180 0.00669
 
      Natural orbitals and occupation numbers for root  1
      sym 1:   1.715866   1.666130   1.570421   1.412381   0.327593   0.433689   0.601958   0.271962
 
      ************************************************************************************************************************
      *                                                                                                                      *
      *                                                    Final results                                                     *
      *                                                                                                                      *
      ************************************************************************************************************************
 
 
++    Wave function specifications:
      -----------------------------
 
      Number of closed shell electrons           0
      Number of electrons in active shells       8
      Max number of holes in RAS1 space          0
      Max nr of electrons in RAS3 space          0
      Number of inactive orbitals                0
      Number of active orbitals                  8
      Number of secondary orbitals              32
      Spin quantum number                      0.0
      State symmetry                             1
--
 
++    Orbital specifications:
      -----------------------
 
      Symmetry species                           1
                                                 a
      Frozen orbitals                            0
      Inactive orbitals                          0
      Active orbitals                            8
      RAS1 orbitals                              0
      RAS2 orbitals                              8
      RAS3 orbitals                              0
      Secondary orbitals                        32
      Deleted orbitals                           0
      Number of basis functions                 40
--
 
++    CI expansion specifications:
      ----------------------------
 
      Number of CSFs                          1764
      Number of determinants                  2485
      Number of root(s) required                 1
      CI root used                               1
      highest root included in the CI            1
      Root passed to geometry opt.               1
--
 
++    Final optimization conditions:
      ------------------------------
 
      Average CI energy                              -4.08274865
      RASSCF energy for state  1                     -4.08274865
      Super-CI energy                                -0.00000000
      RASSCF energy change                            0.00000000
      Max change in MO coefficients              -0.155E-04
      Max non-diagonal density matrix element     0.818E-05
      Maximum BLB matrix element                  0.160E-04
      (orbital pair   4,  17 in symmetry   1)
      Norm of electronic gradient            0.385E-04
--
 
 
      Final state energy(ies):
      ------------------------
 
::    RASSCF root number  1 Total energy:     -4.08274865
 
++    Molecular orbitals:
      -------------------
 
      Pseudonatural active orbitals and approximate occupation numbers
 
 
 
 
      Molecular orbitals for symmetry species 1: a  
 
 
      Orbital                1         2         3         4         5         6         7         8         9        10
      Energy            0.0000    0.0000    0.0000    0.0000    0.0000    0.0000    0.0000    0.0000    0.3147    0.3388
      Occ. No.          1.7159    1.6661    1.5704    1.4124    0.3276    0.4337    0.6020    0.2720    0.0000    0.0000
 
    1 H1     1s         0.1650   -0.3082    0.3879   -0.3331    0.4583   -0.5189   -0.3975   -0.2657   -0.0842   -0.0888
    2 H1     2s         0.0084   -0.0181    0.0280   -0.0293    0.0524   -0.0549   -0.0407   -0.0328    0.2605    0.4682
    3 H1     2px       -0.0000    0.0000   -0.0000    0.0000   -0.0000    0.0000    0.0000    0.0000    0.0000    0.0000
    4 H1     2py       -0.0000    0.0000    0.0000   -0.0000    0.0000    0.0000   -0.0000    0.0000   -0.0000   -0.0000
    5 H1     2pz        0.0043   -0.0066    0.0060   -0.0034    0.0048   -0.0040   -0.0023   -0.0034   -0.0317   -0.0476
    6 H2     1s         0.2400   -0.3872    0.3786   -0.2231   -0.6213    0.4754    0.1818    0.4430   -0.1657   -0.2078
    7 H2     2s         0.0101   -0.0292    0.0510   -0.0501   -0.1085    0.0626    0.0038    0.0869    0.1838    0.2215
    8 H2     2px        0.0000   -0.0000   -0.0000    0.0000    0.0000    0.0000    0.0000   -0.0000   -0.0000    0.0000
    9 H2     2py       -0.0000   -0.0000    0.0000    0.0000   -0.0000    0.0000    0.0000    0.0000   -0.0000   -0.0000
   10 H2     2pz        0.0025    0.0001   -0.0067    0.0093    0.0012    0.0023    0.0059   -0.0014    0.0036    0.0264
   11 H3     1s         0.3331   -0.2860   -0.1267    0.4335    0.5045    0.1156    0.4920   -0.5970   -0.1613   -0.0934
   12 H3     2s         0.0177   -0.0116   -0.0278    0.0641    0.0994    0.0048    0.0691   -0.1154    0.2513    0.2246
   13 H3     2px        0.0000   -0.0000    0.0000   -0.0000   -0.0000   -0.0000    0.0000   -0.0000   -0.0000   -0.0000
   14 H3     2py        0.0000   -0.0000    0.0000    0.0000   -0.0000    0.0000   -0.0000    0.0000   -0.0000   -0.0000
   15 H3     2pz        0.0017    0.0035   -0.0085    0.0055    0.0034   -0.0031   -0.0026   -0.0032   -0.0080    0.0122
   16 H4     1s         0.3639   -0.1615   -0.3064    0.3748   -0.2284   -0.4682   -0.3966    0.6645   -0.1769   -0.0548
   17 H4     2s         0.0172   -0.0195   -0.0222    0.0612   -0.0334   -0.0873   -0.0474    0.1315    0.2594    0.0638
   18 H4     2px       -0.0000   -0.0000   -0.0000   -0.0000   -0.0000   -0.0000    0.0000   -0.0000    0.0000   -0.0000
   19 H4     2py       -0.0000   -0.0000    0.0000    0.0000   -0.0000    0.0000   -0.0000    0.0000    0.0000    0.0000
   20 H4     2pz        0.0007    0.0063   -0.0033   -0.0084   -0.0002    0.0026   -0.0041   -0.0029    0.0004    0.0251
   21 H5     1s         0.3639    0.1615   -0.3064   -0.3748   -0.2284    0.4682   -0.3966   -0.6645   -0.1769    0.0548
   22 H5     2s         0.0172    0.0195   -0.0222   -0.0612   -0.0334    0.0873   -0.0474   -0.1315    0.2594   -0.0638
   23 H5     2px        0.0000   -0.0000    0.0000   -0.0000    0.0000    0.0000    0.0000   -0.0000    0.0000   -0.0000
   24 H5     2py        0.0000    0.0000    0.0000   -0.0000   -0.0000    0.0000    0.0000    0.0000   -0.0000    0.0000
   25 H5     2pz       -0.0007    0.0063    0.0033   -0.0084    0.0002    0.0026    0.0041   -0.0029   -0.0004    0.0251
   26 H6     1s         0.3331    0.2860   -0.1267   -0.4335    0.5045   -0.1156    0.4920    0.5970   -0.1613    0.0934
   27 H6     2s         0.0177    0.0116   -0.0278   -0.0641    0.0994   -0.0048    0.0691    0.1154    0.2513   -0.2246
   28 H6     2px       -0.0000    0.0000   -0.0000    0.0000    0.0000   -0.0000    0.0000   -0.0000    0.0000   -0.0000
   29 H6     2py       -0.0000    0.0000    0.0000    0.0000    0.0000   -0.0000   -0.0000    0.0000   -0.0000    0.0000
   30 H6     2pz       -0.0017    0.0035    0.0085    0.0055   -0.0034   -0.0031    0.0026   -0.0032    0.0080    0.0122
   31 H7     1s         0.2400    0.3872    0.3786    0.2231   -0.6213   -0.4754    0.1818   -0.4430   -0.1657    0.2078
   32 H7     2s         0.0101    0.0292    0.0510    0.0501   -0.1085   -0.0626    0.0038   -0.0869    0.1838   -0.2215
   33 H7     2px        0.0000    0.0000    0.0000    0.0000   -0.0000    0.0000   -0.0000    0.0000   -0.0000    0.0000
   34 H7     2py        0.0000   -0.0000    0.0000   -0.0000   -0.0000    0.0000    0.0000    0.0000    0.0000   -0.0000
   35 H7     2pz       -0.0025    0.0001    0.0067    0.0093   -0.0012    0.0023   -0.0059   -0.0014   -0.0036    0.0264
   36 H8     1s         0.1650    0.3082    0.3879    0.3331    0.4583    0.5189   -0.3975    0.2657   -0.0842    0.0888
   37 H8     2s         0.0084    0.0181    0.0280    0.0293    0.0524    0.0549   -0.0407    0.0328    0.2605   -0.4682
   38 H8     2px       -0.0000    0.0000    0.0000   -0.0000    0.0000   -0.0000    0.0000    0.0000    0.0000    0.0000
   39 H8     2py        0.0000   -0.0000    0.0000   -0.0000    0.0000    0.0000   -0.0000    0.0000   -0.0000    0.0000
   40 H8     2pz       -0.0043   -0.0066   -0.0060   -0.0034   -0.0048   -0.0040    0.0023   -0.0034    0.0317   -0.0476
 
 
      Orbital               11        12        13        14        15        16        17        18        19        20
      Energy            0.3865    0.4696    0.5941    0.7310    0.7310    0.7365    0.7472    0.7674    0.7674    0.7897
      Occ. No.          0.0000    0.0000    0.0000    0.0000    0.0000    0.0000    0.0000    0.0000    0.0000    0.0000
 
    1 H1     1s        -0.0084    0.1703    0.3192    0.0000    0.0000   -0.0254    0.3621    0.0000    0.0000   -0.1421
    2 H1     2s        -0.6005    0.6647    0.6445    0.0000    0.0000    0.1057    0.4933   -0.0000    0.0000    0.0324
    3 H1     2px       -0.0000    0.0000    0.0000   -0.1402   -0.0233    0.0000    0.0000    0.2749   -0.0038   -0.0000
    4 H1     2py        0.0000    0.0000   -0.0000   -0.0233    0.1402   -0.0000   -0.0000    0.0038    0.2749    0.0000
    5 H1     2pz        0.0454   -0.0395   -0.0576    0.0000   -0.0000    0.1666   -0.1293   -0.0000   -0.0000    0.3180
    6 H2     1s         0.1318   -0.0800   -0.1891   -0.0000   -0.0000   -0.0318   -0.3879   -0.0000   -0.0000    0.1021
    7 H2     2s        -0.0477   -0.3211   -0.7730   -0.0000   -0.0000   -0.1590   -1.0579   -0.0000   -0.0000    0.1666
    8 H2     2px       -0.0000    0.0000    0.0000   -0.2626   -0.0436    0.0000    0.0000    0.4188   -0.0058   -0.0000
    9 H2     2py        0.0000    0.0000   -0.0000   -0.0436    0.2626   -0.0000   -0.0000    0.0058    0.4188   -0.0000
   10 H2     2pz       -0.0595    0.0716    0.0457   -0.0000   -0.0000   -0.2527    0.0160    0.0000    0.0000   -0.3561
   11 H3     1s        -0.0819    0.0811   -0.0369    0.0000    0.0000    0.0370    0.1309   -0.0000    0.0000   -0.1317
   12 H3     2s         0.1139   -0.4759   -0.3748    0.0000    0.0000    0.1369    0.4200    0.0000    0.0000   -0.3550
   13 H3     2px       -0.0000   -0.0000    0.0000   -0.3566   -0.0592    0.0000    0.0000    0.3697   -0.0052    0.0000
   14 H3     2py        0.0000    0.0000   -0.0000   -0.0592    0.3566   -0.0000   -0.0000    0.0052    0.3697   -0.0000
   15 H3     2pz       -0.0293   -0.0027   -0.0393    0.0000    0.0000    0.3293    0.0565    0.0000    0.0000    0.2832
   16 H4     1s        -0.1163    0.0436    0.0711   -0.0000    0.0000   -0.0168    0.2204   -0.0000   -0.0000    0.1442
   17 H4     2s         0.3510   -0.2539    0.5407    0.0000    0.0000   -0.0516    0.7711   -0.0000    0.0000    0.4248
   18 H4     2px       -0.0000   -0.0000    0.0000   -0.4062   -0.0675    0.0000    0.0000    0.1469   -0.0021    0.0000
   19 H4     2py       -0.0000    0.0000   -0.0000   -0.0675    0.4062   -0.0000   -0.0000    0.0021    0.1469   -0.0000
   20 H4     2pz       -0.0151   -0.0405   -0.0191   -0.0000   -0.0000   -0.3720   -0.0364   -0.0000   -0.0000   -0.1067
   21 H5     1s        -0.1163   -0.0436    0.0711    0.0000   -0.0000   -0.0168   -0.2204   -0.0000   -0.0000   -0.1442
   22 H5     2s         0.3510    0.2539    0.5407   -0.0000   -0.0000   -0.0516   -0.7711   -0.0000   -0.0000   -0.4248
   23 H5     2px       -0.0000   -0.0000    0.0000   -0.4062   -0.0675    0.0000    0.0000   -0.1469    0.0021    0.0000
   24 H5     2py       -0.0000    0.0000    0.0000   -0.0675    0.4062   -0.0000   -0.0000   -0.0021   -0.1469   -0.0000
   25 H5     2pz        0.0151   -0.0405    0.0191    0.0000    0.0000    0.3720   -0.0364    0.0000    0.0000   -0.1067
   26 H6     1s        -0.0819   -0.0811   -0.0369   -0.0000   -0.0000    0.0370   -0.1309    0.0000    0.0000    0.1317
   27 H6     2s         0.1139    0.4759   -0.3748   -0.0000   -0.0000    0.1369   -0.4200    0.0000    0.0000    0.3550
   28 H6     2px       -0.0000   -0.0000    0.0000   -0.3566   -0.0592    0.0000    0.0000   -0.3697    0.0052   -0.0000
   29 H6     2py        0.0000    0.0000    0.0000   -0.0592    0.3566   -0.0000   -0.0000   -0.0052   -0.3697    0.0000
   30 H6     2pz        0.0293   -0.0027    0.0393   -0.0000   -0.0000   -0.3293    0.0565   -0.0000    0.0000    0.2832
   31 H7     1s         0.1318    0.0800   -0.1891    0.0000    0.0000   -0.0318    0.3879   -0.0000    0.0000   -0.1021
   32 H7     2s        -0.0477    0.3211   -0.7730    0.0000    0.0000   -0.1590    1.0579   -0.0000   -0.0000   -0.1666
   33 H7     2px        0.0000    0.0000    0.0000   -0.2626   -0.0436    0.0000    0.0000   -0.4188    0.0058   -0.0000
   34 H7     2py       -0.0000   -0.0000    0.0000   -0.0436    0.2626   -0.0000   -0.0000   -0.0058   -0.4188    0.0000
   35 H7     2pz        0.0595    0.0716   -0.0457    0.0000    0.0000    0.2527    0.0160    0.0000   -0.0000   -0.3561
   36 H8     1s        -0.0084   -0.1703    0.3192   -0.0000   -0.0000   -0.0254   -0.3621    0.0000   -0.0000    0.1421
   37 H8     2s        -0.6005   -0.6647    0.6445    0.0000   -0.0000    0.1057   -0.4933    0.0000    0.0000   -0.0324
   38 H8     2px        0.0000    0.0000   -0.0000   -0.1402   -0.0233    0.0000    0.0000   -0.2749    0.0038   -0.0000
   39 H8     2py        0.0000    0.0000    0.0000   -0.0233    0.1402   -0.0000   -0.0000   -0.0038   -0.2749    0.0000
   40 H8     2pz       -0.0454   -0.0395    0.0576   -0.0000   -0.0000   -0.1666   -0.1293   -0.0000    0.0000    0.3180
 
 
      Orbital               21        22        23        24        25        26        27        28        29        30
      Energy            0.8224    0.8263    0.8263    0.9049    0.9049    1.0001    1.0001    1.0997    1.0997    1.1903
      Occ. No.          0.0000    0.0000    0.0000    0.0000    0.0000    0.0000    0.0000    0.0000    0.0000    0.0000
 
    1 H1     1s        -0.2537    0.0000    0.0000    0.0000   -0.0000   -0.0000    0.0000   -0.0000    0.0000    0.0000
    2 H1     2s        -0.1550    0.0000    0.0000    0.0000   -0.0000    0.0000   -0.0000   -0.0000   -0.0000    0.0000
    3 H1     2px        0.0000    0.3851    0.0040    0.4233    0.1664   -0.4750    0.0289   -0.1365    0.4180   -0.2876
    4 H1     2py        0.0000   -0.0040    0.3851    0.1664   -0.4233   -0.0289   -0.4750   -0.4180   -0.1365   -0.1810
    5 H1     2pz        0.3123   -0.0000   -0.0000   -0.0000    0.0000   -0.0000   -0.0000    0.0000   -0.0000    0.0000
    6 H2     1s         0.2992   -0.0000   -0.0000    0.0000   -0.0000   -0.0000    0.0000   -0.0000    0.0000   -0.0000
    7 H2     2s         0.6737   -0.0000   -0.0000   -0.0000    0.0000   -0.0000    0.0000    0.0000    0.0000   -0.0000
    8 H2     2px        0.0000    0.3825    0.0040    0.1468    0.0577    0.1688   -0.0103    0.1378   -0.4218    0.4441
    9 H2     2py        0.0000   -0.0040    0.3825    0.0577   -0.1468    0.0103    0.1688    0.4218    0.1378    0.2795
   10 H2     2pz       -0.2246    0.0000    0.0000    0.0000   -0.0000    0.0000    0.0000   -0.0000    0.0000   -0.0000
   11 H3     1s        -0.3223    0.0000    0.0000   -0.0000   -0.0000   -0.0000   -0.0000   -0.0000   -0.0000    0.0000
   12 H3     2s        -0.8754    0.0000    0.0000    0.0000   -0.0000    0.0000   -0.0000    0.0000   -0.0000    0.0000
   13 H3     2px       -0.0000   -0.0007   -0.0000   -0.3728   -0.1465    0.4204   -0.0256    0.0002   -0.0007   -0.3901
   14 H3     2py        0.0000    0.0000   -0.0007   -0.1465    0.3728    0.0256    0.4204    0.0007    0.0002   -0.2456
   15 H3     2pz        0.0106    0.0000   -0.0000    0.0000    0.0000   -0.0000   -0.0000   -0.0000    0.0000   -0.0000
   16 H4     1s         0.1469   -0.0000   -0.0000   -0.0000   -0.0000    0.0000    0.0000    0.0000    0.0000   -0.0000
   17 H4     2s         0.3991   -0.0000   -0.0000    0.0000    0.0000    0.0000    0.0000    0.0000    0.0000   -0.0000
   18 H4     2px       -0.0000   -0.3806   -0.0040   -0.2770   -0.1089   -0.3136    0.0191   -0.1373    0.4203    0.1545
   19 H4     2py       -0.0000    0.0040   -0.3806   -0.1089    0.2770   -0.0191   -0.3136   -0.4203   -0.1373    0.0973
   20 H4     2pz        0.1799   -0.0000   -0.0000   -0.0000    0.0000    0.0000   -0.0000    0.0000   -0.0000    0.0000
   21 H5     1s         0.1469    0.0000   -0.0000    0.0000    0.0000   -0.0000   -0.0000   -0.0000   -0.0000   -0.0000
   22 H5     2s         0.3991   -0.0000   -0.0000   -0.0000   -0.0000   -0.0000   -0.0000   -0.0000   -0.0000   -0.0000
   23 H5     2px       -0.0000   -0.3806   -0.0040    0.2770    0.1089   -0.3136    0.0191    0.1373   -0.4203    0.1545
   24 H5     2py       -0.0000    0.0040   -0.3806    0.1089   -0.2770   -0.0191   -0.3136    0.4203    0.1373    0.0973
   25 H5     2pz       -0.1799    0.0000    0.0000    0.0000    0.0000   -0.0000    0.0000    0.0000    0.0000   -0.0000
   26 H6     1s        -0.3223    0.0000    0.0000   -0.0000    0.0000    0.0000    0.0000   -0.0000    0.0000    0.0000
   27 H6     2s        -0.8754    0.0000    0.0000    0.0000    0.0000    0.0000    0.0000    0.0000   -0.0000    0.0000
   28 H6     2px       -0.0000   -0.0007   -0.0000    0.3728    0.1465    0.4204   -0.0256   -0.0002    0.0007   -0.3901
   29 H6     2py       -0.0000    0.0000   -0.0007    0.1465   -0.3728    0.0256    0.4204   -0.0007   -0.0002   -0.2456
   30 H6     2pz       -0.0106    0.0000   -0.0000    0.0000    0.0000    0.0000   -0.0000   -0.0000    0.0000    0.0000
   31 H7     1s         0.2992   -0.0000   -0.0000    0.0000    0.0000   -0.0000   -0.0000    0.0000   -0.0000   -0.0000
   32 H7     2s         0.6737   -0.0000   -0.0000    0.0000   -0.0000   -0.0000   -0.0000   -0.0000    0.0000   -0.0000
   33 H7     2px        0.0000    0.3825    0.0040   -0.1468   -0.0577    0.1688   -0.0103   -0.1378    0.4218    0.4441
   34 H7     2py        0.0000   -0.0040    0.3825   -0.0577    0.1468    0.0103    0.1688   -0.4218   -0.1378    0.2795
   35 H7     2pz        0.2246   -0.0000   -0.0000   -0.0000   -0.0000    0.0000    0.0000    0.0000    0.0000    0.0000
   36 H8     1s        -0.2537    0.0000    0.0000    0.0000    0.0000   -0.0000    0.0000   -0.0000    0.0000    0.0000
   37 H8     2s        -0.1550    0.0000    0.0000   -0.0000   -0.0000    0.0000   -0.0000   -0.0000   -0.0000    0.0000
   38 H8     2px        0.0000    0.3851    0.0040   -0.4233   -0.1664   -0.4750    0.0289    0.1365   -0.4180   -0.2876
   39 H8     2py        0.0000   -0.0040    0.3851   -0.1664    0.4233   -0.0289   -0.4750    0.4180    0.1365   -0.1810
   40 H8     2pz       -0.3123    0.0000    0.0000    0.0000    0.0000   -0.0000    0.0000    0.0000   -0.0000   -0.0000
 
 
      Orbital               31        32        33        34        35        36        37        38        39        40
      Energy            1.1903    1.2546    1.2546    1.2950    1.3022    1.3919    1.4346    1.6202    1.8214    1.9852
      Occ. No.          0.0000    0.0000    0.0000    0.0000    0.0000    0.0000    0.0000    0.0000    0.0000    0.0000
 
    1 H1     1s         0.0000    0.0000   -0.0000   -0.3515    0.2909    0.2843   -0.3123    0.2772   -0.2258    0.1314
    2 H1     2s         0.0000    0.0000   -0.0000   -0.5074    0.4379    0.3808   -0.3851    0.2481   -0.1485    0.0707
    3 H1     2px       -0.1810   -0.1859   -0.0017   -0.0000    0.0000    0.0000   -0.0000   -0.0000    0.0000   -0.0000
    4 H1     2py        0.2876   -0.0017    0.1859   -0.0000    0.0000   -0.0000    0.0000   -0.0000    0.0000   -0.0000
    5 H1     2pz        0.0000    0.0000   -0.0000   -0.3006    0.4679    0.2075   -0.5586    0.5077   -0.3922    0.2165
    6 H2     1s        -0.0000   -0.0000   -0.0000    0.9346   -0.6020   -0.8287    0.4978   -0.2093    0.0009    0.0613
    7 H2     2s        -0.0000   -0.0000    0.0000    1.3105   -0.6930   -1.1246    0.4712   -0.1848    0.0639   -0.0215
    8 H2     2px        0.2795    0.3520    0.0031    0.0000   -0.0000   -0.0000    0.0000    0.0000   -0.0000    0.0000
    9 H2     2py       -0.4441    0.0031   -0.3520    0.0000    0.0000    0.0000   -0.0000    0.0000   -0.0000    0.0000
   10 H2     2pz       -0.0000   -0.0000    0.0000    0.3038   -0.0366   -0.2405   -0.2869    0.6102   -0.6965    0.4655
   11 H3     1s         0.0000    0.0000   -0.0000   -1.1050    0.1068    1.3057    0.0928   -0.2172    0.0683    0.0693
   12 H3     2s         0.0000    0.0000   -0.0000   -1.5200    0.0765    1.7987   -0.0080   -0.0309   -0.0129    0.0300
   13 H3     2px       -0.2456   -0.4740   -0.0042   -0.0000    0.0000    0.0000   -0.0000   -0.0000    0.0000   -0.0000
   14 H3     2py        0.3901   -0.0042    0.4740   -0.0000   -0.0000    0.0000    0.0000   -0.0000    0.0000   -0.0000
   15 H3     2pz       -0.0000   -0.0000   -0.0000    0.0642   -0.5557    0.0937    0.5180    0.0318   -0.6228    0.6405
   16 H4     1s        -0.0000   -0.0000    0.0000    0.4999    0.6618   -1.5194   -0.2355   -0.1923    0.1972    0.0151
   17 H4     2s        -0.0000   -0.0000    0.0000    0.6784    0.8120   -2.1406   -0.1415   -0.1184    0.0599   -0.0058
   18 H4     2px        0.0973    0.5387    0.0048    0.0000   -0.0000    0.0000   -0.0000    0.0000   -0.0000    0.0000
   19 H4     2py       -0.1545    0.0048   -0.5387    0.0000    0.0000   -0.0000    0.0000    0.0000   -0.0000    0.0000
   20 H4     2pz        0.0000    0.0000    0.0000   -0.4548    0.3654   -0.0029    0.3717   -0.5553   -0.2567    0.7418
   21 H5     1s        -0.0000   -0.0000   -0.0000    0.4999   -0.6618    1.5194   -0.2355    0.1923    0.1972   -0.0151
   22 H5     2s         0.0000   -0.0000   -0.0000    0.6784   -0.8120    2.1406   -0.1415    0.1184    0.0599    0.0058
   23 H5     2px        0.0973   -0.5387   -0.0048   -0.0000    0.0000    0.0000    0.0000   -0.0000    0.0000   -0.0000
   24 H5     2py       -0.1545   -0.0048    0.5387    0.0000   -0.0000    0.0000   -0.0000   -0.0000   -0.0000    0.0000
   25 H5     2pz       -0.0000   -0.0000    0.0000    0.4548    0.3654   -0.0029   -0.3717   -0.5553    0.2567    0.7418
   26 H6     1s         0.0000    0.0000   -0.0000   -1.1050   -0.1068   -1.3057    0.0928    0.2172    0.0683   -0.0693
   27 H6     2s         0.0000    0.0000    0.0000   -1.5200   -0.0765   -1.7987   -0.0080    0.0309   -0.0129   -0.0300
   28 H6     2px       -0.2456    0.4740    0.0042    0.0000   -0.0000    0.0000   -0.0000   -0.0000   -0.0000    0.0000
   29 H6     2py        0.3901    0.0042   -0.4740   -0.0000    0.0000   -0.0000    0.0000   -0.0000    0.0000    0.0000
   30 H6     2pz        0.0000   -0.0000   -0.0000   -0.0642   -0.5557    0.0937   -0.5180    0.0318    0.6228    0.6405
   31 H7     1s        -0.0000   -0.0000    0.0000    0.9346    0.6020    0.8287    0.4978    0.2093    0.0009   -0.0613
   32 H7     2s        -0.0000   -0.0000   -0.0000    1.3105    0.6930    1.1246    0.4712    0.1848    0.0639    0.0215
   33 H7     2px        0.2795   -0.3520   -0.0031   -0.0000    0.0000    0.0000    0.0000    0.0000   -0.0000   -0.0000
   34 H7     2py       -0.4441   -0.0031    0.3520   -0.0000   -0.0000    0.0000   -0.0000    0.0000   -0.0000    0.0000
   35 H7     2pz        0.0000    0.0000    0.0000   -0.3038   -0.0366   -0.2405    0.2869    0.6102    0.6965    0.4655
   36 H8     1s        -0.0000    0.0000    0.0000   -0.3515   -0.2909   -0.2843   -0.3123   -0.2772   -0.2258   -0.1314
   37 H8     2s         0.0000    0.0000   -0.0000   -0.5074   -0.4379   -0.3808   -0.3851   -0.2481   -0.1485   -0.0707
   38 H8     2px       -0.1810    0.1859    0.0017    0.0000   -0.0000   -0.0000   -0.0000   -0.0000    0.0000   -0.0000
   39 H8     2py        0.2876    0.0017   -0.1859    0.0000   -0.0000   -0.0000    0.0000   -0.0000    0.0000   -0.0000
   40 H8     2pz       -0.0000   -0.0000    0.0000    0.3006    0.4679    0.2075    0.5586    0.5077    0.3922    0.2165
--
 
      Von Neumann Entropy (Root  1) =  2.85602
 

      Mulliken population analysis for root number:  1
      -----------------------------------------------
 
 
++    Molecular charges:
      ------------------
 
      Mulliken charges per centre and basis function type
      ---------------------------------------------------
 
                H1      H2      H3      H4      H5      H6      H7      H8    
      1s       0.9762  1.0046  1.0007  0.9997  0.9997  1.0007  1.0046  0.9762
      2s       0.0084  0.0029 -0.0067 -0.0047 -0.0047 -0.0067  0.0029  0.0084
      2px      0.0000  0.0000  0.0000  0.0000  0.0000  0.0000  0.0000  0.0000
      2pz      0.0025  0.0059  0.0053  0.0054  0.0054  0.0053  0.0059  0.0025
      2py      0.0000  0.0000  0.0000  0.0000  0.0000  0.0000  0.0000  0.0000
      Total    0.9870  1.0134  0.9993  1.0003  1.0003  0.9993  1.0134  0.9870
 
      N-E      0.0130 -0.0134  0.0007 -0.0003 -0.0003  0.0007 -0.0134  0.0130
 
      Total electronic charge=    8.000000
 
      Total            charge=   -0.000000
--
 
 

      Expectation values of various properties for root number:  1
      -----------------------------------------------------------
 
 
++    Molecular properties:
      ---------------------
 
      Charge (e):
                      =   -0.0000
      Dipole Moment (Debye):
      Origin of the operator (Ang)=    0.0000    0.0000    0.0000
                   X= -2.6129E-13               Y= -4.9231E-13               Z= -2.7231E-10           Total=  2.7231E-10
      Quadrupole Moment (Debye*Ang):
      Origin of the operator (Ang)=    0.0000    0.0000    6.5970
                  XX= -1.2250E+01              XY=  8.9958E-27              XZ= -2.2606E-12              YY= -1.2250E+01
                  YZ=  2.6772E-13              ZZ= -8.5921E+00
      In traceless form (Debye*Ang)
                  XX= -1.8287E+00              XY=  1.3494E-26              XZ= -3.3909E-12              YY= -1.8287E+00
                  YZ=  4.0158E-13              ZZ=  3.6575E+00
--
 

      LoProp population analysis for root number:  1
      -----------------------------------------------
 
 
++    LoProp analysis:
      ----------------
 
 
 
  Input file to MOLDEN was generated!
 
 
++    Static properties:
      ------------------
 
 
      LoProp Charges per center
 

                   H1       H2       H3       H4       H5       H6       H7       H8    
      Nuclear      1.0000   1.0000   1.0000   1.0000   1.0000   1.0000   1.0000   1.0000
      Electronic  -0.9996  -1.0004  -0.9998  -1.0003  -1.0003  -0.9998  -1.0004  -0.9996
 
      Total        0.0004  -0.0004   0.0002  -0.0003  -0.0003   0.0002  -0.0004   0.0004
--
 
 
      Natural Bond Order analysis for root number:  1
 
++    Natural Bond Order analysis
      ---------------------------
      Based on LoProp computed density
      -------------------------------------------------------------------------------------
      Atom A       Atom B       Bond Order
      -------------------------------------------------------------------------------------
      NBO located      0.992 non-bonded electrons on atom H1        
      NBO located      1.018 non-bonded electrons on atom H3        
      NBO located      1.018 non-bonded electrons on atom H4        
      NBO located      1.018 non-bonded electrons on atom H5        
      NBO located      1.018 non-bonded electrons on atom H6        
      NBO located      0.992 non-bonded electrons on atom H8        
      The remaining    1.945 electrons are to be considered as diffuse
--
 
--
 
 
  Input file to MOLDEN was generated!
 
      Average orbitals are written to the RASORB file
      Natural orbitals for root   1 are written to the RASORB.1 file
      Spin density orbitals for root   1 are written to the SPDORB.1 file
 
--- Stop Module: rasscf at Thu Oct 17 11:44:31 2024 /rc=_RC_ALL_IS_WELL_ ---
*** files: H8_1.88.LprOrb H8_1.88.rasscf.molden H8_1.88.LoProp.molden H8_1.88.RasOrb H8_1.88.RasOrb.1 H8_1.88.rasscf.h5 H8_1.88.SpdOrb.1 xmldump
    saved to directory /home/grierjones/DDCASPT2/hydrogen_comps/minimal_2e_2o/chains/even/H8_chain/H8_1.88
--- Module rasscf spent 1 second ---

>>> COPY /tmp/H8_1.88/H8_1.88.rasscf.h5 /home/grierjones/DDCASPT2/hydrogen_comps/minimal_2e_2o/chains/even/H8_chain/H8_1.88/

>>> COPY /tmp/H8_1.88/GMJ_Fock_MO.csv /home/grierjones/DDCASPT2/hydrogen_comps/minimal_2e_2o/chains/even/H8_chain/H8_1.88/H8_1.88.GMJ_Fock_MO.csv

*** symbolic link created: INPORB -> H8_1.88.RasOrb
--- Start Module: caspt2 at Thu Oct 17 11:44:31 2024 ---
 
()()()()()()()()()()()()()()()()()()()()()()()()()()()()()()()()()()()()()()()()()()()()()()()()()()

                                              &CASPT2

                                   only a single process is used
                       available to each process: 2.0 GB of memory, 1 thread?
()()()()()()()()()()()()()()()()()()()()()()()()()()()()()()()()()()()()()()()()()()()()()()()()()()
 
 Cholesky algorithm in CASPT2 =    1
 
 ###############################################################################
 ###############################################################################
 ###                                                                         ###
 ###                                                                         ###
 ###    User changed nr of frozen orbitals.                                  ###
 ###                                                                         ###
 ###                                                                         ###
 ###############################################################################
 ###############################################################################
 
++    Wave function specifications:
      -----------------------------
 
      Number of closed shell electrons           0
      Number of electrons in active shells       8
      Max number of holes in RAS1 space          0
      Max number of electrons in RAS3 space      0
      Number of inactive orbitals                0
      Number of active orbitals                  8
      Number of secondary orbitals              32
      Spin quantum number                      0.0
      State symmetry                             1
      Number of CSFs                          1764
      Number of root(s) available                1
      Root passed to geometry opt.               1
      A file JOBMIX will be created.
      This is a CASSCF or RASSCF reference function
--
 
++    Orbital specifications:
      -----------------------
 
      Symmetry species                           1
                                                 a
      Frozen orbitals                            0
      Inactive orbitals                          0
      Active orbitals                            8
      Secondary orbitals                        32
      Deleted orbitals                           0
      Number of basis functions                 40
--
 
      Type of Fock operator: STANDARD
      Type of 0-order Hamiltonian: STANDARD WITH DEFAULT IPEA
        "IP-EA" denominator shift =      0.25
      The input orbitals and the CI vector will be transformed.
 
--------------------------------------------------------------------------------
 Estimated memory requirements:
  POLY3 :                   450746
  RHS:                      417296
  SIGMA :                   326032
  PRPCTL:                        0
 Available workspace:    230388092
 
++ CASPT2 computation for group   1
 
********************************************************************************
 Multi-State initialization phase begins for group   1
--------------------------------------------------------------------------------
********************************************************************************
 Compute H0 matrices for state    1
--------------------------------------------------------------------------------
--------------------------------------------------------------------------------
 H0 matrices have been computed.
 
********************************************************************************
  CASPT2 EQUATION SOLUTION
--------------------------------------------------------------------------------
 
  Total nr of CASPT2 parameters:
   Before reduction:       49280
   After  reduction:       49024
 
 The contributions to the second order correlation energy in atomic units.
-----------------------------------------------------------------------------------------------------------------------------
  IT.      VJTU        VJTI        ATVX        AIVX        VJAI        BVAT        BJAT        BJAI        TOTAL       RNORM  
-----------------------------------------------------------------------------------------------------------------------------
   1     0.000000    0.000000   -0.005268    0.000000    0.000000   -0.012027    0.000000    0.000000   -0.017295    0.001268
   2     0.000000    0.000000   -0.005319    0.000000    0.000000   -0.012044    0.000000    0.000000   -0.017363    0.000136
   3     0.000000    0.000000   -0.005321    0.000000    0.000000   -0.012044    0.000000    0.000000   -0.017365    0.000027
   4     0.000000    0.000000   -0.005320    0.000000    0.000000   -0.012044    0.000000    0.000000   -0.017364    0.000003
-------------------------------------------------------------------------------------------------------------------
 
  FINAL CASPT2 RESULT:
 
  Correlation energy /Case, /Symm, and sums:
 VJTU      0.00000000  0.00000000
 VJTIP     0.00000000  0.00000000
 VJTIM     0.00000000  0.00000000
 ATVX     -0.00531996 -0.00531996
 AIVX      0.00000000  0.00000000
 VJAIP     0.00000000  0.00000000
 VJAIM     0.00000000  0.00000000
 BVATP    -0.01142995 -0.01142995
 BVATM    -0.00061445 -0.00061445
 BJATP     0.00000000  0.00000000
 BJATM     0.00000000  0.00000000
 BJAIP     0.00000000  0.00000000
 BJAIM     0.00000000  0.00000000
 Summed:  -0.01736436 -0.01736436
 
      Reference energy:          -4.0827486535
      E2 (Non-variational):      -0.0173643633
      E2 (Variational):          -0.0173643721
      Total energy:              -4.1001130257
      Residual norm:              0.0000004497
      Reference weight:           0.98993
 
      Contributions to the CASPT2 correlation energy
      Active & Virtual Only:         -0.0173643633
      One Inactive Excited:           0.0000000000
      Two Inactive Excited:           0.0000000000
 
 
++ Denominators, etc.
----------------------------------------------------------------------------------------------------
 Report on small energy denominators, large coefficients, and large energy contributions.
CASE  SYMM ACTIVE-MIX  NON-ACTIVE INDICES          DENOMINATOR     RHS VALUE       COEFFICIENT     CONTRIBUTION
ATVX     1  Mu1.0001  Se1.009                       0.25885104      0.00000000     -0.00000000     -0.00000000
ATVX     1  Mu1.0001  Se1.010                       0.28294546     -0.00011211     -0.00005964      0.00000001
--
 
   (Skipping property calculation,
    use PROP keyword to activate)
--
 
  Total CASPT2 energies:
::    CASPT2 Root  1     Total energy:     -4.10011303
 
  A NEW JOBIPH FILE NAMED 'JOBMIX' IS PREPARED.
********************************************************************************
--- Stop Module: caspt2 at Thu Oct 17 11:44:32 2024 /rc=_RC_ALL_IS_WELL_ ---
*** files: xmldump
    saved to directory /home/grierjones/DDCASPT2/hydrogen_comps/minimal_2e_2o/chains/even/H8_chain/H8_1.88

>>> EXPORT i = B

>>> EXPORT j = P

>>> IF (-FILE GMJ_e2_${i}_${j}.csv)
(Skipped)

>>> END FOREACH

>>> EXPORT j = M

>>> IF (-FILE GMJ_e2_${i}_${j}.csv)
(Skipped)

>>> END FOREACH

>>> END FOREACH

>>> EXPORT i = E

>>> EXPORT j = P

>>> IF (-FILE GMJ_e2_${i}_${j}.csv)
(Skipped)

>>> END FOREACH

>>> EXPORT j = M

>>> IF (-FILE GMJ_e2_${i}_${j}.csv)
(Skipped)

>>> END FOREACH

>>> END FOREACH

>>> EXPORT i = F

>>> EXPORT j = P

>>> IF (-FILE GMJ_e2_${i}_${j}.csv)

>>> COPY /tmp/H8_1.88/GMJ_RHS_F_P.csv /home/grierjones/DDCASPT2/hydrogen_comps/minimal_2e_2o/chains/even/H8_chain/H8_1.88/GMJ_RHS_F_P.csv

>>> COPY /tmp/H8_1.88/GMJ_IVECW_F_P.csv /home/grierjones/DDCASPT2/hydrogen_comps/minimal_2e_2o/chains/even/H8_chain/H8_1.88/GMJ_IVECW_F_P.csv

>>> COPY /tmp/H8_1.88/GMJ_e2_F_P.csv /home/grierjones/DDCASPT2/hydrogen_comps/minimal_2e_2o/chains/even/H8_chain/H8_1.88/GMJ_e2_F_P.csv

>>> END FOREACH

>>> EXPORT j = M

>>> IF (-FILE GMJ_e2_${i}_${j}.csv)

>>> COPY /tmp/H8_1.88/GMJ_RHS_F_M.csv /home/grierjones/DDCASPT2/hydrogen_comps/minimal_2e_2o/chains/even/H8_chain/H8_1.88/GMJ_RHS_F_M.csv

>>> COPY /tmp/H8_1.88/GMJ_IVECW_F_M.csv /home/grierjones/DDCASPT2/hydrogen_comps/minimal_2e_2o/chains/even/H8_chain/H8_1.88/GMJ_IVECW_F_M.csv

>>> COPY /tmp/H8_1.88/GMJ_e2_F_M.csv /home/grierjones/DDCASPT2/hydrogen_comps/minimal_2e_2o/chains/even/H8_chain/H8_1.88/GMJ_e2_F_M.csv

>>> END FOREACH

>>> END FOREACH

>>> EXPORT i = G

>>> EXPORT j = P

>>> IF (-FILE GMJ_e2_${i}_${j}.csv)
(Skipped)

>>> END FOREACH

>>> EXPORT j = M

>>> IF (-FILE GMJ_e2_${i}_${j}.csv)
(Skipped)

>>> END FOREACH

>>> END FOREACH

>>> EXPORT i = H

>>> EXPORT j = P

>>> IF (-FILE GMJ_e2_${i}_${j}.csv)
(Skipped)

>>> END FOREACH

>>> EXPORT j = M

>>> IF (-FILE GMJ_e2_${i}_${j}.csv)
(Skipped)

>>> END FOREACH

>>> END FOREACH

>>> EXPORT i = A

>>> IF (-FILE GMJ_e2_$i.csv)
(Skipped)

>>> END FOREACH

>>> EXPORT i = C

>>> IF (-FILE GMJ_e2_$i.csv)

>>> COPY /tmp/H8_1.88/GMJ_RHS_C.csv /home/grierjones/DDCASPT2/hydrogen_comps/minimal_2e_2o/chains/even/H8_chain/H8_1.88/GMJ_RHS_C.csv

>>> COPY /tmp/H8_1.88/GMJ_IVECW_C.csv /home/grierjones/DDCASPT2/hydrogen_comps/minimal_2e_2o/chains/even/H8_chain/H8_1.88/GMJ_IVECW_C.csv

>>> COPY /tmp/H8_1.88/GMJ_e2_C.csv /home/grierjones/DDCASPT2/hydrogen_comps/minimal_2e_2o/chains/even/H8_chain/H8_1.88/GMJ_e2_C.csv

>>> END FOREACH

>>> EXPORT i = D

>>> IF (-FILE GMJ_e2_$i.csv)
(Skipped)

>>> END FOREACH

.########################.
.# Non-zero return code #.
.########################.

    Timing: Wall=12.61 User=9.03 System=3.04
***************************************
*** WorkDir at /tmp/H8_1.88 cleaned ***
***************************************
