[Molden Format]
[N_Atoms]
                     2
[Atoms] (AU)
N1          1      7           0.00000000      0.00000000      0.00000000
O2          2      8           0.00000000      0.00000000      2.26767135
[Charge] (Mulliken)
  0.200686303486791     
 -0.200686303486812     
[GTO] (AU)
   1
   s  14
  7.476171500E+04  1.182599996E-04
  1.112365400E+04  5.172899983E-04
  2.512685700E+03  2.266659992E-03
  7.037772900E+02  9.145289970E-03
  2.254787900E+02  3.239342989E-02
  7.961581000E+01  9.770792967E-02
  3.023728300E+01  2.317036792E-01
  1.226362200E+01  3.768898887E-01
  5.265086000E+00  3.177420689E-01
  2.333471000E+00  8.211308973E-02
  9.018560000E-01  3.312089989E-03
  3.583360000E-01  3.720819988E-03
  1.410930000E-01  3.165419989E-03
  4.938300000E-02  4.595799985E-04
   s  14
  7.476171500E+04 -2.707000010E-05
  1.112365400E+04 -1.183700004E-04
  2.512685700E+03 -5.203800020E-04
  7.037772900E+02 -2.102930008E-03
  2.254787900E+02 -7.568200028E-03
  7.961581000E+01 -2.346767009E-02
  3.023728300E+01 -6.042901023E-02
  1.226362200E+01 -1.170549104E-01
  5.265086000E+00 -1.555321506E-01
  2.333471000E+00 -2.468935009E-02
  9.018560000E-01  3.625054514E-01
  3.583360000E-01  5.550845021E-01
  1.410930000E-01  2.148376908E-01
  4.938300000E-02  8.983850034E-03
   p   9
  1.266665700E+02  1.233630000E-03
  2.983738900E+01  9.493409996E-03
  9.394038000E+00  4.293961998E-02
  3.405104000E+00  1.362925399E-01
  1.350000000E+00  2.921362499E-01
  5.576960000E-01  3.887887598E-01
  2.324490000E-01  2.946801399E-01
  9.426400000E-02  8.012875997E-02
  3.299200000E-02  5.405199998E-04
 
   2
   s  14
  1.053749500E+05  1.238600013E-04
  1.567924000E+04  5.120100053E-04
  3.534544700E+03  2.152910022E-03
  9.873651600E+02  8.528440089E-03
  3.159787500E+02  3.018049031E-02
  1.116542800E+02  9.099702095E-02
  4.269945100E+01  2.177936423E-01
  1.739559600E+01  3.686245738E-01
  7.438309000E+00  3.366707335E-01
  3.222862000E+00  9.657630101E-02
  1.253877000E+00  2.144520022E-03
  4.951550000E-01  1.194350012E-03
  1.916650000E-01  5.390200056E-04
  6.708300000E-02  2.103400022E-04
   s  14
  1.053749500E+05 -2.815000008E-05
  1.567924000E+04 -1.163000003E-04
  3.534544700E+03 -4.909200013E-04
  9.873651600E+02 -1.946160005E-03
  3.159787500E+02 -7.005300019E-03
  1.116542800E+02 -2.167814006E-02
  4.269945100E+01 -5.641213015E-02
  1.739559600E+01 -1.127053003E-01
  7.438309000E+00 -1.589119704E-01
  3.222862000E+00 -3.355083009E-02
  1.253877000E+00  3.531902810E-01
  4.951550000E-01  5.534199315E-01
  1.916650000E-01  2.301839106E-01
  6.708300000E-02  1.127267003E-02
   p   9
  2.000000000E+02  9.173000030E-04
  4.653336700E+01  7.377140024E-03
  1.462180900E+01  3.483515011E-02
  5.313064000E+00  1.144397004E-01
  2.102525000E+00  2.554966408E-01
  8.502230000E-01  3.722557412E-01
  3.375970000E-01  3.323314911E-01
  1.288920000E-01  1.400847905E-01
  4.511200000E-02  2.395784008E-02
 
[MO]
Sym=     1a  
Ene=   -20.7870
Spin= Alpha
Occup=    1.00000
   1        -0.00016465
   2        -0.00112691
   3         0.00000000
   4         0.00000000
   5        -0.00051613
   6         1.00007166
   7         0.00034837
   8         0.00000000
   9         0.00000000
  10        -0.00216299
Sym=     1a  
Ene=   -20.8000
Spin= Beta
Occup=    1.00000
   1        -0.00017938
   2        -0.00128917
   3         0.00000000
   4         0.00000000
   5        -0.00066610
   6         1.00008674
   7         0.00117716
   8         0.00000000
   9         0.00000000
  10        -0.00233776
Sym=     2a  
Ene=   -15.8310
Spin= Alpha
Occup=    1.00000
   1         1.00014209
   2        -0.00298567
   3         0.00000000
   4         0.00000000
   5         0.00349436
   6        -0.00058079
   7        -0.00243657
   8         0.00000000
   9        -0.00000000
  10         0.00089904
Sym=     2a  
Ene=   -15.7820
Spin= Beta
Occup=    1.00000
   1         1.00002344
   2        -0.00690619
   3         0.00000000
   4         0.00000000
   5         0.00276331
   6        -0.00042211
   7        -0.00121473
   8         0.00000000
   9        -0.00000000
  10         0.00012047
Sym=     3a  
Ene=    -1.6183
Spin= Alpha
Occup=    1.00000
   1        -0.03479018
   2         0.42067582
   3        -0.00000000
   4        -0.00000000
   5         0.20622630
   6        -0.02834976
   7         0.60227660
   8        -0.00000000
   9        -0.00000000
  10        -0.21167928
Sym=     3a  
Ene=    -1.6089
Spin= Beta
Occup=    1.00000
   1        -0.03897709
   2         0.26549766
   3        -0.00000000
   4         0.00000000
   5         0.18842751
   6        -0.02228811
   7         0.72808274
   8        -0.00000000
   9        -0.00000000
  10        -0.21989618
Sym=     4a  
Ene=    -1.0020
Spin= Alpha
Occup=    1.00000
   1        -0.00990428
   2        -0.76233620
   3        -0.00000000
   4        -0.00000000
   5         0.11338305
   6         0.02050263
   7         0.71939345
   8        -0.00000000
   9        -0.00000000
  10         0.26200017
Sym=     4a  
Ene=    -0.9149
Spin= Beta
Occup=    1.00000
   1         0.00722173
   2        -0.63987272
   3         0.00000000
   4        -0.00000000
   5        -0.01139475
   6         0.02416705
   7         0.63934599
   8        -0.00000000
   9        -0.00000000
  10         0.48254014
Sym=     5a  
Ene=    -0.8024
Spin= Alpha
Occup=    1.00000
   1        -0.00000000
   2        -0.00000000
   3        -0.25742219
   4         0.54921778
   5         0.00000000
   6        -0.00000000
   7        -0.00000000
   8        -0.27739326
   9         0.59182665
  10        -0.00000000
Sym=     5a  
Ene=    -0.7247
Spin= Beta
Occup=    1.00000
   1        -0.00000000
   2        -0.00000000
   3         0.24116990
   4         0.11303801
   5         0.00000000
   6        -0.00000000
   7         0.00000000
   8         0.81266864
   9         0.38090344
  10        -0.00000000
Sym=     6a  
Ene=    -0.6836
Spin= Alpha
Occup=    1.00000
   1         0.03930057
   2         0.46742127
   3         0.00000000
   4         0.00000000
   5        -0.60595856
   6         0.02326193
   7         0.29720436
   8         0.00000000
   9         0.00000000
  10         0.65011691
Sym=     6a  
Ene=    -0.6640
Spin= Beta
Occup=    1.00000
   1        -0.00000000
   2        -0.00000000
   3        -0.13074747
   4         0.27895355
   5         0.00000000
   6        -0.00000000
   7        -0.00000000
   8        -0.37138538
   9         0.79236157
  10        -0.00000000
Sym=     7a  
Ene=    -0.6656
Spin= Alpha
Occup=    1.00000
   1        -0.00000000
   2        -0.00000000
   3         0.69296923
   4         0.32479950
   5         0.00000000
   6        -0.00000000
   7        -0.00000000
   8         0.43063996
   9         0.20184394
  10        -0.00000000
Sym=     7a  
Ene=    -0.6412
Spin= Beta
Occup=    1.00000
   1        -0.04064888
   2        -0.65511632
   3         0.00000000
   4        -0.00000000
   5         0.60116104
   6        -0.01603510
   7        -0.14872777
   8         0.00000000
   9        -0.00000000
  10        -0.56295960
Sym=     8a  
Ene=    -0.4918
Spin= Alpha
Occup=    1.00000
   1         0.00000000
   2         0.00000000
   3         0.35600309
   4        -0.75954301
   5         0.00000000
   6        -0.00000000
   7        -0.00000000
   8        -0.34067193
   9         0.72683352
  10         0.00000000
Sym=     8a  
Ene=     0.1239
Spin= Beta
Occup=    0.00000
   1         0.00000000
   2        -0.00000000
   3        -0.90574987
   4        -0.42453126
   5        -0.00000000
   6         0.00000000
   7         0.00000000
   8         0.46702830
   9         0.21889941
  10         0.00000000
Sym=     9a  
Ene=     0.0668
Spin= Alpha
Occup=    0.00000
   1         0.00000000
   2         0.00000000
   3        -0.63114134
   4        -0.29582034
   5        -0.00000000
   6        -0.00000000
   7        -0.00000000
   8         0.83252326
   9         0.39020944
  10         0.00000000
Sym=     9a  
Ene=     0.1570
Spin= Beta
Occup=    0.00000
   1        -0.00000000
   2        -0.00000000
   3         0.41941565
   4        -0.89483555
   5         0.00000000
   6         0.00000000
   7         0.00000000
   8        -0.23468551
   9         0.50070840
  10        -0.00000000
Sym=    10a  
Ene=     0.5865
Spin= Alpha
Occup=    0.00000
   1         0.09719382
   2         0.77681302
   3        -0.00000000
   4         0.00000000
   5         1.02883744
   6        -0.09233694
   7        -0.80191700
   8         0.00000000
   9        -0.00000000
  10         0.95682468
Sym=    10a  
Ene=     0.6305
Spin= Beta
Occup=    0.00000
   1         0.09650520
   2         0.81908673
   3         0.00000000
   4        -0.00000000
   5         1.04117832
   6        -0.09446355
   7        -0.80664789
   8         0.00000000
   9         0.00000000
  10         0.92384785
