[Molden Format]
[N_Atoms]
                     2
[Atoms] (AU)
B1          1      5           0.00000000      0.00000000      0.00000000
B2          2      5           0.00000000      0.00000000      2.45664396
[Charge] (Mulliken)
  0.000000000000000E+000
  0.000000000000000E+000
[GTO] (AU)
   1
   s  14
  3.336021700E+04  1.039699991E-04
  4.972095200E+03  5.254399956E-04
  1.125641700E+03  2.509059979E-03
  3.164913600E+02  1.031887991E-02
  1.020072600E+02  3.636632969E-02
  3.629587300E+01  1.064607991E-01
  1.397141000E+01  2.403999880E-01
  5.741156000E+00  3.748581168E-01
  2.494268000E+00  3.100066974E-01
  1.114202000E+00  7.922455933E-02
  4.215490000E-01 -4.947589958E-03
  1.696330000E-01 -7.737119935E-03
  6.853500000E-02 -1.501079987E-03
  2.398700000E-02 -1.333299989E-04
   s  14
  3.336021700E+04 -2.030000008E-05
  4.972095200E+03 -1.025700004E-04
  1.125641700E+03 -4.911300020E-04
  3.164913600E+02 -2.026570008E-03
  1.020072600E+02 -7.261010030E-03
  3.629587300E+01 -2.197722009E-02
  1.397141000E+01 -5.408428022E-02
  5.741156000E+00 -1.022402604E-01
  2.494268000E+00 -1.423595206E-01
  1.114202000E+00 -4.658690019E-02
  4.215490000E-01  3.799402916E-01
  1.696330000E-01  5.890463624E-01
  6.853500000E-02  1.749075107E-01
  2.398700000E-02 -1.142030005E-03
   p   9
  5.500000000E+01  1.229800005E-03
  1.336610100E+01  8.827380035E-03
  4.135394000E+00  3.843340015E-02
  1.481256000E+00  1.150031805E-01
  6.021360000E-01  2.733674011E-01
  2.556360000E-01  4.061972116E-01
  1.111510000E-01  3.014967912E-01
  4.764800000E-02  7.684809030E-02
  1.667700000E-02 -8.170000032E-06
 
   2
   s  14
  3.336021700E+04  1.039699991E-04
  4.972095200E+03  5.254399956E-04
  1.125641700E+03  2.509059979E-03
  3.164913600E+02  1.031887991E-02
  1.020072600E+02  3.636632969E-02
  3.629587300E+01  1.064607991E-01
  1.397141000E+01  2.403999880E-01
  5.741156000E+00  3.748581168E-01
  2.494268000E+00  3.100066974E-01
  1.114202000E+00  7.922455933E-02
  4.215490000E-01 -4.947589958E-03
  1.696330000E-01 -7.737119935E-03
  6.853500000E-02 -1.501079987E-03
  2.398700000E-02 -1.333299989E-04
   s  14
  3.336021700E+04 -2.030000008E-05
  4.972095200E+03 -1.025700004E-04
  1.125641700E+03 -4.911300020E-04
  3.164913600E+02 -2.026570008E-03
  1.020072600E+02 -7.261010030E-03
  3.629587300E+01 -2.197722009E-02
  1.397141000E+01 -5.408428022E-02
  5.741156000E+00 -1.022402604E-01
  2.494268000E+00 -1.423595206E-01
  1.114202000E+00 -4.658690019E-02
  4.215490000E-01  3.799402916E-01
  1.696330000E-01  5.890463624E-01
  6.853500000E-02  1.749075107E-01
  2.398700000E-02 -1.142030005E-03
   p   9
  5.500000000E+01  1.229800005E-03
  1.336610100E+01  8.827380035E-03
  4.135394000E+00  3.843340015E-02
  1.481256000E+00  1.150031805E-01
  6.021360000E-01  2.733674011E-01
  2.556360000E-01  4.061972116E-01
  1.111510000E-01  3.014967912E-01
  4.764800000E-02  7.684809030E-02
  1.667700000E-02 -8.170000032E-06
 
[MO]
Sym=     1a  
Ene=    -7.7163
Spin= Alpha
Occup=    2.00000
   1        -0.70573141
   2         0.00373232
   3         0.00000000
   4        -0.00000000
   5         0.00417229
   6         0.70573141
   7        -0.00373232
   8        -0.00000000
   9         0.00000000
  10         0.00417229
Sym=     2a  
Ene=    -7.6972
Spin= Alpha
Occup=    2.00000
   1         0.70651724
   2         0.00436744
   3        -0.00000000
   4         0.00000000
   5         0.00440815
   6         0.70651724
   7         0.00436744
   8         0.00000000
   9        -0.00000000
  10        -0.00440815
Sym=     3a  
Ene=    -0.8489
Spin= Alpha
Occup=    2.00000
   1        -0.07228807
   2         0.50278361
   3        -0.00000000
   4         0.00000000
   5         0.15483941
   6        -0.07228807
   7         0.50278361
   8        -0.00000000
   9         0.00000000
  10        -0.15483941
Sym=     4a  
Ene=    -0.4566
Spin= Alpha
Occup=    1.33333
   1        -0.00000000
   2         0.00000000
   3         0.42261043
   4         0.40234207
   5        -0.00000000
   6         0.00000000
   7        -0.00000000
   8         0.42261043
   9         0.40234207
  10        -0.00000000
Sym=     5a  
Ene=    -0.4566
Spin= Alpha
Occup=    1.33333
   1        -0.00000000
   2         0.00000000
   3        -0.40234207
   4         0.42261043
   5        -0.00000000
   6         0.00000000
   7        -0.00000000
   8        -0.40234207
   9         0.42261043
  10        -0.00000000
Sym=     6a  
Ene=    -0.4466
Spin= Alpha
Occup=    1.33333
   1         0.02479580
   2        -0.48915628
   3        -0.00000000
   4         0.00000000
   5         0.44453667
   6        -0.02479580
   7         0.48915628
   8        -0.00000000
   9         0.00000000
  10         0.44453667
Sym=     7a  
Ene=    -0.2656
Spin= Alpha
Occup=    0.00000
   1         0.07642977
   2         0.34983832
   3        -0.00000000
   4         0.00000000
   5        -0.71276118
   6         0.07642977
   7         0.34983832
   8         0.00000000
   9        -0.00000000
  10         0.71276118
Sym=     8a  
Ene=    -0.1652
Spin= Alpha
Occup=    0.00000
   1         0.00000000
   2         0.00000000
   3        -0.85859594
   4        -0.45120194
   5         0.00000000
   6        -0.00000000
   7        -0.00000000
   8         0.85859594
   9         0.45120194
  10         0.00000000
Sym=     9a  
Ene=    -0.1652
Spin= Alpha
Occup=    0.00000
   1         0.00000000
   2         0.00000000
   3         0.45120194
   4        -0.85859594
   5         0.00000000
   6        -0.00000000
   7        -0.00000000
   8        -0.45120194
   9         0.85859594
  10         0.00000000
Sym=    10a  
Ene=    -0.0288
Spin= Alpha
Occup=    0.00000
   1         0.40480280
   2         2.20602097
   3         0.00000000
   4        -0.00000000
   5         1.52526207
   6        -0.40480280
   7        -2.20602097
   8         0.00000000
   9        -0.00000000
  10         1.52526207
