[Molden Format]
[N_Atoms]
                     2
[Atoms] (AU)
B1          1      5           0.00000000      0.00000000      0.00000000
B2          2      5           0.00000000      0.00000000      2.45664396
[Charge] (Mulliken)
 -1.049826892085548E-012
  1.043609643147647E-012
[GTO] (AU)
   1
   s  14
  3.336021700E+04  1.039699991E-04
  4.972095200E+03  5.254399956E-04
  1.125641700E+03  2.509059979E-03
  3.164913600E+02  1.031887991E-02
  1.020072600E+02  3.636632969E-02
  3.629587300E+01  1.064607991E-01
  1.397141000E+01  2.403999880E-01
  5.741156000E+00  3.748581168E-01
  2.494268000E+00  3.100066974E-01
  1.114202000E+00  7.922455933E-02
  4.215490000E-01 -4.947589958E-03
  1.696330000E-01 -7.737119935E-03
  6.853500000E-02 -1.501079987E-03
  2.398700000E-02 -1.333299989E-04
   s  14
  3.336021700E+04 -2.030000008E-05
  4.972095200E+03 -1.025700004E-04
  1.125641700E+03 -4.911300020E-04
  3.164913600E+02 -2.026570008E-03
  1.020072600E+02 -7.261010030E-03
  3.629587300E+01 -2.197722009E-02
  1.397141000E+01 -5.408428022E-02
  5.741156000E+00 -1.022402604E-01
  2.494268000E+00 -1.423595206E-01
  1.114202000E+00 -4.658690019E-02
  4.215490000E-01  3.799402916E-01
  1.696330000E-01  5.890463624E-01
  6.853500000E-02  1.749075107E-01
  2.398700000E-02 -1.142030005E-03
   p   9
  5.500000000E+01  1.229800005E-03
  1.336610100E+01  8.827380035E-03
  4.135394000E+00  3.843340015E-02
  1.481256000E+00  1.150031805E-01
  6.021360000E-01  2.733674011E-01
  2.556360000E-01  4.061972116E-01
  1.111510000E-01  3.014967912E-01
  4.764800000E-02  7.684809030E-02
  1.667700000E-02 -8.170000032E-06
 
   2
   s  14
  3.336021700E+04  1.039699991E-04
  4.972095200E+03  5.254399956E-04
  1.125641700E+03  2.509059979E-03
  3.164913600E+02  1.031887991E-02
  1.020072600E+02  3.636632969E-02
  3.629587300E+01  1.064607991E-01
  1.397141000E+01  2.403999880E-01
  5.741156000E+00  3.748581168E-01
  2.494268000E+00  3.100066974E-01
  1.114202000E+00  7.922455933E-02
  4.215490000E-01 -4.947589958E-03
  1.696330000E-01 -7.737119935E-03
  6.853500000E-02 -1.501079987E-03
  2.398700000E-02 -1.333299989E-04
   s  14
  3.336021700E+04 -2.030000008E-05
  4.972095200E+03 -1.025700004E-04
  1.125641700E+03 -4.911300020E-04
  3.164913600E+02 -2.026570008E-03
  1.020072600E+02 -7.261010030E-03
  3.629587300E+01 -2.197722009E-02
  1.397141000E+01 -5.408428022E-02
  5.741156000E+00 -1.022402604E-01
  2.494268000E+00 -1.423595206E-01
  1.114202000E+00 -4.658690019E-02
  4.215490000E-01  3.799402916E-01
  1.696330000E-01  5.890463624E-01
  6.853500000E-02  1.749075107E-01
  2.398700000E-02 -1.142030005E-03
   p   9
  5.500000000E+01  1.229800005E-03
  1.336610100E+01  8.827380035E-03
  4.135394000E+00  3.843340015E-02
  1.481256000E+00  1.150031805E-01
  6.021360000E-01  2.733674011E-01
  2.556360000E-01  4.061972116E-01
  1.111510000E-01  3.014967912E-01
  4.764800000E-02  7.684809030E-02
  1.667700000E-02 -8.170000032E-06
 
[MO]
Sym=     1a  
Ene=    -7.7489
Spin= Alpha
Occup=    2.00000
   1         0.70631357
   2         0.01068061
   3         0.00000000
   4        -0.00000000
   5         0.00155093
   6         0.70631356
   7         0.01068061
   8        -0.00000000
   9        -0.00000000
  10        -0.00155093
Sym=     2a  
Ene=    -7.7438
Spin= Alpha
Occup=    2.00000
   1        -0.70776788
   2        -0.01191425
   3         0.00000000
   4        -0.00000000
   5        -0.00113620
   6         0.70776788
   7         0.01191425
   8        -0.00000000
   9         0.00000000
  10        -0.00113620
Sym=     3a  
Ene=    -0.7538
Spin= Alpha
Occup=    2.00000
   1        -0.08560744
   2         0.46216004
   3         0.00000000
   4        -0.00000000
   5         0.23061581
   6        -0.08560744
   7         0.46216004
   8        -0.00000000
   9         0.00000000
  10        -0.23061581
Sym=     4a  
Ene=    -0.3587
Spin= Alpha
Occup=    2.00000
   1         0.00000000
   2        -0.00000000
   3        -0.07341972
   4         0.57886809
   5         0.00000000
   6        -0.00000000
   7         0.00000000
   8        -0.07341972
   9         0.57886809
  10         0.00000000
Sym=     5a  
Ene=    -0.1777
Spin= Alpha
Occup=    0.83676
   1        -0.00000000
   2        -0.00000000
   3         0.57886809
   4         0.07341972
   5         0.00000000
   6         0.00000000
   7         0.00000000
   8         0.57886809
   9         0.07341972
  10         0.00000000
Sym=     6a  
Ene=     0.0009
Spin= Alpha
Occup=    1.16324
   1        -0.01008890
   2        -0.70525173
   3        -0.00000000
   4        -0.00000000
   5         0.29124347
   6         0.01008890
   7         0.70525173
   8        -0.00000000
   9        -0.00000000
  10         0.29124347
Sym=     7a  
Ene=    -0.0001
Spin= Alpha
Occup=    0.00000
   1         0.06345236
   2         0.40185981
   3         0.00000000
   4         0.00000000
   5        -0.69198058
   6         0.06345236
   7         0.40185981
   8        -0.00000000
   9        -0.00000000
  10         0.69198058
Sym=     8a  
Ene=     0.2440
Spin= Alpha
Occup=    0.00000
   1        -0.00000000
   2        -0.00000000
   3         0.12204205
   4        -0.96222447
   5        -0.00000000
   6         0.00000000
   7         0.00000000
   8        -0.12204205
   9         0.96222447
  10         0.00000000
Sym=     9a  
Ene=     0.2638
Spin= Alpha
Occup=    0.00000
   1         0.00000000
   2         0.00000000
   3        -0.96222447
   4        -0.12204205
   5        -0.00000000
   6         0.00000000
   7        -0.00000000
   8         0.96222447
   9         0.12204205
  10         0.00000000
Sym=    10a  
Ene=     0.9590
Spin= Alpha
Occup=    0.00000
   1        -0.40187040
   2        -2.14669382
   3        -0.00000000
   4         0.00000000
   5        -1.56180363
   6         0.40187040
   7         2.14669382
   8        -0.00000000
   9         0.00000000
  10        -1.56180363
