[Molden Format]
[N_Atoms]
                     2
[Atoms] (AU)
B1          1      5           0.00000000      0.00000000      0.00000000
B2          2      5           0.00000000      0.00000000      2.45664396
[Charge] (Mulliken)
 -8.331113576787175E-013
  8.242295734817162E-013
[GTO] (AU)
   1
   s  14
  3.336021700E+04  1.039699991E-04
  4.972095200E+03  5.254399956E-04
  1.125641700E+03  2.509059979E-03
  3.164913600E+02  1.031887991E-02
  1.020072600E+02  3.636632969E-02
  3.629587300E+01  1.064607991E-01
  1.397141000E+01  2.403999880E-01
  5.741156000E+00  3.748581168E-01
  2.494268000E+00  3.100066974E-01
  1.114202000E+00  7.922455933E-02
  4.215490000E-01 -4.947589958E-03
  1.696330000E-01 -7.737119935E-03
  6.853500000E-02 -1.501079987E-03
  2.398700000E-02 -1.333299989E-04
   s  14
  3.336021700E+04 -2.030000008E-05
  4.972095200E+03 -1.025700004E-04
  1.125641700E+03 -4.911300020E-04
  3.164913600E+02 -2.026570008E-03
  1.020072600E+02 -7.261010030E-03
  3.629587300E+01 -2.197722009E-02
  1.397141000E+01 -5.408428022E-02
  5.741156000E+00 -1.022402604E-01
  2.494268000E+00 -1.423595206E-01
  1.114202000E+00 -4.658690019E-02
  4.215490000E-01  3.799402916E-01
  1.696330000E-01  5.890463624E-01
  6.853500000E-02  1.749075107E-01
  2.398700000E-02 -1.142030005E-03
   p   9
  5.500000000E+01  1.229800005E-03
  1.336610100E+01  8.827380035E-03
  4.135394000E+00  3.843340015E-02
  1.481256000E+00  1.150031805E-01
  6.021360000E-01  2.733674011E-01
  2.556360000E-01  4.061972116E-01
  1.111510000E-01  3.014967912E-01
  4.764800000E-02  7.684809030E-02
  1.667700000E-02 -8.170000032E-06
 
   2
   s  14
  3.336021700E+04  1.039699991E-04
  4.972095200E+03  5.254399956E-04
  1.125641700E+03  2.509059979E-03
  3.164913600E+02  1.031887991E-02
  1.020072600E+02  3.636632969E-02
  3.629587300E+01  1.064607991E-01
  1.397141000E+01  2.403999880E-01
  5.741156000E+00  3.748581168E-01
  2.494268000E+00  3.100066974E-01
  1.114202000E+00  7.922455933E-02
  4.215490000E-01 -4.947589958E-03
  1.696330000E-01 -7.737119935E-03
  6.853500000E-02 -1.501079987E-03
  2.398700000E-02 -1.333299989E-04
   s  14
  3.336021700E+04 -2.030000008E-05
  4.972095200E+03 -1.025700004E-04
  1.125641700E+03 -4.911300020E-04
  3.164913600E+02 -2.026570008E-03
  1.020072600E+02 -7.261010030E-03
  3.629587300E+01 -2.197722009E-02
  1.397141000E+01 -5.408428022E-02
  5.741156000E+00 -1.022402604E-01
  2.494268000E+00 -1.423595206E-01
  1.114202000E+00 -4.658690019E-02
  4.215490000E-01  3.799402916E-01
  1.696330000E-01  5.890463624E-01
  6.853500000E-02  1.749075107E-01
  2.398700000E-02 -1.142030005E-03
   p   9
  5.500000000E+01  1.229800005E-03
  1.336610100E+01  8.827380035E-03
  4.135394000E+00  3.843340015E-02
  1.481256000E+00  1.150031805E-01
  6.021360000E-01  2.733674011E-01
  2.556360000E-01  4.061972116E-01
  1.111510000E-01  3.014967912E-01
  4.764800000E-02  7.684809030E-02
  1.667700000E-02 -8.170000032E-06
 
[MO]
Sym=     1a  
Ene=    -7.7421
Spin= Alpha
Occup=    1.00000
   1         0.70642941
   2         0.01122717
   3         0.00000000
   4         0.00000000
   5         0.00041278
   6         0.70642940
   7         0.01122717
   8        -0.00000000
   9        -0.00000000
  10        -0.00041278
Sym=     1a  
Ene=    -7.7421
Spin= Beta
Occup=    1.00000
   1         0.70642941
   2         0.01122717
   3         0.00000000
   4         0.00000000
   5         0.00041278
   6         0.70642940
   7         0.01122717
   8        -0.00000000
   9        -0.00000000
  10        -0.00041278
Sym=     2a  
Ene=    -7.7366
Spin= Alpha
Occup=    1.00000
   1        -0.70718070
   2        -0.00943739
   3         0.00000000
   4        -0.00000000
   5         0.00147296
   6         0.70718070
   7         0.00943739
   8        -0.00000000
   9        -0.00000000
  10         0.00147296
Sym=     2a  
Ene=    -7.7366
Spin= Beta
Occup=    1.00000
   1        -0.70718070
   2        -0.00943739
   3         0.00000000
   4        -0.00000000
   5         0.00147296
   6         0.70718070
   7         0.00943739
   8        -0.00000000
   9        -0.00000000
  10         0.00147296
Sym=     3a  
Ene=    -0.7102
Spin= Alpha
Occup=    1.00000
   1        -0.08470679
   2         0.46701920
   3        -0.00000000
   4         0.00000000
   5         0.22217599
   6        -0.08470679
   7         0.46701920
   8        -0.00000000
   9        -0.00000000
  10        -0.22217599
Sym=     3a  
Ene=    -0.7102
Spin= Beta
Occup=    1.00000
   1        -0.08470679
   2         0.46701920
   3        -0.00000000
   4         0.00000000
   5         0.22217599
   6        -0.08470679
   7         0.46701920
   8        -0.00000000
   9        -0.00000000
  10        -0.22217599
Sym=     4a  
Ene=    -0.3378
Spin= Alpha
Occup=    1.00000
   1         0.00000000
   2         0.00000000
   3         0.50409049
   4         0.29389027
   5         0.00000000
   6        -0.00000000
   7         0.00000000
   8         0.50409049
   9         0.29389027
  10         0.00000000
Sym=     4a  
Ene=    -0.3378
Spin= Beta
Occup=    1.00000
   1         0.00000000
   2         0.00000000
   3         0.50409049
   4         0.29389027
   5         0.00000000
   6        -0.00000000
   7         0.00000000
   8         0.50409049
   9         0.29389027
  10         0.00000000
Sym=     5a  
Ene=    -0.3378
Spin= Alpha
Occup=    1.00000
   1         0.00000000
   2        -0.00000000
   3        -0.29389027
   4         0.50409049
   5         0.00000000
   6         0.00000000
   7         0.00000000
   8        -0.29389027
   9         0.50409049
  10         0.00000000
Sym=     5a  
Ene=    -0.3378
Spin= Beta
Occup=    1.00000
   1         0.00000000
   2        -0.00000000
   3        -0.29389027
   4         0.50409049
   5         0.00000000
   6         0.00000000
   7         0.00000000
   8        -0.29389027
   9         0.50409049
  10         0.00000000
Sym=     6a  
Ene=    -0.0696
Spin= Alpha
Occup=    0.00000
   1         0.01817179
   2        -0.55692273
   3        -0.00000000
   4        -0.00000000
   5         0.39727031
   6        -0.01817179
   7         0.55692273
   8         0.00000000
   9        -0.00000000
  10         0.39727031
Sym=     6a  
Ene=    -0.0696
Spin= Beta
Occup=    0.00000
   1         0.01817179
   2        -0.55692273
   3        -0.00000000
   4        -0.00000000
   5         0.39727031
   6        -0.01817179
   7         0.55692273
   8         0.00000000
   9        -0.00000000
  10         0.39727031
Sym=     7a  
Ene=     0.0325
Spin= Alpha
Occup=    0.00000
   1         0.06337148
   2         0.39618721
   3         0.00000000
   4        -0.00000000
   5        -0.69473796
   6         0.06337148
   7         0.39618721
   8        -0.00000000
   9        -0.00000000
  10         0.69473796
Sym=     7a  
Ene=     0.0325
Spin= Beta
Occup=    0.00000
   1         0.06337148
   2         0.39618721
   3         0.00000000
   4        -0.00000000
   5        -0.69473796
   6         0.06337148
   7         0.39618721
   8        -0.00000000
   9        -0.00000000
  10         0.69473796
Sym=     8a  
Ene=     0.2585
Spin= Alpha
Occup=    0.00000
   1         0.00000000
   2        -0.00000000
   3        -0.13435100
   4        -0.96058315
   5        -0.00000000
   6         0.00000000
   7         0.00000000
   8         0.13435100
   9         0.96058315
  10         0.00000000
Sym=     8a  
Ene=     0.2585
Spin= Beta
Occup=    0.00000
   1         0.00000000
   2        -0.00000000
   3        -0.13435100
   4        -0.96058315
   5        -0.00000000
   6         0.00000000
   7         0.00000000
   8         0.13435100
   9         0.96058315
  10         0.00000000
Sym=     9a  
Ene=     0.2585
Spin= Alpha
Occup=    0.00000
   1         0.00000000
   2         0.00000000
   3        -0.96058315
   4         0.13435100
   5        -0.00000000
   6         0.00000000
   7        -0.00000000
   8         0.96058315
   9        -0.13435100
  10         0.00000000
Sym=     9a  
Ene=     0.2585
Spin= Beta
Occup=    0.00000
   1         0.00000000
   2         0.00000000
   3        -0.96058315
   4         0.13435100
   5        -0.00000000
   6         0.00000000
   7        -0.00000000
   8         0.96058315
   9        -0.13435100
  10         0.00000000
Sym=    10a  
Ene=     0.9967
Spin= Alpha
Occup=    0.00000
   1         0.40261919
   2         2.18987769
   3        -0.00000000
   4        -0.00000000
   5         1.53825510
   6        -0.40261919
   7        -2.18987769
   8        -0.00000000
   9         0.00000000
  10         1.53825510
Sym=    10a  
Ene=     0.9967
Spin= Beta
Occup=    0.00000
   1         0.40261919
   2         2.18987769
   3        -0.00000000
   4        -0.00000000
   5         1.53825510
   6        -0.40261919
   7        -2.18987769
   8        -0.00000000
   9         0.00000000
  10         1.53825510
