   This run of MOLCAS is using the pymolcas driver

                             OPE
                             OPE          NMOL  CASOP  ENMOLC A   SO
                 OPE        NMOLC        AS  OP EN  MO LC     AS  OP
                OPENM       OL CA        SO  PE NM  OL CA     SOP EN
                OP EN      MO   LC       AS  OP ENMOL  CASO   PENMOL
                OP  EN     MO   LC       AS  OP EN     MO     LC ASO
               OP   E  NMOL  C  AS       OP  EN MO     LC     AS  OP
               OP  E   NMO   LC AS        OPEN  MO     LCASOP EN   M
               O  PEN   MO  LCA  SO
            OPE   NMO   L   CAS    OP
        OPENMOL  CASOP     ENMOL   CASOPE
     OPENMOLCA   SOPENMOLCASOPEN   MOLCASOPE
    OPENMOLCAS   OP           EN   MOL    CAS
    OPENMOLCAS       OP  ENM        O     LCA
    OPENMOLCAS    OPEN  MOLCASO     P  E  NMO
    OPENMOLCAS     OP               E  N  MOL
    OPENMOLCA   SO           PENM   O  L  CAS    OPEN    MO    LCAS
    OPENMOLCA   SOP           ENM   O  L  CAS   OP  EN  MOLC  AS   O
    OPENMOLCA   SOPE           NM      O  LCA   S      OP  EN MO
    OPENMOLC                AS         O  PEN   M      OL  CA  SOPE
    OPENMO        LCASOPE  NMOL        C  ASO   P      ENMOLC     AS
    OPE     NMO      LCA  SO     P     E   NM   OL  CA SO  PE N   MO
          OPENMOLCA            SOPE   NMO        LCAS  O    P  ENMO
     OPENMOLCASOPENMOLCASOPENMOLCASOPENMOLCA
        OPENMOLCASOPENMOLCASOPENMOLCASOPE
            OPENMOLCASOPENMOLCASOPENM
               OPENMOLCASOPENMOLCA        version: ea724fe96-dirty
                   OPENMOLCASO
                       OPE                tag:

 OpenMolcas is free software; you can redistribute it and/or modify it
 under the terms of the GNU Lesser General Public License version 2.1.
 OpenMolcas is distributed in the hope that it will be useful, but it
 is provided "as is" and without any express or implied warranties.
 For more details see the full text of the license in the file
 LICENSE or in <http://www.gnu.org/licenses/>.

                 Copyright (C) The OpenMolcas Authors
           For the author list and the recommended citation,
                   consult the file CONTRIBUTORS.md

           *************************************************
           * pymolcas version py2.28                       *
           *   build c4a6d18ded8cb6cad61d2372a9abd97c      *
           *   (after the EMIL interpreter by V. Veryazov) *
           *************************************************

configuration info
------------------
C Compiler ID: Intel
C flags: -std=gnu99
Fortran Compiler ID: Intel
Fortran flags: -fpp -i8 -r8 -heap-arrays
Definitions: _MOLCAS_;_I8_;_LINUX_
Parallel: OFF (GA=OFF)


   ----------------------------------------------------------------------------------
  |
  |              Project: H12_2.56
  |       Submitted from: /home/grierjones/DDCASPT2/hydrogen_comps/H12_chain/H12_2.56
  |         Scratch area: /tmp/H12_2.56
  |      Save outputs to: /home/grierjones/DDCASPT2/hydrogen_comps/H12_chain/H12_2.56
  |               Molcas: /home/grierjones/Test/build
  |
  | Scratch area is empty
  |
  |       MOLCAS_DRIVER = /usr/local/pymolcas
  | MOLCAS_KEEP_WORKDIR = NO
  |  MOLCAS_NEW_WORKDIR = YES
  |       MOLCAS_NPROCS = 1
  |        MOLCAS_PRINT = NORMAL
  |       MOLCAS_SOURCE = /home/grierjones/Test/build
  |    MOLCAS_STRUCTURE = 0
  |
   ----------------------------------------------------------------------------------

++ ---------   Input file   ---------

&GATEWAY
coord=H12_2.56.xyz
Basis = ANO-RCC-VDZP
Group = nosymm
Expert
End of Input

&SEWARD
End of Input

&SCF

>>> COPY $WorkDir/H12_2.56.scf.h5 $CurrDir/

&RASSCF
Title= RASSCF
FileOrb
/home/grierjones/DDCASPT2/hydrogen_comps/H12_chain/H12_2.54/H12_2.54.RasOrb
NACTEL
12 0 0
Inactive
0
RAS2
12
Symmetry
1
Spin
1
orblisting
all
ITERation
300 200

>>> COPY $WorkDir/H12_2.56.rasscf.h5 $CurrDir/

>>> COPY $WorkDir/GMJ_Fock_MO.csv $CurrDir/H12_2.56.GMJ_Fock_MO.csv

>>> COPY $WorkDir/GMJ_PT2_Fock_MO.csv $CurrDir/H12_2.56.GMJ_PT2_Fock_MO.csv

&MOTRA
Frozen=0
LUMORB

>>> COPY $WorkDir/GMJ_one_int_indx.csv $CurrDir/H12_2.56.GMJ_one_int_indx.csv

>>> COPY $WorkDir/GMJ_one_int.csv $CurrDir/H12_2.56.GMJ_one_int.csv

>>> COPY $WorkDir/GMJ_two_int_indx.csv $CurrDir/H12_2.56.GMJ_two_int_indx.csv

>>> COPY $WorkDir/GMJ_two_int.csv $CurrDir/H12_2.56.GMJ_two_int.csv

&CASPT2
Frozen
0
MAXITER
50

>>> FOREACH i IN (B,E,F,G,H)

  >>> FOREACH j IN (P,M)

    >>> IF (-FILE GMJ_e2_${i}_${j}.csv)

      >>> COPY $WorkDir/GMJ_RHS_${i}_${j}.csv $CurrDir/GMJ_RHS_${i}_${j}.csv

      >>> COPY $WorkDir/GMJ_IVECW_${i}_${j}.csv $CurrDir/GMJ_IVECW_${i}_${j}.csv

      >>> COPY $WorkDir/GMJ_IVECX_${i}_${j}.csv $CurrDir/GMJ_IVECX_${i}_${j}.csv

      >>> COPY $WorkDir/GMJ_IVECC2_${i}_${j}.csv $CurrDir/GMJ_IVECC2_${i}_${j}.csv

      >>> COPY $WorkDir/GMJ_e2_${i}_${j}.csv $CurrDir/GMJ_e2_${i}_${j}.csv

    >>> END IF

  >>> END FOREACH

>>> END FOREACH

>>> FOREACH i IN (A,C,D)

  >>> IF (-FILE GMJ_e2_$i.csv)

    >>> COPY $WorkDir/GMJ_RHS_$i.csv $CurrDir/GMJ_RHS_$i.csv

    >>> COPY $WorkDir/GMJ_IVECW_$i.csv $CurrDir/GMJ_IVECW_$i.csv

    >>> COPY $WorkDir/GMJ_IVECX_$i.csv $CurrDir/GMJ_IVECX_$i.csv

    >>> COPY $WorkDir/GMJ_IVECC2_$i.csv $CurrDir/GMJ_IVECC2_$i.csv

    >>> COPY $WorkDir/GMJ_e2_$i.csv $CurrDir/GMJ_e2_$i.csv

  >>> END IF

>>> END FOREACH

-- ----------------------------------

--- Start Module: gateway at Tue Nov 19 06:58:07 2024 ---
 
()()()()()()()()()()()()()()()()()()()()()()()()()()()()()()()()()()()()()()()()()()()()()()()()()()

                                              &GATEWAY

                                   only a single process is used
                       available to each process: 2.0 GB of memory, 1 thread?
()()()()()()()()()()()()()()()()()()()()()()()()()()()()()()()()()()()()()()()()()()()()()()()()()()
 
 ###############################################################################
 ###############################################################################
 ###                                                                         ###
 ###                                                                         ###
 ###                                                                         ###
 ###    WARNING: EXPERT option is ON!                                        ###
 ###                                                                         ###
 ###                                                                         ###
 ###############################################################################
 ###############################################################################
 
++    Symmetry information:
      ---------------------
 
                    Character Table for C1 
 
                             E  
                    a        1  x, y, xy, Rz, z, xz, Ry, yz, Rx, I
--
 
 
++    Basis set information:
      ----------------------
 
 
      Basis set label: H.ANO-RCC...2S1P.
 
      Electronic valence basis set:
      ------------------
      Associated Effective Charge   1.000000 au
      Associated Actual Charge      1.000000 au
      Nuclear Model: Point charge
 
      Shell  nPrim  nBasis  Cartesian Spherical Contaminant
         s       8       2        X                  
         p       4       1        X                  
--
 
 
++    Molecular structure info:
      -------------------------
 
                    ************************************************ 
                    **** Cartesian Coordinates / Bohr, Angstrom **** 
                    ************************************************ 
 
     Center  Label                x              y              z                     x              y              z
        1      H1               0.000000       0.000000       0.000000              0.000000       0.000000       0.000000
        2      H2               0.000000       0.000000       4.844570              0.000000       0.000000       2.563636
        3      H3               0.000000       0.000000       9.689142              0.000000       0.000000       5.127273
        4      H4               0.000000       0.000000      14.533712              0.000000       0.000000       7.690909
        5      H5               0.000000       0.000000      19.378282              0.000000       0.000000      10.254545
        6      H6               0.000000       0.000000      24.222853              0.000000       0.000000      12.818182
        7      H7               0.000000       0.000000      29.067423              0.000000       0.000000      15.381818
        8      H8               0.000000       0.000000      33.911995              0.000000       0.000000      17.945455
        9      H9               0.000000       0.000000      38.756565              0.000000       0.000000      20.509091
       10      H10              0.000000       0.000000      43.601135              0.000000       0.000000      23.072727
       11      H11              0.000000       0.000000      48.445707              0.000000       0.000000      25.636364
       12      H12              0.000000       0.000000      53.290277              0.000000       0.000000      28.200000
 
                    *************************************** 
                    *    InterNuclear Distances / Bohr    * 
                    *************************************** 
 
               1 H1            2 H2            3 H3            4 H4            5 H5            6 H6    
    1 H1       0.000000
    2 H2       4.844570        0.000000
    3 H3       9.689142        4.844572        0.000000
    4 H4      14.533712        9.689142        4.844570        0.000000
    5 H5      19.378282       14.533712        9.689140        4.844570        0.000000
    6 H6      24.222853       19.378283       14.533712        9.689142        4.844572        0.000000
    7 H7      29.067423       24.222853       19.378282       14.533712        9.689142        4.844570
    8 H8      33.911995       29.067425       24.222853       19.378283       14.533714        9.689142
    9 H9      38.756565       33.911995       29.067423       24.222853       19.378283       14.533712
   10 H10     43.601135       38.756565       33.911993       29.067423       24.222853       19.378282
   11 H11     48.445707       43.601137       38.756565       33.911995       29.067425       24.222853
   12 H12     53.290277       48.445707       43.601135       38.756565       33.911995       29.067423
 
               7 H7            8 H8            9 H9           10 H10          11 H11          12 H12   
    7 H7       0.000000
    8 H8       4.844572        0.000000
    9 H9       9.689142        4.844570        0.000000
   10 H10     14.533712        9.689140        4.844570        0.000000
   11 H11     19.378283       14.533712        9.689142        4.844572        0.000000
   12 H12     24.222853       19.378282       14.533712        9.689142        4.844570        0.000000
 
                    ******************************************* 
                    *    InterNuclear Distances / Angstrom    * 
                    ******************************************* 
 
               1 H1            2 H2            3 H3            4 H4            5 H5            6 H6    
    1 H1       0.000000
    2 H2       2.563636        0.000000
    3 H3       5.127273        2.563637        0.000000
    4 H4       7.690909        5.127273        2.563636        0.000000
    5 H5      10.254545        7.690909        5.127272        2.563636        0.000000
    6 H6      12.818182       10.254546        7.690909        5.127273        2.563637        0.000000
    7 H7      15.381818       12.818182       10.254545        7.690909        5.127273        2.563636
    8 H8      17.945455       15.381819       12.818182       10.254546        7.690910        5.127273
    9 H9      20.509091       17.945455       15.381818       12.818182       10.254546        7.690909
   10 H10     23.072727       20.509091       17.945454       15.381818       12.818182       10.254545
   11 H11     25.636364       23.072728       20.509091       17.945455       15.381819       12.818182
   12 H12     28.200000       25.636364       23.072727       20.509091       17.945455       15.381818
 
               7 H7            8 H8            9 H9           10 H10          11 H11          12 H12   
    7 H7       0.000000
    8 H8       2.563637        0.000000
    9 H9       5.127273        2.563636        0.000000
   10 H10      7.690909        5.127272        2.563636        0.000000
   11 H11     10.254546        7.690909        5.127273        2.563637        0.000000
   12 H12     12.818182       10.254545        7.690909        5.127273        2.563636        0.000000
--
 
 
            Nuclear Potential Energy              5.20965221 au
 
 ###############################################################################
 ###############################################################################
 ###                                                                         ###
 ###                                                                         ###
 ###    There were warnings during the execution                             ###
 ###    Please, check the output with care!                                  ###
 ###                                                                         ###
 ###                                                                         ###
 ###############################################################################
 ###############################################################################
--- Stop Module: gateway at Tue Nov 19 06:58:07 2024 /rc=_RC_ALL_IS_WELL_ ---
*** files: xmldump
    saved to directory /home/grierjones/DDCASPT2/hydrogen_comps/H12_chain/H12_2.56

--- Start Module: seward at Tue Nov 19 06:58:07 2024 ---
 
()()()()()()()()()()()()()()()()()()()()()()()()()()()()()()()()()()()()()()()()()()()()()()()()()()

                                              &SEWARD

                                   only a single process is used
                       available to each process: 2.0 GB of memory, 1 thread?
()()()()()()()()()()()()()()()()()()()()()()()()()()()()()()()()()()()()()()()()()()()()()()()()()()
 
 ###############################################################################
 ###############################################################################
 ###                                                                         ###
 ###                                                                         ###
 ###                                                                         ###
 ###    WARNING: EXPERT option is ON!                                        ###
 ###                                                                         ###
 ###                                                                         ###
 ###############################################################################
 ###############################################################################
               SEWARD will generate:
                  Multipole Moment integrals up to order  2
                  Kinetic Energy integrals
                  Nuclear Attraction integrals (point charge)
                  One-Electron Hamiltonian integrals
                  Velocity integrals
                  Relativistic Douglas-Kroll-Hess integrals:
                    - Parametrization         : EXP
                    - DKH order of Hamiltonian: 2
                    - DKH order of Properties : 0
                         - multipole moment operators
                         - electric potential operators
                         - contact operators
                  Atomic mean-field integrals
                  Two-Electron Repulsion integrals
 
                   Integrals are discarded if absolute value <: 0.10E-13
                   Integral cutoff threshold is set to       <: 0.10E-15
 
            Nuclear Potential Energy              5.20965221 au
 
 
      Basis set specifications :
      Symmetry species         a  
      Basis functions           60
 
 
  Input file to MOLDEN was generated!
 
 ###############################################################################
 ###############################################################################
 ###                                                                         ###
 ###                                                                         ###
 ###    There were warnings during the execution                             ###
 ###    Please, check the output with care!                                  ###
 ###                                                                         ###
 ###                                                                         ###
 ###############################################################################
 ###############################################################################
--- Stop Module: seward at Tue Nov 19 06:58:08 2024 /rc=_RC_ALL_IS_WELL_ ---
*** files: H12_2.56.GssOrb H12_2.56.guessorb.h5 H12_2.56.guessorb.molden xmldump
    saved to directory /home/grierjones/DDCASPT2/hydrogen_comps/H12_chain/H12_2.56

*** symbolic link created: INPORB -> H12_2.56.GssOrb
--- Start Module: scf at Tue Nov 19 06:58:08 2024 ---
 
()()()()()()()()()()()()()()()()()()()()()()()()()()()()()()()()()()()()()()()()()()()()()()()()()()

                                                &SCF

                                   only a single process is used
                       available to each process: 2.0 GB of memory, 1 thread?
()()()()()()()()()()()()()()()()()()()()()()()()()()()()()()()()()()()()()()()()()()()()()()()()()()
 
++    Input section:
      --------------
 
      Header of the integral files:
      
       Integrals generated by seward 4.2.0  , Tue Nov 19 06:58:07 2024
 
 
      Cartesian coordinates in Angstrom:
      -----------------------------------------------------
      No.  Label        X            Y            Z        
      -----------------------------------------------------
       1   H1         0.00000000   0.00000000   0.00000000
       2   H2         0.00000000   0.00000000   2.56363600
       3   H3         0.00000000   0.00000000   5.12727300
       4   H4         0.00000000   0.00000000   7.69090900
       5   H5         0.00000000   0.00000000  10.25454500
       6   H6         0.00000000   0.00000000  12.81818200
       7   H7         0.00000000   0.00000000  15.38181800
       8   H8         0.00000000   0.00000000  17.94545500
       9   H9         0.00000000   0.00000000  20.50909100
      10   H10        0.00000000   0.00000000  23.07272700
      11   H11        0.00000000   0.00000000  25.63636400
      12   H12        0.00000000   0.00000000  28.20000000
      -----------------------------------------------------
      Nuclear repulsion energy =    5.20965221
--
 
++    Orbital specifications:
      -----------------------
 
      Symmetry species               1
                                     a
      Frozen orbitals                0
      Occupied orbitals              6
      Secondary orbitals            54
      Deleted orbitals               0
      Total number of orbitals      60
      Number of basis functions     60
--
 
      Molecular charge                           0.000
 
++    Optimization specifications:
      ----------------------------
 
      SCF Algorithm: Conventional
      Minimized density differences are used
      Number of density matrices in core                5
      Maximum number of NDDO SCF iterations           400
      Maximum number of HF SCF iterations             400
      Threshold for SCF energy change            0.10E-08
      Threshold for density matrix               0.10E-03
      Threshold for Fock matrix                  0.15E-03
      Threshold for linear dependence            0.10E-08
      Threshold at which DIIS is turned on       0.15E+00
      Threshold at which QNR/C2DIIS is turned on 0.75E-01
      Threshold for Norm(delta) (QNR/C2DIIS)     0.20E-04
      DIIS extrapolation of the SCF procedure
      All orbitals punched on: SCFORB
--
 
      Input vectors read from INPORB
      Orbital file label: *Guess orbitals
 
 
++ Convergence information
                                   SCF        iterations: Energy and convergence statistics
 
Iter     Tot. SCF        One-elec.       Two-elec.     Energy      Max Dij or  Max Fij      DNorm      TNorm      AccCon     Time
         Energy          Energy          Energy        Change      Delta Norm                                                in Sec.
   1    -4.802127367   -16.598803806     6.587024227   0.00E+00    0.40E+00*   0.13E+00*    0.54E+01   0.11E+02   None         0.
   2    -5.151594951   -16.539751831     6.178504669  -0.35E+00*   0.16E+00*   0.24E-01*    0.16E+01   0.10E+02   EDIIS        0.
   3    -5.170422977   -16.452653851     6.072578662  -0.19E-01*   0.10E+00*   0.90E-02*    0.42E+00   0.10E+02   EDIIS        0.
   4    -5.175489642   -16.453477596     6.068335743  -0.51E-02*   0.72E-01*   0.15E-01*    0.19E+00   0.10E+02   c2DIIS       0.
   5    -5.178719542   -16.426861336     6.038489583  -0.32E-02*   0.42E-01*   0.41E-02*    0.16E+00   0.10E+02   QNRc2DIIS    0.
   6    -5.179066713   -16.447514300     6.058795375  -0.35E-03*   0.17E-01*   0.29E-02*    0.71E-01   0.10E+02   QNRc2DIIS    0.
   7    -5.179343499   -16.441153692     6.052157982  -0.28E-03*   0.78E-02*   0.50E-03*    0.12E-01   0.10E+02   QNRc2DIIS    0.
   8    -5.179360110   -16.439787899     6.050775577  -0.17E-04*   0.40E-02*   0.33E-03*    0.78E-02   0.10E+02   QNRc2DIIS    0.
   9    -5.179364696   -16.440234948     6.051218040  -0.46E-05*   0.52E-03*   0.76E-04     0.32E-02   0.10E+02   QNRc2DIIS    0.
  10    -5.179364890   -16.440262458     6.051245356  -0.19E-06*   0.11E-03*   0.21E-04     0.85E-03   0.10E+02   QNRc2DIIS    0.
  11    -5.179364903   -16.440197679     6.051180564  -0.13E-07*   0.31E-04*   0.27E-05     0.92E-04   0.10E+02   QNRc2DIIS    0.
  12    -5.179364903   -16.440189759     6.051172644  -0.49E-09    0.16E-04    0.90E-06     0.24E-04   0.10E+02   QNRc2DIIS    0.
 
       Convergence after 12 Macro Iterations
--
 
 *****************************************************************************************************************************
 *                                                                                                                           *
 *                                             SCF/KS-DFT Program, Final results                                             *
 *                                                                                                                           *
 *                                                                                                                           *
 *                                                                                                                           *
 *                                                       Final Results                                                       *
 *                                                                                                                           *
 *****************************************************************************************************************************
 
::    Total SCF energy                                 -5.1793649035
      One-electron energy                             -16.4401897587
      Two-electron energy                               6.0511726437
      Nuclear repulsion energy                          5.2096522114
      Kinetic energy (interpolated)                     3.9418204578
      Virial theorem                                    1.3139525148
      Total spin, S(S+1)                                0.0000000000
      Total spin, S                                     0.0000000000
      Max non-diagonal density matrix element           0.0000144769
      Max non-diagonal Fock matrix element              0.0000008491
 
 
      All orbitals with orbital energies smaller than  E(LUMO)+0.5 are printed
 
++    Molecular orbitals:
      -------------------
 
      Title: SCF orbitals

      Molecular orbitals for symmetry species 1: a  
 
          Orbital            1         2         3         4         5         6         7         8         9        10    
          Energy           -0.3908   -0.3834   -0.3720   -0.3571   -0.3401   -0.3255   -0.1585   -0.1383   -0.1144   -0.0911
          Occ. No.          2.0000    2.0000    2.0000    2.0000    2.0000    2.0000    0.0000    0.0000    0.0000    0.0000
 
        1 H1     1s         0.0958   -0.1924    0.2767   -0.3289    0.3225   -0.2155    0.2379   -0.3806    0.4213   -0.3821
        2 H1     2s         0.0176   -0.0359    0.0531   -0.0656    0.0673   -0.0467    0.0726   -0.1208    0.1391   -0.1297
        3 H1     2px        0.0000   -0.0000    0.0000    0.0000   -0.0000   -0.0000    0.0000   -0.0000    0.0000   -0.0000
        4 H1     2py       -0.0000   -0.0000    0.0000   -0.0000    0.0000   -0.0000    0.0000   -0.0000    0.0000   -0.0000
        5 H1     2pz        0.0035   -0.0067    0.0087   -0.0092    0.0078   -0.0046   -0.0014    0.0043   -0.0079    0.0105
        6 H2     1s         0.1313   -0.2492    0.3268   -0.3409    0.2842   -0.1626   -0.1132    0.2620   -0.4019    0.4661
        7 H2     2s         0.0199   -0.0428    0.0660   -0.0819    0.0803   -0.0519   -0.0294    0.0808   -0.1362    0.1643
        8 H2     2px       -0.0000    0.0000   -0.0000   -0.0000    0.0000   -0.0000    0.0000   -0.0000   -0.0000    0.0000
        9 H2     2py       -0.0000   -0.0000    0.0000    0.0000    0.0000   -0.0000   -0.0000   -0.0000    0.0000    0.0000
       10 H2     2pz       -0.0003    0.0017   -0.0043    0.0078   -0.0099    0.0077   -0.0102    0.0141   -0.0112    0.0044
       11 H3     1s         0.2267   -0.3257    0.2217    0.0453   -0.3018    0.3106   -0.3421    0.3400   -0.0379   -0.3207
       12 H3     2s         0.0422   -0.0594    0.0358    0.0228   -0.0809    0.0809   -0.1076    0.1082   -0.0080   -0.1147
       13 H3     2px       -0.0000    0.0000   -0.0000   -0.0000    0.0000   -0.0000   -0.0000   -0.0000   -0.0000   -0.0000
       14 H3     2py       -0.0000    0.0000   -0.0000   -0.0000    0.0000   -0.0000    0.0000    0.0000    0.0000   -0.0000
       15 H3     2pz        0.0044   -0.0047   -0.0000    0.0064   -0.0096    0.0070    0.0072   -0.0134    0.0135   -0.0056
       16 H4     1s         0.2536   -0.3183    0.1373    0.1600   -0.3425    0.2687    0.2474   -0.4050    0.2803    0.1130
       17 H4     2s         0.0414   -0.0611    0.0378    0.0254   -0.0834    0.0770    0.0728   -0.1335    0.1004    0.0367
       18 H4     2px        0.0000   -0.0000   -0.0000    0.0000   -0.0000   -0.0000   -0.0000    0.0000    0.0000    0.0000
       19 H4     2py       -0.0000    0.0000    0.0000   -0.0000   -0.0000    0.0000   -0.0000    0.0000    0.0000   -0.0000
       20 H4     2pz       -0.0021    0.0053   -0.0066    0.0020    0.0068   -0.0096    0.0130   -0.0088   -0.0057    0.0135
       21 H5     1s         0.3137   -0.1850   -0.2094    0.3047    0.0800   -0.3482    0.3795   -0.0535   -0.4107    0.2749
       22 H5     2s         0.0561   -0.0275   -0.0506    0.0631    0.0305   -0.0935    0.1174   -0.0115   -0.1429    0.0938
       23 H5     2px        0.0000    0.0000   -0.0000   -0.0000    0.0000    0.0000   -0.0000   -0.0000    0.0000    0.0000
       24 H5     2py       -0.0000   -0.0000    0.0000    0.0000   -0.0000   -0.0000    0.0000    0.0000   -0.0000   -0.0000
       25 H5     2pz        0.0047    0.0004   -0.0071    0.0032    0.0072   -0.0093   -0.0113    0.0124    0.0016   -0.0133
       26 H6     1s         0.3239   -0.1192   -0.2777    0.2331    0.1898   -0.3337   -0.3449    0.2723    0.2510   -0.4265
       27 H6     2s         0.0557   -0.0298   -0.0506    0.0609    0.0382   -0.0923   -0.1047    0.0943    0.0824   -0.1509
       28 H6     2px       -0.0000   -0.0000    0.0000    0.0000    0.0000    0.0000   -0.0000   -0.0000   -0.0000   -0.0000
       29 H6     2py        0.0000    0.0000    0.0000   -0.0000   -0.0000   -0.0000    0.0000    0.0000    0.0000   -0.0000
       30 H6     2pz       -0.0038    0.0050    0.0018   -0.0085    0.0003    0.0103   -0.0134   -0.0027    0.0143    0.0006
       31 H7     1s         0.3239    0.1192   -0.2777   -0.2331    0.1898    0.3337   -0.3449   -0.2723    0.2510    0.4265
       32 H7     2s         0.0557    0.0298   -0.0506   -0.0609    0.0382    0.0923   -0.1047   -0.0943    0.0824    0.1509
       33 H7     2px        0.0000   -0.0000   -0.0000   -0.0000   -0.0000   -0.0000   -0.0000   -0.0000    0.0000    0.0000
       34 H7     2py        0.0000   -0.0000   -0.0000   -0.0000    0.0000   -0.0000    0.0000    0.0000   -0.0000    0.0000
       35 H7     2pz        0.0038    0.0050   -0.0018   -0.0085   -0.0003    0.0103    0.0134   -0.0027   -0.0143    0.0006
       36 H8     1s         0.3137    0.1850   -0.2094   -0.3047    0.0800    0.3482    0.3795    0.0535   -0.4107   -0.2749
       37 H8     2s         0.0561    0.0275   -0.0506   -0.0631    0.0305    0.0935    0.1174    0.0115   -0.1429   -0.0938
       38 H8     2px        0.0000   -0.0000   -0.0000   -0.0000    0.0000   -0.0000   -0.0000   -0.0000   -0.0000    0.0000
       39 H8     2py        0.0000    0.0000    0.0000    0.0000   -0.0000   -0.0000    0.0000    0.0000   -0.0000   -0.0000
       40 H8     2pz       -0.0047    0.0004    0.0071    0.0032   -0.0072   -0.0093    0.0113    0.0124   -0.0016   -0.0133
       41 H9     1s         0.2536    0.3183    0.1373   -0.1600   -0.3425   -0.2687    0.2474    0.4050    0.2803   -0.1130
       42 H9     2s         0.0414    0.0611    0.0378   -0.0254   -0.0834   -0.0770    0.0728    0.1335    0.1004   -0.0367
       43 H9     2px        0.0000    0.0000    0.0000    0.0000    0.0000    0.0000   -0.0000   -0.0000    0.0000    0.0000
       44 H9     2py       -0.0000    0.0000    0.0000   -0.0000    0.0000   -0.0000    0.0000   -0.0000    0.0000   -0.0000
       45 H9     2pz        0.0021    0.0053    0.0066    0.0020   -0.0068   -0.0096   -0.0130   -0.0088    0.0057    0.0135
       46 H10    1s         0.2267    0.3257    0.2217   -0.0453   -0.3018   -0.3106   -0.3421   -0.3400   -0.0379    0.3207
       47 H10    2s         0.0422    0.0594    0.0358   -0.0228   -0.0809   -0.0809   -0.1076   -0.1082   -0.0080    0.1147
       48 H10    2px       -0.0000    0.0000   -0.0000   -0.0000   -0.0000   -0.0000    0.0000   -0.0000   -0.0000   -0.0000
       49 H10    2py        0.0000   -0.0000    0.0000    0.0000   -0.0000   -0.0000   -0.0000    0.0000    0.0000   -0.0000
       50 H10    2pz       -0.0044   -0.0047    0.0000    0.0064    0.0096    0.0070   -0.0072   -0.0134   -0.0135   -0.0056
       51 H11    1s         0.1313    0.2492    0.3268    0.3409    0.2842    0.1626   -0.1132   -0.2620   -0.4019   -0.4661
       52 H11    2s         0.0199    0.0428    0.0660    0.0819    0.0803    0.0519   -0.0294   -0.0808   -0.1362   -0.1643
       53 H11    2px       -0.0000    0.0000   -0.0000    0.0000    0.0000    0.0000   -0.0000    0.0000    0.0000   -0.0000
       54 H11    2py        0.0000   -0.0000    0.0000    0.0000    0.0000    0.0000   -0.0000   -0.0000    0.0000   -0.0000
       55 H11    2pz        0.0003    0.0017    0.0043    0.0078    0.0099    0.0077    0.0102    0.0141    0.0112    0.0044
       56 H12    1s         0.0958    0.1924    0.2767    0.3289    0.3225    0.2155    0.2379    0.3806    0.4213    0.3821
       57 H12    2s         0.0176    0.0359    0.0531    0.0656    0.0673    0.0467    0.0726    0.1208    0.1391    0.1297
       58 H12    2px       -0.0000    0.0000    0.0000    0.0000   -0.0000   -0.0000    0.0000   -0.0000   -0.0000    0.0000
       59 H12    2py        0.0000    0.0000    0.0000    0.0000   -0.0000    0.0000   -0.0000   -0.0000    0.0000   -0.0000
       60 H12    2pz       -0.0035   -0.0067   -0.0087   -0.0092   -0.0078   -0.0046    0.0014    0.0043    0.0079    0.0105
 
          Orbital           11        12        13        14        15    
          Energy           -0.0716   -0.0589    0.3181    0.3251    0.3370
          Occ. No.          0.0000    0.0000    0.0000    0.0000    0.0000
 
        1 H1     1s         0.2876   -0.1553   -0.0726    0.1259   -0.1454
        2 H1     2s         0.0990   -0.0536    0.1380   -0.2588    0.3439
        3 H1     2px        0.0000   -0.0000   -0.0000    0.0000   -0.0000
        4 H1     2py        0.0000    0.0000    0.0000   -0.0000    0.0000
        5 H1     2pz       -0.0104    0.0066   -0.0063    0.0106   -0.0119
        6 H2     1s        -0.4148    0.2461   -0.1209    0.1896   -0.1810
        7 H2     2s        -0.1474    0.0869    0.1440   -0.2378    0.2466
        8 H2     2px       -0.0000   -0.0000   -0.0000    0.0000   -0.0000
        9 H2     2py        0.0000    0.0000   -0.0000    0.0000   -0.0000
       10 H2     2pz        0.0017   -0.0031    0.0015   -0.0028    0.0029
       11 H3     1s         0.4907   -0.3574   -0.1392    0.1810   -0.1031
       12 H3     2s         0.1720   -0.1239    0.1869   -0.2582    0.1639
       13 H3     2px       -0.0000   -0.0000    0.0000    0.0000   -0.0000
       14 H3     2py       -0.0000    0.0000   -0.0000    0.0000   -0.0000
       15 H3     2pz       -0.0044    0.0069   -0.0027    0.0021    0.0001
       16 H4     1s        -0.4585    0.4172   -0.1656    0.1571    0.0054
       17 H4     2s        -0.1605    0.1458    0.2159   -0.2188   -0.0061
       18 H4     2px       -0.0000    0.0000    0.0000   -0.0000    0.0000
       19 H4     2py       -0.0000    0.0000   -0.0000    0.0000   -0.0000
       20 H4     2pz       -0.0078    0.0002    0.0021   -0.0029    0.0008
       21 H5     1s         0.2939   -0.4758   -0.1794    0.1085    0.1024
       22 H5     2s         0.1043   -0.1654    0.2379   -0.1514   -0.1624
       23 H5     2px        0.0000   -0.0000    0.0000   -0.0000   -0.0000
       24 H5     2py        0.0000    0.0000    0.0000    0.0000    0.0000
       25 H5     2pz        0.0056    0.0055   -0.0031    0.0003    0.0021
       26 H6     1s        -0.1349    0.4963   -0.1890    0.0350    0.1706
       27 H6     2s        -0.0459    0.1729    0.2493   -0.0507   -0.2650
       28 H6     2px        0.0000   -0.0000   -0.0000   -0.0000    0.0000
       29 H6     2py        0.0000   -0.0000   -0.0000   -0.0000   -0.0000
       30 H6     2pz       -0.0110    0.0032    0.0028   -0.0019   -0.0018
       31 H7     1s        -0.1349   -0.4963   -0.1890   -0.0350    0.1706
       32 H7     2s        -0.0459   -0.1729    0.2493    0.0507   -0.2650
       33 H7     2px        0.0000   -0.0000    0.0000    0.0000   -0.0000
       34 H7     2py       -0.0000    0.0000   -0.0000   -0.0000    0.0000
       35 H7     2pz        0.0110    0.0032   -0.0028   -0.0019    0.0018
       36 H8     1s         0.2939    0.4758   -0.1794   -0.1085    0.1024
       37 H8     2s         0.1043    0.1654    0.2379    0.1514   -0.1624
       38 H8     2px        0.0000    0.0000    0.0000    0.0000   -0.0000
       39 H8     2py        0.0000    0.0000    0.0000   -0.0000    0.0000
       40 H8     2pz       -0.0056    0.0055    0.0031    0.0003   -0.0021
       41 H9     1s        -0.4585   -0.4172   -0.1656   -0.1571    0.0054
       42 H9     2s        -0.1605   -0.1458    0.2159    0.2188   -0.0061
       43 H9     2px        0.0000   -0.0000   -0.0000    0.0000    0.0000
       44 H9     2py       -0.0000    0.0000   -0.0000   -0.0000   -0.0000
       45 H9     2pz        0.0078    0.0002   -0.0021   -0.0029   -0.0008
       46 H10    1s         0.4907    0.3574   -0.1392   -0.1810   -0.1031
       47 H10    2s         0.1720    0.1239    0.1869    0.2582    0.1639
       48 H10    2px       -0.0000   -0.0000   -0.0000    0.0000    0.0000
       49 H10    2py       -0.0000    0.0000    0.0000   -0.0000   -0.0000
       50 H10    2pz        0.0044    0.0069    0.0027    0.0021   -0.0001
       51 H11    1s        -0.4148   -0.2461   -0.1209   -0.1896   -0.1810
       52 H11    2s        -0.1474   -0.0869    0.1440    0.2378    0.2466
       53 H11    2px        0.0000   -0.0000   -0.0000   -0.0000    0.0000
       54 H11    2py       -0.0000   -0.0000    0.0000   -0.0000   -0.0000
       55 H11    2pz       -0.0017   -0.0031   -0.0015   -0.0028   -0.0029
       56 H12    1s         0.2876    0.1553   -0.0726   -0.1259   -0.1454
       57 H12    2s         0.0990    0.0536    0.1380    0.2588    0.3439
       58 H12    2px        0.0000   -0.0000    0.0000   -0.0000   -0.0000
       59 H12    2py       -0.0000    0.0000    0.0000   -0.0000   -0.0000
       60 H12    2pz        0.0104    0.0066    0.0063    0.0106    0.0119
--
 
 
++    Molecular charges:
      ------------------
 
      Mulliken charges per centre and basis function type
      ---------------------------------------------------
 
                H1      H2      H3      H4      H5      H6      H7      H8      H9      H10     H11     H12   
      1s       0.8796  0.9311  0.9065  0.9146  0.9091  0.9113  0.9113  0.9091  0.9146  0.9065  0.9311  0.8796
      2s       0.0849  0.0935  0.0843  0.0867  0.0857  0.0861  0.0861  0.0857  0.0867  0.0843  0.0935  0.0849
      2px      0.0000  0.0000  0.0000  0.0000  0.0000  0.0000  0.0000  0.0000  0.0000  0.0000  0.0000  0.0000
      2pz      0.0040  0.0046  0.0046  0.0045  0.0045  0.0045  0.0045  0.0045  0.0045  0.0046  0.0046  0.0040
      2py      0.0000  0.0000  0.0000  0.0000  0.0000  0.0000  0.0000  0.0000  0.0000  0.0000  0.0000  0.0000
      Total    0.9684  1.0292  0.9954  1.0057  0.9994  1.0019  1.0019  0.9994  1.0057  0.9954  1.0292  0.9684
 
      N-E      0.0316 -0.0292  0.0046 -0.0057  0.0006 -0.0019 -0.0019  0.0006 -0.0057  0.0046 -0.0292  0.0316
 
      Total electronic charge=   12.000000
 
      Total            charge=   -0.000000
--
 
 
  Input file to MOLDEN was generated!
 
 
++    Static properties:
      ------------------
 
 
      LoProp Charges per center
 

                   H1       H2       H3       H4       H5       H6       H7       H8       H9       H10   
      Nuclear      1.0000   1.0000   1.0000   1.0000   1.0000   1.0000   1.0000   1.0000   1.0000   1.0000
      Electronic  -0.9799  -1.0167  -0.9966  -1.0054  -0.9996  -1.0018  -1.0018  -0.9996  -1.0054  -0.9966
 
      Total        0.0201  -0.0167   0.0034  -0.0054   0.0004  -0.0018  -0.0018   0.0004  -0.0054   0.0034
 

                   H11      H12   
      Nuclear      1.0000   1.0000
      Electronic  -1.0167  -0.9799
 
      Total       -0.0167   0.0201
--
 
 
++    Natural Bond Order analysis
      ---------------------------
      Based on LoProp computed density
      -------------------------------------------------------------------------------------
      Atom A       Atom B       Bond Order
      -------------------------------------------------------------------------------------
      NBO located      0.969 non-bonded electrons on atom H1        
      NBO located      1.003 non-bonded electrons on atom H3        
      NBO located      1.013 non-bonded electrons on atom H4        
      NBO located      1.006 non-bonded electrons on atom H5        
      NBO located      1.009 non-bonded electrons on atom H6        
      NBO located      1.009 non-bonded electrons on atom H7        
      NBO located      1.006 non-bonded electrons on atom H8        
      NBO located      1.013 non-bonded electrons on atom H9        
      NBO located      1.003 non-bonded electrons on atom H10       
      NBO located      0.969 non-bonded electrons on atom H12       
      The remaining    2.002 electrons are to be considered as diffuse
--
 
 
++    Molecular properties:
      ---------------------
 
      Charge (e):
                      =   -0.0000
      Dipole Moment (Debye):
      Origin of the operator (Ang)=    0.0000    0.0000    0.0000
                   X= -1.1175E-14               Y= -4.8302E-14               Z=  1.7771E-11           Total=  1.7771E-11
      Quadrupole Moment (Debye*Ang):
      Origin of the operator (Ang)=    0.0000    0.0000   14.1000
                  XX= -2.8598E+01              XY=  1.0201E-30              XZ=  1.6250E-13              YY= -2.8598E+01
                  YZ=  5.5279E-13              ZZ=  5.8783E+00
      In traceless form (Debye*Ang)
                  XX= -1.7238E+01              XY=  1.5301E-30              XZ=  2.4375E-13              YY= -1.7238E+01
                  YZ=  8.2919E-13              ZZ=  3.4476E+01
--
 
 
  Input file to MOLDEN was generated!
 
 ###############################################################################
 ###############################################################################
 ###                                                                         ###
 ###                                                                         ###
 ###    RunFile label nBas                                                   ###
 ###    was used       78 times                                              ###
 ###                                                                         ###
 ###                                                                         ###
 ###############################################################################
 ###############################################################################
--- Stop Module: scf at Tue Nov 19 06:58:08 2024 /rc=_RC_ALL_IS_WELL_ ---
*** files: H12_2.56.LprOrb H12_2.56.LoProp.molden H12_2.56.scf.molden H12_2.56.ScfOrb H12_2.56.scf.h5 xmldump
    saved to directory /home/grierjones/DDCASPT2/hydrogen_comps/H12_chain/H12_2.56

>>> COPY /tmp/H12_2.56/H12_2.56.scf.h5 /home/grierjones/DDCASPT2/hydrogen_comps/H12_chain/H12_2.56/

*** symbolic link created: INPORB -> H12_2.56.ScfOrb
--- Start Module: rasscf at Tue Nov 19 06:58:08 2024 ---
 
()()()()()()()()()()()()()()()()()()()()()()()()()()()()()()()()()()()()()()()()()()()()()()()()()()

                                              &RASSCF

                                   only a single process is used
                       available to each process: 2.0 GB of memory, 1 thread?
()()()()()()()()()()()()()()()()()()()()()()()()()()()()()()()()()()()()()()()()()()()()()()()()()()
 
 
 *************** WARNING ****************
 ###############################################################################
 ###############################################################################
 ###                                                                         ###
 ###                                                                         ###
 ###    Too many macro-iterations.                                           ###
 ###                                                                         ###
 ###                                                                         ###
 ###############################################################################
 ###############################################################################
 Too many macro-iterations requested.
 Reset to maximum, new MAXIT=     200
 ****************************************
 
 *************** WARNING ****************
 ###############################################################################
 ###############################################################################
 ###                                                                         ###
 ###                                                                         ###
 ###    Too many SX-iterations.                                              ###
 ###                                                                         ###
 ###                                                                         ###
 ###############################################################################
 ###############################################################################
 Too many SX-iterations requested.
 Reset to maximum, new ITMAX=     100
 ****************************************
 
      Header of the ONEINT file:
      --------------------------
      
      Integrals generated by seward 4.2.0  , Tue Nov 19 06:58:07 2024
 
 
      OrdInt status: non-squared
 
 
      Cartesian coordinates in Angstrom:
      -----------------------------------------------------
      No.  Label        X            Y            Z        
      -----------------------------------------------------
       1   H1         0.00000000   0.00000000   0.00000000
       2   H2         0.00000000   0.00000000   2.56363600
       3   H3         0.00000000   0.00000000   5.12727300
       4   H4         0.00000000   0.00000000   7.69090900
       5   H5         0.00000000   0.00000000  10.25454500
       6   H6         0.00000000   0.00000000  12.81818200
       7   H7         0.00000000   0.00000000  15.38181800
       8   H8         0.00000000   0.00000000  17.94545500
       9   H9         0.00000000   0.00000000  20.50909100
      10   H10        0.00000000   0.00000000  23.07272700
      11   H11        0.00000000   0.00000000  25.63636400
      12   H12        0.00000000   0.00000000  28.20000000
      -----------------------------------------------------
      Nuclear repulsion energy =    5.20965221
 
++    Wave function specifications:
      -----------------------------
 
      Number of closed shell electrons           0
      Number of electrons in active shells      12
      Max number of holes in RAS1 space          0
      Max nr of electrons in RAS3 space          0
      Number of inactive orbitals                0
      Number of active orbitals                 12
      Number of secondary orbitals              48
      Spin quantum number                      0.0
      State symmetry                             1
--
 
++    Orbital specifications:
      -----------------------
 
      Symmetry species                           1
                                                 a
      Frozen orbitals                            0
      Inactive orbitals                          0
      Active orbitals                           12
      RAS1 orbitals                              0
      RAS2 orbitals                             12
      RAS3 orbitals                              0
      Secondary orbitals                        48
      Deleted orbitals                           0
      Number of basis functions                 60
--
 
++    CI expansion specifications:
      ----------------------------
 
      Number of CSFs                        226512
      Number of determinants                427350
      Number of root(s) required                 1
      Root chosen for geometry opt.              1
      CI root used                               1
         
      highest root included in the CI            1
      max. size of the explicit Hamiltonian    200
--
 
++    Optimization specifications:
      ----------------------------
 
      RASSCF algorithm: Conventional
      Maximum number of macro iterations       200
      Maximum number of SX iterations          100
      Threshold for RASSCF energy            0.100E-07
      Threshold for max MO rotation          0.100E+00
      Threshold for max BLB element          0.100E-03
      Level shift parameter                  0.500E+00
      Make Quasi-Newton update
--
 
      The MO-coefficients are taken from the file:
      /home/grierjones/DDCASPT2/hydrogen_comps/H12_chain/H12_2.54/H12_2.54.RasOrb                                                     
      Title: RASSCF average (pseudo-natural) orbitals                                      
 
      Total molecular charge    0.00
 
      ************************************************************************************************************************
      *                                                                                                                      *
      *                                            Wave function control section                                             *
      *                                                                                                                      *
      ************************************************************************************************************************
 
 
                                         RASSCF iterations: Energy and convergence statistics
                                         ----------------------------------------------------
 
      Iter CI   SX   CI       RASSCF       Energy    max ROT     max BLB   max BLB  Level Ln srch  Step   QN   Walltime
          iter iter root      energy       change     param      element    value   shift minimum  type update hh:mm:ss
 Nr of preliminary CI iterations:  10
        1   1    4    1    -6.00017781    0.00E+00   0.11E-02    6  20 1 -0.88E-03*  0.00   0.00    SX    NO    0:00:13
        2   1    4    1    -6.00018330   -0.55E-05* -0.35E-03    1  13 1  0.25E-03*  0.00   0.00    SX    NO    0:00:02
        3   2    3    1    -6.00019694   -0.14E-04*  0.18E-03    6  18 1 -0.12E-03*  0.00   0.00    SX    NO    0:00:03
        No convergence in the CI section: MAXJT will be increased to 
                    60
        4  48    4    1    -6.00058021   -0.38E-03*  0.30E-03    9  19 1  0.18E-03*  0.00   0.00    SX    NO    0:00:43
        5  10    4    1    -6.00060581   -0.26E-04* -0.13E-03    9  19 1 -0.12E-03*  0.00   1.00    QN   YES    0:00:10
        No convergence in the CI section: MAXJT will be increased to 
                    84
        6  72    4    1    -6.00061630   -0.10E-04* -0.61E-03    9  19 1 -0.22E-03*  0.00   1.00    QN   YES    0:01:04
        No convergence in the CI section: MAXJT will be increased to 
                    96
        7  84    4    1    -6.00061628    0.20E-07*  0.40E-03    4  16 1  0.45E-03*  0.01   0.65    QN   YES    0:01:16
        No convergence in the CI section: MAXJT will be increased to 
                   108
        8  96    4    1    -6.00061810   -0.18E-05* -0.14E-03    6  20 1  0.31E-03*  0.01   1.09    QN   YES    0:01:26
        9   4    4    1    -6.00061757    0.52E-06*  0.37E-03    6  20 1  0.39E-03*  0.01  -0.50    QN   YES    0:00:05
       10  98    4    1    -6.00061924   -0.17E-05*  0.32E-03   10  18 1 -0.19E-03*  0.01   1.50    QN   YES    0:01:23
       11  78    3    1    -6.00061993   -0.70E-06*  0.36E-04    6  18 1 -0.50E-04   0.01   1.05    QN   YES    0:01:10
       12  11    3    1    -6.00061998   -0.42E-07* -0.18E-04    6  18 1 -0.16E-04   0.01   1.07    QN   YES    0:00:11
       13   2    3    1    -6.00061998   -0.29E-08  -0.56E-05   10  18 1  0.35E-05   0.01   0.91    QN   YES    0:00:03
      Convergence after 13 iterations
 
  Dmat in MO in SXCTL bf call to SXHAM                                                                                    
  mat. size =    12x   12
 
        1.3487584023766435
        0.0000000546455085      1.3276737148754569
        0.0000476648342792      0.0000000388280137      1.2926191935666882
        0.0000000237794044     -0.0000735557321484      0.0000000128772616      1.2444180057193217
        0.0000349807153673     -0.0000000865962785     -0.0000045742432990     -0.0000000590738546      1.1855423320984686
        0.0000000588727344      0.0000087629942304      0.0000000412908195     -0.0000357347118142     -0.0000001640970439
        1.1216452260842695
       -0.0000141198246319      0.0000000698035057     -0.0000924209496543      0.0000000010756167      0.0002361851719072
        0.0000000896102487      0.7566867293829204
        0.0000000501893206     -0.0000483580537966      0.0000000003903646     -0.0002108925027030     -0.0000000766532535
       -0.0000912786263644      0.0000000127000771      0.7062904626104410
        0.0000392832901349      0.0000000243685397      0.0000378093571143      0.0000000896057505      0.0001516212686630
        0.0000000009636373      0.0000284928011037     -0.0000000418785714      0.8825324530140231
        0.0000000073227823      0.0000481324859569     -0.0000000761277439     -0.0001352572790612      0.0000000007542294
        0.0001994989210379      0.0000000581436798      0.0000545695240088     -0.0000001579472317      0.8174635079191676
       -0.0000258410029104     -0.0000000001644767      0.0001335233202284      0.0000000687578892      0.0001219575522332
       -0.0000000235550941     -0.0000582636640050     -0.0000000406190089     -0.0000249014371315     -0.0000000852824372
        0.6693007167575070
       -0.0000000004819230     -0.0000567144096551      0.0000000508610585      0.0000630562526341     -0.0000000076917567
        0.0000620645318885     -0.0000000241670738      0.0000376502019236      0.0000000575088320     -0.0000216187910772
        0.0000000595808512      0.6470692555963741
       14   1    3    1    -6.00061998   -0.13E-09  -0.56E-05    6  18 1  0.95E-06   0.01   0.91    QN   YES    0:00:03
 
      ************************************************************************************************************************
                                                      Wave function printout:
                       occupation of active orbitals, and spin coupling of open shells (u,d: Spin up or down)
      ************************************************************************************************************************
 
      Note: transformation to natural orbitals
      has been made, which may change the order of the CSFs.
 
      printout of CI-coefficients larger than  0.05 for root  1
      energy=      -6.000620
      conf/sym  111111111111     Coeff  Weight
             1  222222000000   0.20501 0.04203
            43  222220002000  -0.10254 0.01051
            67  2222ud00ud00  -0.11143 0.01242
            83  222u2du0d000   0.08895 0.00791
           105  22u22d0ud000   0.07685 0.00591
           134  2u222d00u0d0  -0.07062 0.00499
           160  u2222d00u00d  -0.08680 0.00753
           173  222202000200  -0.06974 0.00486
           191  222ud2u00d00   0.08545 0.00730
           213  22u2d20u0d00   0.07315 0.00535
           240  2u22d2000ud0  -0.07519 0.00565
           266  u222d2000u0d  -0.06430 0.00413
           269  222022200000  -0.05554 0.00308
           291  22ud22ud0000  -0.07748 0.00600
           321  2u2d22u000d0   0.06451 0.00416
           347  u22d22u0000d   0.06094 0.00371
           385  2ud2220u00d0   0.06357 0.00404
           411  u2d2220u000d   0.06045 0.00365
           456  ud22220000ud  -0.06274 0.00394
          5623  222200002200   0.06161 0.00380
          5721  222ud0u02d00   0.06326 0.00400
          5827  22u2d00u2d00   0.05390 0.00291
          5952  2u22d0002ud0   0.05057 0.00256
          7196  222u0du0d200   0.05326 0.00284
          7713  22udududud00   0.05848 0.00342
 
      Natural orbitals and occupation numbers for root  1
      sym 1:   1.348758   1.327674   1.292619   1.244418   1.185543   1.121645   0.756687   0.706290   0.882532   0.817463
               0.669301   0.647069
 
      ************************************************************************************************************************
      *                                                                                                                      *
      *                                                    Final results                                                     *
      *                                                                                                                      *
      ************************************************************************************************************************
 
 
++    Wave function specifications:
      -----------------------------
 
      Number of closed shell electrons           0
      Number of electrons in active shells      12
      Max number of holes in RAS1 space          0
      Max nr of electrons in RAS3 space          0
      Number of inactive orbitals                0
      Number of active orbitals                 12
      Number of secondary orbitals              48
      Spin quantum number                      0.0
      State symmetry                             1
--
 
++    Orbital specifications:
      -----------------------
 
      Symmetry species                           1
                                                 a
      Frozen orbitals                            0
      Inactive orbitals                          0
      Active orbitals                           12
      RAS1 orbitals                              0
      RAS2 orbitals                             12
      RAS3 orbitals                              0
      Secondary orbitals                        48
      Deleted orbitals                           0
      Number of basis functions                 60
--
 
++    CI expansion specifications:
      ----------------------------
 
      Number of CSFs                        226512
      Number of determinants                427350
      Number of root(s) required                 1
      CI root used                               1
      highest root included in the CI            1
      Root passed to geometry opt.               1
--
 
++    Final optimization conditions:
      ------------------------------
 
      Average CI energy                              -6.00061998
      RASSCF energy for state  1                     -6.00061998
      Super-CI energy                                -0.00000000
      RASSCF energy change                            0.00000000
      Max change in MO coefficients               0.279E-05
      Max non-diagonal density matrix element    -0.560E-05
      Maximum BLB matrix element                  0.954E-06
      (orbital pair   6,  18 in symmetry   1)
      Norm of electronic gradient            0.216E-05
--
 
 
      Final state energy(ies):
      ------------------------
 
::    RASSCF root number  1 Total energy:     -6.00061998
 
++    Molecular orbitals:
      -------------------
 
      Pseudonatural active orbitals and approximate occupation numbers
 
 
 
 
      Molecular orbitals for symmetry species 1: a  
 
 
      Orbital                1         2         3         4         5         6         7         8         9        10
      Energy            0.0000    0.0000    0.0000    0.0000    0.0000    0.0000    0.0000    0.0000    0.0000    0.0000
      Occ. No.          1.3488    1.3277    1.2926    1.2444    1.1855    1.1216    0.7567    0.7063    0.8825    0.8175
 
    1 H1     1s         0.1220    0.2297    0.3090   -0.3454    0.3226   -0.2228    0.3999    0.3693   -0.2395   -0.3602
    2 H1     2s         0.0090    0.0172    0.0236   -0.0271    0.0262   -0.0188    0.0462    0.0454   -0.0242   -0.0388
    3 H1     2px       -0.0000   -0.0000   -0.0000   -0.0000    0.0000   -0.0000   -0.0000   -0.0000   -0.0000   -0.0000
    4 H1     2py       -0.0000    0.0000    0.0000   -0.0000    0.0000   -0.0000    0.0000    0.0000    0.0000    0.0000
    5 H1     2pz        0.0006    0.0011    0.0012   -0.0010    0.0007   -0.0003    0.0015    0.0019   -0.0004   -0.0009
    6 H2     1s         0.1709    0.3011    0.3605   -0.3372    0.2428   -0.1150   -0.3823   -0.4470    0.0947    0.2428
    7 H2     2s         0.0107    0.0210    0.0298   -0.0343    0.0312   -0.0194   -0.0483   -0.0664    0.0033    0.0227
    8 H2     2px       -0.0000   -0.0000   -0.0000    0.0000   -0.0000   -0.0000   -0.0000    0.0000    0.0000   -0.0000
    9 H2     2py       -0.0000    0.0000    0.0000    0.0000    0.0000   -0.0000   -0.0000   -0.0000   -0.0000    0.0000
   10 H2     2pz        0.0005    0.0005   -0.0001    0.0010   -0.0015    0.0012    0.0005    0.0005    0.0003   -0.0001
   11 H3     1s         0.2442    0.3354    0.2095    0.0650   -0.3132    0.3421   -0.0515    0.2830    0.3622    0.3363
   12 H3     2s         0.0173    0.0230    0.0115    0.0125   -0.0348    0.0366   -0.0018    0.0480    0.0430    0.0404
   13 H3     2px       -0.0000   -0.0000    0.0000    0.0000    0.0000   -0.0000    0.0000   -0.0000   -0.0000    0.0000
   14 H3     2py       -0.0000   -0.0000    0.0000    0.0000    0.0000   -0.0000   -0.0000   -0.0000    0.0000   -0.0000
   15 H3     2pz        0.0002   -0.0002   -0.0010    0.0014   -0.0011    0.0003   -0.0005    0.0000   -0.0001    0.0003
   16 H4     1s         0.2799    0.3166    0.0760    0.2388   -0.3679    0.2356    0.3017   -0.0787   -0.2301   -0.4110
   17 H4     2s         0.0183    0.0240    0.0104    0.0162   -0.0358    0.0298    0.0473   -0.0084   -0.0221   -0.0529
   18 H4     2px        0.0000   -0.0000    0.0000    0.0000   -0.0000   -0.0000   -0.0000   -0.0000    0.0000    0.0000
   19 H4     2py        0.0000   -0.0000   -0.0000    0.0000    0.0000   -0.0000    0.0000    0.0000   -0.0000   -0.0000
   20 H4     2pz        0.0005   -0.0002   -0.0012    0.0010    0.0005   -0.0012    0.0000    0.0009   -0.0001    0.0004
   21 H5     1s         0.3190    0.1920   -0.2121    0.3216    0.0490   -0.3792   -0.3956   -0.2558   -0.3956   -0.0319
   22 H5     2s         0.0219    0.0110   -0.0197    0.0252    0.0106   -0.0417   -0.0595   -0.0372   -0.0453    0.0015
   23 H5     2px       -0.0000   -0.0000    0.0000    0.0000    0.0000   -0.0000   -0.0000    0.0000   -0.0000    0.0000
   24 H5     2py        0.0000    0.0000   -0.0000    0.0000   -0.0000    0.0000    0.0000   -0.0000   -0.0000   -0.0000
   25 H5     2pz       -0.0001   -0.0008   -0.0010   -0.0004    0.0014   -0.0008   -0.0003   -0.0010    0.0001   -0.0003
   26 H6     1s         0.3319    0.0961   -0.3103    0.1979    0.2533   -0.3369    0.2215    0.4016    0.3438    0.3013
   27 H6     2s         0.0223    0.0097   -0.0221    0.0211    0.0200   -0.0389    0.0283    0.0648    0.0373    0.0435
   28 H6     2px        0.0000   -0.0000    0.0000    0.0000   -0.0000    0.0000    0.0000    0.0000   -0.0000   -0.0000
   29 H6     2py        0.0000   -0.0000    0.0000   -0.0000    0.0000   -0.0000   -0.0000   -0.0000    0.0000   -0.0000
   30 H6     2pz        0.0003   -0.0008   -0.0006   -0.0012    0.0007    0.0011   -0.0008   -0.0002    0.0001   -0.0000
   31 H7     1s         0.3319   -0.0961   -0.3103   -0.1979    0.2533    0.3369    0.2215   -0.4016    0.3438   -0.3013
   32 H7     2s         0.0223   -0.0097   -0.0221   -0.0211    0.0200    0.0389    0.0283   -0.0648    0.0373   -0.0435
   33 H7     2px        0.0000    0.0000    0.0000    0.0000    0.0000    0.0000    0.0000   -0.0000    0.0000   -0.0000
   34 H7     2py       -0.0000   -0.0000    0.0000    0.0000    0.0000   -0.0000   -0.0000   -0.0000   -0.0000    0.0000
   35 H7     2pz       -0.0003   -0.0008    0.0006   -0.0012   -0.0007    0.0011    0.0008   -0.0002   -0.0001   -0.0000
   36 H8     1s         0.3190   -0.1920   -0.2121   -0.3216    0.0490    0.3792   -0.3956    0.2558   -0.3956    0.0319
   37 H8     2s         0.0219   -0.0110   -0.0197   -0.0252    0.0106    0.0417   -0.0595    0.0372   -0.0453   -0.0015
   38 H8     2px        0.0000    0.0000    0.0000    0.0000   -0.0000    0.0000    0.0000   -0.0000    0.0000   -0.0000
   39 H8     2py       -0.0000   -0.0000    0.0000   -0.0000   -0.0000   -0.0000    0.0000   -0.0000    0.0000    0.0000
   40 H8     2pz        0.0001   -0.0008    0.0010   -0.0004   -0.0014   -0.0008    0.0003   -0.0010   -0.0001   -0.0003
   41 H9     1s         0.2799   -0.3166    0.0760   -0.2388   -0.3679   -0.2356    0.3017    0.0787   -0.2301    0.4110
   42 H9     2s         0.0183   -0.0240    0.0104   -0.0162   -0.0358   -0.0298    0.0473    0.0084   -0.0221    0.0529
   43 H9     2px       -0.0000    0.0000    0.0000    0.0000    0.0000   -0.0000   -0.0000   -0.0000    0.0000   -0.0000
   44 H9     2py       -0.0000    0.0000   -0.0000    0.0000   -0.0000   -0.0000    0.0000   -0.0000    0.0000    0.0000
   45 H9     2pz       -0.0005   -0.0002    0.0012    0.0010   -0.0005   -0.0012   -0.0000    0.0009    0.0001    0.0004
   46 H10    1s         0.2442   -0.3354    0.2095   -0.0650   -0.3132   -0.3421   -0.0515   -0.2830    0.3622   -0.3363
   47 H10    2s         0.0173   -0.0230    0.0115   -0.0125   -0.0348   -0.0366   -0.0018   -0.0480    0.0430   -0.0404
   48 H10    2px       -0.0000    0.0000    0.0000    0.0000   -0.0000   -0.0000    0.0000   -0.0000    0.0000   -0.0000
   49 H10    2py       -0.0000    0.0000    0.0000    0.0000   -0.0000   -0.0000    0.0000    0.0000   -0.0000   -0.0000
   50 H10    2pz       -0.0002   -0.0002    0.0010    0.0014    0.0011    0.0003    0.0005    0.0000    0.0001    0.0003
   51 H11    1s         0.1709   -0.3011    0.3605    0.3372    0.2428    0.1150   -0.3823    0.4470    0.0947   -0.2428
   52 H11    2s         0.0107   -0.0210    0.0298    0.0343    0.0312    0.0194   -0.0483    0.0664    0.0033   -0.0227
   53 H11    2px        0.0000    0.0000   -0.0000    0.0000   -0.0000   -0.0000   -0.0000   -0.0000   -0.0000    0.0000
   54 H11    2py        0.0000    0.0000    0.0000   -0.0000    0.0000   -0.0000   -0.0000   -0.0000    0.0000   -0.0000
   55 H11    2pz       -0.0005    0.0005    0.0001    0.0010    0.0015    0.0012   -0.0005    0.0005   -0.0003   -0.0001
   56 H12    1s         0.1220   -0.2297    0.3090    0.3454    0.3226    0.2228    0.3999   -0.3693   -0.2395    0.3602
   57 H12    2s         0.0090   -0.0172    0.0236    0.0271    0.0262    0.0188    0.0462   -0.0454   -0.0242    0.0388
   58 H12    2px       -0.0000    0.0000   -0.0000    0.0000    0.0000   -0.0000   -0.0000   -0.0000    0.0000    0.0000
   59 H12    2py        0.0000    0.0000    0.0000    0.0000    0.0000    0.0000    0.0000   -0.0000    0.0000   -0.0000
   60 H12    2pz       -0.0006    0.0011   -0.0012   -0.0010   -0.0007   -0.0003   -0.0015    0.0019    0.0004   -0.0009
 
 
      Orbital               11        12        13        14        15        16        17        18        19        20
      Energy            0.0000    0.0000    0.3293    0.3359    0.3478    0.3661    0.3918    0.4257    0.4677    0.5220
      Occ. No.          0.6693    0.6471    0.0000    0.0000    0.0000    0.0000    0.0000    0.0000    0.0000    0.0000
 
    1 H1     1s         0.2820   -0.1528   -0.0552   -0.0898    0.0943   -0.0709   -0.0282    0.0242    0.0733   -0.1131
    2 H1     2s         0.0366   -0.0205    0.1441    0.2628   -0.3462    0.3986    0.4279    0.4402    0.4260   -0.3933
    3 H1     2px        0.0000   -0.0000   -0.0000   -0.0000    0.0000    0.0000    0.0000    0.0000    0.0000   -0.0000
    4 H1     2py        0.0000   -0.0000    0.0000    0.0000   -0.0000    0.0000    0.0000    0.0000   -0.0000   -0.0000
    5 H1     2pz        0.0018   -0.0011   -0.0046   -0.0077    0.0089   -0.0092   -0.0103   -0.0146   -0.0239    0.0420
    6 H2     1s        -0.3980    0.2350   -0.0993   -0.1528    0.1450   -0.0941   -0.0352   -0.0026   -0.0144    0.0686
    7 H2     2s        -0.0651    0.0406    0.1526    0.2466   -0.2530    0.1741    0.0285   -0.1588   -0.3447    0.5058
    8 H2     2px        0.0000   -0.0000   -0.0000   -0.0000    0.0000    0.0000    0.0000    0.0000    0.0000   -0.0000
    9 H2     2py       -0.0000   -0.0000    0.0000   -0.0000    0.0000    0.0000    0.0000   -0.0000    0.0000   -0.0000
   10 H2     2pz        0.0002    0.0000   -0.0002    0.0002   -0.0005   -0.0019   -0.0096   -0.0226   -0.0355    0.0402
   11 H3     1s         0.4450   -0.3266   -0.1149   -0.1428    0.0724    0.0298    0.0834    0.0602    0.0035    0.0114
   12 H3     2s         0.0745   -0.0555    0.1931    0.2619   -0.1618   -0.0568   -0.2868   -0.4115   -0.3414    0.0699
   13 H3     2px        0.0000   -0.0000    0.0000    0.0000    0.0000    0.0000   -0.0000   -0.0000    0.0000   -0.0000
   14 H3     2py       -0.0000   -0.0000   -0.0000    0.0000    0.0000    0.0000   -0.0000   -0.0000    0.0000   -0.0000
   15 H3     2pz        0.0008   -0.0009   -0.0005    0.0002   -0.0007   -0.0010   -0.0030    0.0044    0.0312   -0.0803
   16 H4     1s        -0.4123    0.3817   -0.1316   -0.1255   -0.0010    0.1042    0.0893    0.0133   -0.0021   -0.0597
   17 H4     2s        -0.0675    0.0666    0.2204    0.2222    0.0100   -0.2733   -0.3193   -0.0554    0.3400   -0.5507
   18 H4     2px        0.0000   -0.0000    0.0000    0.0000    0.0000    0.0000    0.0000   -0.0000    0.0000   -0.0000
   19 H4     2py       -0.0000    0.0000   -0.0000    0.0000   -0.0000    0.0000   -0.0000   -0.0000   -0.0000    0.0000
   20 H4     2pz        0.0009   -0.0004   -0.0002    0.0007   -0.0004   -0.0016    0.0025    0.0189    0.0286    0.0111
   21 H5     1s         0.2642   -0.4299   -0.1434   -0.0819   -0.0859    0.1164    0.0005   -0.0557   -0.0032    0.0206
   22 H5     2s         0.0464   -0.0741    0.2389    0.1506    0.1708   -0.3030   -0.0205    0.3738    0.3380    0.2182
   23 H5     2px        0.0000    0.0000    0.0000    0.0000    0.0000    0.0000   -0.0000    0.0000   -0.0000   -0.0000
   24 H5     2py       -0.0000    0.0000   -0.0000   -0.0000   -0.0000    0.0000    0.0000    0.0000   -0.0000    0.0000
   25 H5     2pz       -0.0002   -0.0008   -0.0004    0.0008   -0.0007    0.0011    0.0079    0.0069   -0.0290    0.0720
   26 H6     1s        -0.1154    0.4494   -0.1489   -0.0311   -0.1319    0.0535   -0.0816   -0.0388    0.0030    0.0456
   27 H6     2s        -0.0168    0.0780    0.2487    0.0516    0.2732   -0.1268    0.3091    0.2457   -0.3385    0.4421
   28 H6     2px       -0.0000    0.0000   -0.0000    0.0000    0.0000    0.0000   -0.0000    0.0000   -0.0000    0.0000
   29 H6     2py       -0.0000    0.0000   -0.0000    0.0000    0.0000    0.0000   -0.0000    0.0000    0.0000   -0.0000
   30 H6     2pz        0.0009   -0.0006    0.0001    0.0012    0.0002    0.0015    0.0046   -0.0149   -0.0290   -0.0477
   31 H7     1s        -0.1154   -0.4494   -0.1489    0.0311   -0.1319   -0.0535   -0.0816    0.0388    0.0030   -0.0456
   32 H7     2s        -0.0168   -0.0780    0.2487   -0.0516    0.2732    0.1268    0.3091   -0.2457   -0.3385   -0.4421
   33 H7     2px        0.0000    0.0000   -0.0000   -0.0000    0.0000    0.0000   -0.0000    0.0000   -0.0000    0.0000
   34 H7     2py       -0.0000    0.0000    0.0000    0.0000    0.0000    0.0000    0.0000   -0.0000   -0.0000   -0.0000
   35 H7     2pz       -0.0009   -0.0006   -0.0001    0.0012   -0.0002    0.0015   -0.0046   -0.0149    0.0290   -0.0477
   36 H8     1s         0.2642    0.4299   -0.1434    0.0819   -0.0859   -0.1164    0.0005    0.0557   -0.0032   -0.0206
   37 H8     2s         0.0464    0.0741    0.2389   -0.1506    0.1708    0.3030   -0.0205   -0.3738    0.3380   -0.2182
   38 H8     2px        0.0000    0.0000    0.0000   -0.0000    0.0000    0.0000    0.0000   -0.0000   -0.0000    0.0000
   39 H8     2py       -0.0000   -0.0000    0.0000    0.0000    0.0000   -0.0000    0.0000    0.0000   -0.0000   -0.0000
   40 H8     2pz        0.0002   -0.0008    0.0004    0.0008    0.0007    0.0011   -0.0079    0.0069    0.0290    0.0720
   41 H9     1s        -0.4123   -0.3817   -0.1316    0.1255   -0.0010   -0.1042    0.0893   -0.0133   -0.0021    0.0597
   42 H9     2s        -0.0675   -0.0666    0.2204   -0.2222    0.0100    0.2733   -0.3193    0.0554    0.3400    0.5507
   43 H9     2px       -0.0000    0.0000    0.0000   -0.0000    0.0000    0.0000   -0.0000   -0.0000    0.0000    0.0000
   44 H9     2py       -0.0000   -0.0000    0.0000   -0.0000   -0.0000    0.0000    0.0000    0.0000    0.0000   -0.0000
   45 H9     2pz       -0.0009   -0.0004    0.0002    0.0007    0.0004   -0.0016   -0.0025    0.0189   -0.0286    0.0111
   46 H10    1s         0.4450    0.3266   -0.1149    0.1428    0.0724   -0.0298    0.0834   -0.0602    0.0035   -0.0114
   47 H10    2s         0.0745    0.0555    0.1931   -0.2619   -0.1618    0.0568   -0.2868    0.4115   -0.3414   -0.0699
   48 H10    2px        0.0000   -0.0000    0.0000   -0.0000    0.0000    0.0000    0.0000   -0.0000    0.0000   -0.0000
   49 H10    2py        0.0000   -0.0000    0.0000   -0.0000    0.0000    0.0000    0.0000   -0.0000   -0.0000    0.0000
   50 H10    2pz       -0.0008   -0.0009    0.0005    0.0002    0.0007   -0.0010    0.0030    0.0044   -0.0312   -0.0803
   51 H11    1s        -0.3980   -0.2350   -0.0993    0.1528    0.1450    0.0941   -0.0352    0.0026   -0.0144   -0.0686
   52 H11    2s        -0.0651   -0.0406    0.1526   -0.2466   -0.2530   -0.1741    0.0285    0.1588   -0.3447   -0.5058
   53 H11    2px        0.0000   -0.0000   -0.0000   -0.0000   -0.0000    0.0000    0.0000    0.0000   -0.0000   -0.0000
   54 H11    2py        0.0000   -0.0000   -0.0000   -0.0000    0.0000   -0.0000    0.0000   -0.0000    0.0000    0.0000
   55 H11    2pz       -0.0002    0.0000    0.0002    0.0002    0.0005   -0.0019    0.0096   -0.0226    0.0355    0.0402
   56 H12    1s         0.2820    0.1528   -0.0552    0.0898    0.0943    0.0709   -0.0282   -0.0242    0.0733    0.1131
   57 H12    2s         0.0366    0.0205    0.1441   -0.2628   -0.3462   -0.3986    0.4279   -0.4402    0.4260    0.3933
   58 H12    2px        0.0000   -0.0000    0.0000   -0.0000   -0.0000    0.0000   -0.0000   -0.0000    0.0000   -0.0000
   59 H12    2py        0.0000   -0.0000   -0.0000    0.0000    0.0000    0.0000   -0.0000    0.0000   -0.0000    0.0000
   60 H12    2pz       -0.0018   -0.0011    0.0046   -0.0077   -0.0089   -0.0092    0.0103   -0.0146    0.0239    0.0420
 
 
      Orbital               21        22        23        24        25        26        27        28        29        30
      Energy            0.5824    0.6445    0.6983    0.7487    0.7513    0.8533    0.8533    0.8611    0.8611    0.8737
      Occ. No.          0.0000    0.0000    0.0000    0.0000    0.0000    0.0000    0.0000    0.0000    0.0000    0.0000
 
    1 H1     1s         0.1347   -0.1301   -0.0982    0.1173    0.1062    0.0000   -0.0000   -0.0000    0.0000   -0.0000
    2 H1     2s         0.3486   -0.2769   -0.1819    0.1850    0.1655   -0.0000    0.0000    0.0000    0.0000    0.0000
    3 H1     2px        0.0000   -0.0000   -0.0000   -0.0000   -0.0000    0.0857    0.0205   -0.1679   -0.0367   -0.2422
    4 H1     2py        0.0000    0.0000    0.0000   -0.0000   -0.0000    0.0205   -0.0857    0.0367   -0.1679    0.0496
    5 H1     2pz       -0.0707    0.1071    0.1328   -0.3169   -0.3010   -0.0000   -0.0000    0.0000   -0.0000    0.0000
    6 H2     1s        -0.1347    0.1679    0.1354   -0.1194   -0.1026   -0.0000    0.0000   -0.0000    0.0000    0.0000
    7 H2     2s        -0.5942    0.5576    0.3858   -0.3199   -0.2761    0.0000    0.0000   -0.0000    0.0000   -0.0000
    8 H2     2px        0.0000    0.0000    0.0000   -0.0000   -0.0000    0.1685    0.0403   -0.3013   -0.0658   -0.3681
    9 H2     2py        0.0000   -0.0000   -0.0000    0.0000    0.0000    0.0403   -0.1685    0.0658   -0.3013    0.0754
   10 H2     2pz       -0.0233   -0.0261   -0.0915    0.3448    0.3336    0.0000    0.0000   -0.0000    0.0000   -0.0000
   11 H3     1s         0.0567   -0.1520   -0.1617    0.1180    0.0936   -0.0000   -0.0000   -0.0000   -0.0000   -0.0000
   12 H3     2s         0.2837   -0.5253   -0.4665    0.3162    0.2532    0.0000   -0.0000   -0.0000   -0.0000   -0.0000
   13 H3     2px       -0.0000   -0.0000   -0.0000   -0.0000   -0.0000    0.2415    0.0578   -0.3652   -0.0798   -0.3070
   14 H3     2py        0.0000   -0.0000   -0.0000    0.0000    0.0000    0.0578   -0.2415    0.0798   -0.3652    0.0629
   15 H3     2pz        0.1256   -0.1173   -0.0279   -0.2701   -0.2750   -0.0000   -0.0000    0.0000   -0.0000    0.0000
   16 H4     1s         0.0677    0.0542    0.1492   -0.1013   -0.0687   -0.0000    0.0000   -0.0000    0.0000   -0.0000
   17 H4     2s         0.3234    0.1828    0.4247   -0.2594   -0.1767   -0.0000    0.0000    0.0000    0.0000   -0.0000
   18 H4     2px        0.0000   -0.0000    0.0000   -0.0000   -0.0000    0.2999    0.0717   -0.3447   -0.0753   -0.0912
   19 H4     2py       -0.0000    0.0000   -0.0000    0.0000    0.0000    0.0717   -0.2999    0.0753   -0.3447    0.0187
   20 H4     2pz       -0.1183    0.2171    0.1657    0.1776    0.2066    0.0000   -0.0000   -0.0000   -0.0000   -0.0000
   21 H5     1s        -0.1311    0.0801   -0.1031    0.0831    0.0392   -0.0000   -0.0000   -0.0000   -0.0000    0.0000
   22 H5     2s        -0.6157    0.2657   -0.2931    0.2086    0.0989    0.0000   -0.0000   -0.0000   -0.0000    0.0000
   23 H5     2px        0.0000    0.0000    0.0000   -0.0000   -0.0000    0.3410    0.0816   -0.2444   -0.0534    0.1720
   24 H5     2py       -0.0000   -0.0000   -0.0000    0.0000    0.0000    0.0816   -0.3410    0.0534   -0.2444   -0.0352
   25 H5     2pz       -0.0018   -0.2049   -0.2786   -0.0979   -0.1594   -0.0000    0.0000    0.0000    0.0000    0.0000
   26 H6     1s         0.0666   -0.1700    0.0371   -0.0732   -0.0128    0.0000   -0.0000   -0.0000    0.0000   -0.0000
   27 H6     2s         0.3035   -0.5767    0.1035   -0.1822   -0.0314    0.0000    0.0000   -0.0000    0.0000   -0.0000
   28 H6     2px       -0.0000    0.0000   -0.0000    0.0000    0.0000    0.3620    0.0866   -0.0885   -0.0193    0.3471
   29 H6     2py       -0.0000   -0.0000    0.0000    0.0000    0.0000    0.0866   -0.3620    0.0193   -0.0885   -0.0711
   30 H6     2pz        0.1196    0.0832    0.3411    0.0311    0.1367    0.0000   -0.0000   -0.0000   -0.0000   -0.0000
   31 H7     1s         0.0666    0.1700    0.0371    0.0732   -0.0128    0.0000    0.0000    0.0000    0.0000    0.0000
   32 H7     2s         0.3035    0.5767    0.1035    0.1822   -0.0314   -0.0000    0.0000    0.0000   -0.0000    0.0000
   33 H7     2px       -0.0000   -0.0000    0.0000    0.0000   -0.0000    0.3620    0.0866    0.0885    0.0193    0.3471
   34 H7     2py        0.0000   -0.0000   -0.0000    0.0000    0.0000    0.0866   -0.3620   -0.0193    0.0885   -0.0711
   35 H7     2pz       -0.1196    0.0832   -0.3411    0.0311   -0.1367    0.0000    0.0000    0.0000    0.0000   -0.0000
   36 H8     1s        -0.1311   -0.0801   -0.1031   -0.0831    0.0392    0.0000   -0.0000    0.0000    0.0000   -0.0000
   37 H8     2s        -0.6157   -0.2657   -0.2931   -0.2086    0.0989   -0.0000   -0.0000   -0.0000    0.0000   -0.0000
   38 H8     2px       -0.0000   -0.0000    0.0000    0.0000   -0.0000    0.3410    0.0816    0.2444    0.0534    0.1720
   39 H8     2py       -0.0000   -0.0000   -0.0000   -0.0000    0.0000    0.0816   -0.3410   -0.0534    0.2444   -0.0352
   40 H8     2pz        0.0018   -0.2049    0.2786   -0.0979    0.1594   -0.0000    0.0000   -0.0000   -0.0000    0.0000
   41 H9     1s         0.0677   -0.0542    0.1492    0.1013   -0.0687    0.0000    0.0000    0.0000   -0.0000    0.0000
   42 H9     2s         0.3234   -0.1828    0.4247    0.2594   -0.1767   -0.0000    0.0000    0.0000    0.0000    0.0000
   43 H9     2px        0.0000   -0.0000    0.0000    0.0000   -0.0000    0.2999    0.0717    0.3447    0.0753   -0.0912
   44 H9     2py       -0.0000   -0.0000    0.0000    0.0000   -0.0000    0.0717   -0.2999   -0.0753    0.3447    0.0187
   45 H9     2pz        0.1183    0.2171   -0.1657    0.1776   -0.2066    0.0000   -0.0000   -0.0000    0.0000   -0.0000
   46 H10    1s         0.0567    0.1520   -0.1617   -0.1180    0.0936   -0.0000   -0.0000    0.0000   -0.0000   -0.0000
   47 H10    2s         0.2837    0.5253   -0.4665   -0.3162    0.2532   -0.0000   -0.0000   -0.0000    0.0000   -0.0000
   48 H10    2px       -0.0000   -0.0000    0.0000   -0.0000   -0.0000    0.2415    0.0578    0.3652    0.0798   -0.3070
[...]
   44 H9     2py        0.0000   -0.0000   -0.0000   -0.0000    0.0000    0.0000   -0.0000   -0.0000    0.0000   -0.0000
   45 H9     2pz       -0.3210   -0.0263    0.4112    0.1977   -0.2011    0.4351   -0.2915   -0.1182   -0.4413    0.3893
   46 H10    1s         0.2189   -0.3734   -0.2565   -0.0970    0.0097   -0.0551    0.0512   -0.0192    0.0103   -0.0162
   47 H10    2s         0.4655   -0.7694   -0.5260   -0.1890    0.0082   -0.0685    0.0514   -0.0108    0.0162   -0.0173
   48 H10    2px       -0.0000    0.0000   -0.0000    0.0000   -0.0000    0.0000   -0.0000   -0.0000   -0.0000   -0.0000
   49 H10    2py       -0.0000    0.0000   -0.0000    0.0000   -0.0000    0.0000   -0.0000   -0.0000    0.0000    0.0000
   50 H10    2pz        0.0489    0.1557   -0.2219   -0.4156   -0.4136    0.2076    0.1094   -0.3792   -0.4619    0.3106
   51 H11    1s        -0.1953    0.2185    0.2748    0.2175    0.1572   -0.1008    0.0498   -0.0114    0.0087   -0.0103
   52 H11    2s        -0.4118    0.4473    0.5646    0.4240    0.2813   -0.1662    0.0822   -0.0307   -0.0055   -0.0018
   53 H11    2px        0.0000   -0.0000    0.0000   -0.0000    0.0000    0.0000   -0.0000    0.0000    0.0000    0.0000
   54 H11    2py        0.0000   -0.0000    0.0000    0.0000    0.0000   -0.0000   -0.0000    0.0000   -0.0000   -0.0000
   55 H11    2pz        0.1869   -0.2095   -0.2097   -0.0488    0.1449   -0.3224    0.4406   -0.4660   -0.3874    0.2194
   56 H12    1s         0.0750   -0.0739   -0.1124   -0.1047   -0.0964    0.0889   -0.0794    0.0662    0.0481   -0.0254
   57 H12    2s         0.1572   -0.1418   -0.2395   -0.2269   -0.2022    0.1721   -0.1380    0.1029    0.0681   -0.0338
   58 H12    2px       -0.0000    0.0000   -0.0000    0.0000    0.0000   -0.0000    0.0000   -0.0000   -0.0000    0.0000
   59 H12    2py       -0.0000    0.0000   -0.0000   -0.0000   -0.0000   -0.0000   -0.0000   -0.0000   -0.0000   -0.0000
   60 H12    2pz       -0.1923    0.1344    0.3268    0.3721    0.3914   -0.3845    0.3484   -0.2869   -0.2041    0.1060
--
 
      Von Neumann Entropy (Root  1) =  5.68820
 

      Mulliken population analysis for root number:  1
      -----------------------------------------------
 
 
++    Molecular charges:
      ------------------
 
      Mulliken charges per centre and basis function type
      ---------------------------------------------------
 
                H1      H2      H3      H4      H5      H6      H7      H8      H9      H10     H11     H12   
      1s       0.9922  1.0014  1.0020  1.0016  1.0018  1.0017  1.0017  1.0018  1.0016  1.0020  1.0014  0.9922
      2s       0.0060  0.0002 -0.0024 -0.0018 -0.0021 -0.0020 -0.0020 -0.0021 -0.0018 -0.0024  0.0002  0.0060
      2px      0.0000  0.0000  0.0000  0.0000  0.0000  0.0000  0.0000  0.0000  0.0000  0.0000  0.0000  0.0000
      2pz      0.0000  0.0003  0.0003  0.0003  0.0003  0.0003  0.0003  0.0003  0.0003  0.0003  0.0003  0.0000
      2py      0.0000  0.0000  0.0000  0.0000  0.0000  0.0000  0.0000  0.0000  0.0000  0.0000  0.0000  0.0000
      Total    0.9981  1.0019  0.9999  1.0000  1.0000  1.0000  1.0000  1.0000  1.0000  0.9999  1.0019  0.9981
 
      N-E      0.0019 -0.0019  0.0001 -0.0000  0.0000 -0.0000 -0.0000  0.0000 -0.0000  0.0001 -0.0019  0.0019
 
      Total electronic charge=   12.000000
 
      Total            charge=   -0.000000
--
 
 

      Expectation values of various properties for root number:  1
      -----------------------------------------------------------
 
 
++    Molecular properties:
      ---------------------
 
      Charge (e):
                      =   -0.0000
      Dipole Moment (Debye):
      Origin of the operator (Ang)=    0.0000    0.0000    0.0000
                   X=  7.4258E-13               Y= -8.0860E-14               Z=  5.9960E-11           Total=  5.9964E-11
      Quadrupole Moment (Debye*Ang):
      Origin of the operator (Ang)=    0.0000    0.0000   14.1000
                  XX= -1.8236E+01              XY= -8.9304E-28              XZ=  7.6944E-13              YY= -1.8236E+01
                  YZ=  2.2317E-12              ZZ= -1.7692E+01
      In traceless form (Debye*Ang)
                  XX= -2.7207E-01              XY= -1.3396E-27              XZ=  1.1542E-12              YY= -2.7207E-01
                  YZ=  3.3476E-12              ZZ=  5.4415E-01
--
 

      LoProp population analysis for root number:  1
      -----------------------------------------------
 
 
++    LoProp analysis:
      ----------------
 
 
 
  Input file to MOLDEN was generated!
 
 
++    Static properties:
      ------------------
 
 
      LoProp Charges per center
 

                   H1       H2       H3       H4       H5       H6       H7       H8       H9       H10   
      Nuclear      1.0000   1.0000   1.0000   1.0000   1.0000   1.0000   1.0000   1.0000   1.0000   1.0000
      Electronic  -1.0001  -0.9999  -1.0000  -1.0000  -1.0000  -1.0000  -1.0000  -1.0000  -1.0000  -1.0000
 
      Total       -0.0001   0.0001   0.0000  -0.0000   0.0000  -0.0000  -0.0000   0.0000  -0.0000   0.0000
 

                   H11      H12   
      Nuclear      1.0000   1.0000
      Electronic  -0.9999  -1.0001
 
      Total        0.0001  -0.0001
--
 
 
      Natural Bond Order analysis for root number:  1
 
++    Natural Bond Order analysis
      ---------------------------
      Based on LoProp computed density
      -------------------------------------------------------------------------------------
      Atom A       Atom B       Bond Order
      -------------------------------------------------------------------------------------
      The remaining   12.000 electrons are to be considered as diffuse
--
 
--
 
 
  Input file to MOLDEN was generated!
 
      Average orbitals are written to the RASORB file
      Natural orbitals for root   1 are written to the RASORB.1 file
      Spin density orbitals for root   1 are written to the SPDORB.1 file
 
--- Stop Module: rasscf at Tue Nov 19 07:06:09 2024 /rc=_RC_ALL_IS_WELL_ ---
*** files: H12_2.56.LprOrb H12_2.56.rasscf.molden H12_2.56.LoProp.molden H12_2.56.RasOrb H12_2.56.RasOrb.1 H12_2.56.rasscf.h5 H12_2.56.SpdOrb.1 xmldump
    saved to directory /home/grierjones/DDCASPT2/hydrogen_comps/H12_chain/H12_2.56
--- Module rasscf spent 8 minutes 0 seconds ---

>>> COPY /tmp/H12_2.56/H12_2.56.rasscf.h5 /home/grierjones/DDCASPT2/hydrogen_comps/H12_chain/H12_2.56/

>>> COPY /tmp/H12_2.56/GMJ_Fock_MO.csv /home/grierjones/DDCASPT2/hydrogen_comps/H12_chain/H12_2.56/H12_2.56.GMJ_Fock_MO.csv

>>> COPY /tmp/H12_2.56/GMJ_PT2_Fock_MO.csv /home/grierjones/DDCASPT2/hydrogen_comps/H12_chain/H12_2.56/H12_2.56.GMJ_PT2_Fock_MO.csv

*** symbolic link created: INPORB -> H12_2.56.RasOrb
--- Start Module: motra at Tue Nov 19 07:06:09 2024 ---
 
()()()()()()()()()()()()()()()()()()()()()()()()()()()()()()()()()()()()()()()()()()()()()()()()()()

                                               &MOTRA

                                   only a single process is used
                       available to each process: 2.0 GB of memory, 1 thread?
()()()()()()()()()()()()()()()()()()()()()()()()()()()()()()()()()()()()()()()()()()()()()()()()()()
 
 
      *** WARNING: Default frozen orbitals is overwritten by user input.
      *** Default values:   0
 
      Header of the integral files:
      
       Integrals generated by seward 4.2.0  , Tue Nov 19 06:58:07 2024
 
 
      Header of MO coefficients source file:
      * RASSCF average (pseudo-natural) orbitals                                      
 
 
      Cartesian coordinates in Angstrom:
      -----------------------------------------------------
      No.  Label        X            Y            Z        
      -----------------------------------------------------
       1   H1         0.00000000   0.00000000   0.00000000
       2   H2         0.00000000   0.00000000   2.56363600
       3   H3         0.00000000   0.00000000   5.12727300
       4   H4         0.00000000   0.00000000   7.69090900
       5   H5         0.00000000   0.00000000  10.25454500
       6   H6         0.00000000   0.00000000  12.81818200
       7   H7         0.00000000   0.00000000  15.38181800
       8   H8         0.00000000   0.00000000  17.94545500
       9   H9         0.00000000   0.00000000  20.50909100
      10   H10        0.00000000   0.00000000  23.07272700
      11   H11        0.00000000   0.00000000  25.63636400
      12   H12        0.00000000   0.00000000  28.20000000
      -----------------------------------------------------
      Nuclear repulsion energy =    5.20965221
 
      Orbital specifications:
      -----------------------
 
      Symmetry species:              1
      Number of basis functions:    60
      Frozen orbitals:               0
      Deleted orbitals:              0
      Number of orbitals used:      60

       SYMMETRY  BASIS FUNCTIONS       ORBITALS      INTEGRALS   CPU(SEC)  I/O(SEC)
 
        1 1 1 1   60  60  60  60    60  60  60  60     1675365       0.00      0.00

       TOTAL CPU TIME(SEC)    0.77TOTAL I/O TIME(SEC)    2.17
 
--- Stop Module: motra at Tue Nov 19 07:06:11 2024 /rc=_RC_ALL_IS_WELL_ ---
*** files: xmldump
    saved to directory /home/grierjones/DDCASPT2/hydrogen_comps/H12_chain/H12_2.56
--- Module motra spent 2 seconds ---

>>> COPY /tmp/H12_2.56/GMJ_one_int_indx.csv /home/grierjones/DDCASPT2/hydrogen_comps/H12_chain/H12_2.56/H12_2.56.GMJ_one_int_indx.csv

>>> COPY /tmp/H12_2.56/GMJ_one_int.csv /home/grierjones/DDCASPT2/hydrogen_comps/H12_chain/H12_2.56/H12_2.56.GMJ_one_int.csv

>>> COPY /tmp/H12_2.56/GMJ_two_int_indx.csv /home/grierjones/DDCASPT2/hydrogen_comps/H12_chain/H12_2.56/H12_2.56.GMJ_two_int_indx.csv

>>> COPY /tmp/H12_2.56/GMJ_two_int.csv /home/grierjones/DDCASPT2/hydrogen_comps/H12_chain/H12_2.56/H12_2.56.GMJ_two_int.csv

*** symbolic link created: INPORB -> H12_2.56.RasOrb
--- Start Module: caspt2 at Tue Nov 19 07:06:11 2024 ---
 
()()()()()()()()()()()()()()()()()()()()()()()()()()()()()()()()()()()()()()()()()()()()()()()()()()

                                              &CASPT2

                                   only a single process is used
                       available to each process: 2.0 GB of memory, 1 thread?
()()()()()()()()()()()()()()()()()()()()()()()()()()()()()()()()()()()()()()()()()()()()()()()()()()
 
 Cholesky algorithm in CASPT2 =    1
 
 ###############################################################################
 ###############################################################################
 ###                                                                         ###
 ###                                                                         ###
 ###    User changed nr of frozen orbitals.                                  ###
 ###                                                                         ###
 ###                                                                         ###
 ###############################################################################
 ###############################################################################
 
++    Wave function specifications:
      -----------------------------
 
      Number of closed shell electrons           0
      Number of electrons in active shells      12
      Max number of holes in RAS1 space          0
      Max number of electrons in RAS3 space      0
      Number of inactive orbitals                0
      Number of active orbitals                 12
      Number of secondary orbitals              48
      Spin quantum number                      0.0
      State symmetry                             1
      Number of CSFs                        226512
      Number of root(s) available                1
      Root passed to geometry opt.               1
      A file JOBMIX will be created.
      This is a CASSCF or RASSCF reference function
--
 
++    Orbital specifications:
      -----------------------
 
      Symmetry species                           1
                                                 a
      Frozen orbitals                            0
      Inactive orbitals                          0
      Active orbitals                           12
      Secondary orbitals                        48
      Deleted orbitals                           0
      Number of basis functions                 60
--
 
      Type of Fock operator: STANDARD
      Type of 0-order Hamiltonian: STANDARD WITH DEFAULT IPEA
        "IP-EA" denominator shift =      0.25
      The input orbitals and the CI vector will be transformed.
 
--------------------------------------------------------------------------------
 Estimated memory requirements:
  POLY3 :                 54392696
  RHS:                     1916944
  SIGMA :                   616912
  PRPCTL:                        0
 Available workspace:    230179958
 
++ CASPT2 computation for group   1
 
********************************************************************************
 Multi-State initialization phase begins for group   1
--------------------------------------------------------------------------------
********************************************************************************
 Compute H0 matrices for state    1
--------------------------------------------------------------------------------
--------------------------------------------------------------------------------
 H0 matrices have been computed.
 
********************************************************************************
  CASPT2 EQUATION SOLUTION
--------------------------------------------------------------------------------
 
  Total nr of CASPT2 parameters:
   Before reduction:      249120
   After  reduction:      248160
 
 The contributions to the second order correlation energy in atomic units.
-----------------------------------------------------------------------------------------------------------------------------
  IT.      VJTU        VJTI        ATVX        AIVX        VJAI        BVAT        BJAT        BJAI        TOTAL       RNORM  
-----------------------------------------------------------------------------------------------------------------------------
   1     0.000000    0.000000   -0.001283    0.000000    0.000000   -0.003131    0.000000    0.000000   -0.004414    0.000965
   2     0.000000    0.000000   -0.001295    0.000000    0.000000   -0.003134    0.000000    0.000000   -0.004430    0.000205
   3     0.000000    0.000000   -0.001299    0.000000    0.000000   -0.003135    0.000000    0.000000   -0.004434    0.000066
   4     0.000000    0.000000   -0.001297    0.000000    0.000000   -0.003135    0.000000    0.000000   -0.004433    0.000015
   5     0.000000    0.000000   -0.001297    0.000000    0.000000   -0.003135    0.000000    0.000000   -0.004433    0.000004
-------------------------------------------------------------------------------------------------------------------
 
  FINAL CASPT2 RESULT:
 
  Correlation energy /Case, /Symm, and sums:
 VJTU      0.00000000  0.00000000
 VJTIP     0.00000000  0.00000000
 VJTIM     0.00000000  0.00000000
 ATVX     -0.00129735 -0.00129735
 AIVX      0.00000000  0.00000000
 VJAIP     0.00000000  0.00000000
 VJAIM     0.00000000  0.00000000
 BVATP    -0.00281244 -0.00281244
 BVATM    -0.00032279 -0.00032279
 BJATP     0.00000000  0.00000000
 BJATM     0.00000000  0.00000000
 BJAIP     0.00000000  0.00000000
 BJAIM     0.00000000  0.00000000
 Summed:  -0.00443257 -0.00443257
 
      Reference energy:          -6.0006199787
      E2 (Non-variational):      -0.0044325747
      E2 (Variational):          -0.0044325739
      Total energy:              -6.0050525526
      Residual norm:              0.0000007239
      Reference weight:           0.99707
 
      Contributions to the CASPT2 correlation energy
      Active & Virtual Only:         -0.0044325747
      One Inactive Excited:           0.0000000000
      Two Inactive Excited:           0.0000000000
 
 
++ Denominators, etc.
----------------------------------------------------------------------------------------------------
 Report on small energy denominators, large coefficients, and large energy contributions.
CASE  SYMM ACTIVE-MIX  NON-ACTIVE INDICES          DENOMINATOR     RHS VALUE       COEFFICIENT     CONTRIBUTION
--
 
   (Skipping property calculation,
    use PROP keyword to activate)
--
 
  Total CASPT2 energies:
::    CASPT2 Root  1     Total energy:     -6.00505255
 
  A NEW JOBIPH FILE NAMED 'JOBMIX' IS PREPARED.
********************************************************************************
--- Stop Module: caspt2 at Tue Nov 19 07:07:11 2024 /rc=_RC_ALL_IS_WELL_ ---
*** files: xmldump
    saved to directory /home/grierjones/DDCASPT2/hydrogen_comps/H12_chain/H12_2.56
--- Module caspt2 spent 59 seconds ---

>>> EXPORT i = B

>>> EXPORT j = P

>>> IF (-FILE GMJ_e2_${i}_${j}.csv)
(Skipped)

>>> END FOREACH

>>> EXPORT j = M

>>> IF (-FILE GMJ_e2_${i}_${j}.csv)
(Skipped)

>>> END FOREACH

>>> END FOREACH

>>> EXPORT i = E

>>> EXPORT j = P

>>> IF (-FILE GMJ_e2_${i}_${j}.csv)
(Skipped)

>>> END FOREACH

>>> EXPORT j = M

>>> IF (-FILE GMJ_e2_${i}_${j}.csv)
(Skipped)

>>> END FOREACH

>>> END FOREACH

>>> EXPORT i = F

>>> EXPORT j = P

>>> IF (-FILE GMJ_e2_${i}_${j}.csv)

>>> COPY /tmp/H12_2.56/GMJ_RHS_F_P.csv /home/grierjones/DDCASPT2/hydrogen_comps/H12_chain/H12_2.56/GMJ_RHS_F_P.csv

>>> COPY /tmp/H12_2.56/GMJ_IVECW_F_P.csv /home/grierjones/DDCASPT2/hydrogen_comps/H12_chain/H12_2.56/GMJ_IVECW_F_P.csv

>>> COPY /tmp/H12_2.56/GMJ_IVECX_F_P.csv /home/grierjones/DDCASPT2/hydrogen_comps/H12_chain/H12_2.56/GMJ_IVECX_F_P.csv

>>> COPY /tmp/H12_2.56/GMJ_IVECC2_F_P.csv /home/grierjones/DDCASPT2/hydrogen_comps/H12_chain/H12_2.56/GMJ_IVECC2_F_P.csv

>>> COPY /tmp/H12_2.56/GMJ_e2_F_P.csv /home/grierjones/DDCASPT2/hydrogen_comps/H12_chain/H12_2.56/GMJ_e2_F_P.csv

>>> END FOREACH

>>> EXPORT j = M

>>> IF (-FILE GMJ_e2_${i}_${j}.csv)

>>> COPY /tmp/H12_2.56/GMJ_RHS_F_M.csv /home/grierjones/DDCASPT2/hydrogen_comps/H12_chain/H12_2.56/GMJ_RHS_F_M.csv

>>> COPY /tmp/H12_2.56/GMJ_IVECW_F_M.csv /home/grierjones/DDCASPT2/hydrogen_comps/H12_chain/H12_2.56/GMJ_IVECW_F_M.csv

>>> COPY /tmp/H12_2.56/GMJ_IVECX_F_M.csv /home/grierjones/DDCASPT2/hydrogen_comps/H12_chain/H12_2.56/GMJ_IVECX_F_M.csv

>>> COPY /tmp/H12_2.56/GMJ_IVECC2_F_M.csv /home/grierjones/DDCASPT2/hydrogen_comps/H12_chain/H12_2.56/GMJ_IVECC2_F_M.csv

>>> COPY /tmp/H12_2.56/GMJ_e2_F_M.csv /home/grierjones/DDCASPT2/hydrogen_comps/H12_chain/H12_2.56/GMJ_e2_F_M.csv

>>> END FOREACH

>>> END FOREACH

>>> EXPORT i = G

>>> EXPORT j = P

>>> IF (-FILE GMJ_e2_${i}_${j}.csv)
(Skipped)

>>> END FOREACH

>>> EXPORT j = M

>>> IF (-FILE GMJ_e2_${i}_${j}.csv)
(Skipped)

>>> END FOREACH

>>> END FOREACH

>>> EXPORT i = H

>>> EXPORT j = P

>>> IF (-FILE GMJ_e2_${i}_${j}.csv)
(Skipped)

>>> END FOREACH

>>> EXPORT j = M

>>> IF (-FILE GMJ_e2_${i}_${j}.csv)
(Skipped)

>>> END FOREACH

>>> END FOREACH

>>> EXPORT i = A

>>> IF (-FILE GMJ_e2_$i.csv)
(Skipped)

>>> END FOREACH

>>> EXPORT i = C

>>> IF (-FILE GMJ_e2_$i.csv)

>>> COPY /tmp/H12_2.56/GMJ_RHS_C.csv /home/grierjones/DDCASPT2/hydrogen_comps/H12_chain/H12_2.56/GMJ_RHS_C.csv

>>> COPY /tmp/H12_2.56/GMJ_IVECW_C.csv /home/grierjones/DDCASPT2/hydrogen_comps/H12_chain/H12_2.56/GMJ_IVECW_C.csv

>>> COPY /tmp/H12_2.56/GMJ_IVECX_C.csv /home/grierjones/DDCASPT2/hydrogen_comps/H12_chain/H12_2.56/GMJ_IVECX_C.csv

>>> COPY /tmp/H12_2.56/GMJ_IVECC2_C.csv /home/grierjones/DDCASPT2/hydrogen_comps/H12_chain/H12_2.56/GMJ_IVECC2_C.csv

>>> COPY /tmp/H12_2.56/GMJ_e2_C.csv /home/grierjones/DDCASPT2/hydrogen_comps/H12_chain/H12_2.56/GMJ_e2_C.csv

>>> END FOREACH

>>> EXPORT i = D

>>> IF (-FILE GMJ_e2_$i.csv)
(Skipped)

>>> END FOREACH

.########################.
.# Non-zero return code #.
.########################.

    Timing: Wall=544.19 User=538.88 System=5.20
****************************************
*** WorkDir at /tmp/H12_2.56 cleaned ***
****************************************
