[Molden Format]
[N_Atoms]
                     2
[Atoms] (AU)
LI1         1      3           0.00000000      0.00000000      0.00000000
LI2         2      3           0.00000000      0.00000000      3.40150702
[Charge] (Mulliken)
   1.00051984436352     
  0.999480155636483     
[GTO] (AU)
   1
   s  14
  9.497934400E+03  9.668999974E-05
  1.416811200E+03  6.087099984E-04
  3.214599400E+02  3.101519992E-03
  9.112416300E+01  1.266904997E-02
  2.999989100E+01  4.248012989E-02
  1.101763100E+01  1.150183297E-01
  4.372801000E+00  2.398650094E-01
  1.831256000E+00  3.584300090E-01
  8.022610000E-01  3.048527792E-01
  3.626480000E-01  8.824261976E-02
  1.139950000E-01 -8.445899977E-04
  5.123700000E-02 -7.943959979E-03
  2.246800000E-02 -3.764419990E-03
  7.860000000E-03 -8.868999976E-05
   s  14
  9.497934400E+03 -1.244999993E-05
  1.416811200E+03 -7.838999954E-05
  3.214599400E+02 -4.007099976E-04
  9.112416300E+01 -1.645249990E-03
  2.999989100E+01 -5.634599967E-03
  1.101763100E+01 -1.590780991E-02
  4.372801000E+00 -3.612581979E-02
  1.831256000E+00 -6.459927962E-02
  8.022610000E-01 -1.008321794E-01
  3.626480000E-01 -9.757613942E-02
  1.139950000E-01  2.301215886E-01
  5.123700000E-02  6.102389764E-01
  2.246800000E-02  2.849406083E-01
  7.860000000E-03  4.026899976E-03
   p   9
  1.311950400E+01  1.524940000E-03
  3.077424200E+00  8.314830000E-03
  1.098800500E+00  1.933203000E-02
  4.357784000E-01  4.934293000E-02
  1.802432000E-01  1.623554000E-01
  7.613330000E-02  3.847505400E-01
  3.254650000E-02  4.336100400E-01
  1.401820000E-02  1.287005900E-01
  4.906400000E-03 -1.018520000E-03
 
   2
   s  14
  9.497934400E+03  9.668999974E-05
  1.416811200E+03  6.087099984E-04
  3.214599400E+02  3.101519992E-03
  9.112416300E+01  1.266904997E-02
  2.999989100E+01  4.248012989E-02
  1.101763100E+01  1.150183297E-01
  4.372801000E+00  2.398650094E-01
  1.831256000E+00  3.584300090E-01
  8.022610000E-01  3.048527792E-01
  3.626480000E-01  8.824261976E-02
  1.139950000E-01 -8.445899977E-04
  5.123700000E-02 -7.943959979E-03
  2.246800000E-02 -3.764419990E-03
  7.860000000E-03 -8.868999976E-05
   s  14
  9.497934400E+03 -1.244999993E-05
  1.416811200E+03 -7.838999954E-05
  3.214599400E+02 -4.007099976E-04
  9.112416300E+01 -1.645249990E-03
  2.999989100E+01 -5.634599967E-03
  1.101763100E+01 -1.590780991E-02
  4.372801000E+00 -3.612581979E-02
  1.831256000E+00 -6.459927962E-02
  8.022610000E-01 -1.008321794E-01
  3.626480000E-01 -9.757613942E-02
  1.139950000E-01  2.301215886E-01
  5.123700000E-02  6.102389764E-01
  2.246800000E-02  2.849406083E-01
  7.860000000E-03  4.026899976E-03
   p   9
  1.311950400E+01  1.524940000E-03
  3.077424200E+00  8.314830000E-03
  1.098800500E+00  1.933203000E-02
  4.357784000E-01  4.934293000E-02
  1.802432000E-01  1.623554000E-01
  7.613330000E-02  3.847505400E-01
  3.254650000E-02  4.336100400E-01
  1.401820000E-02  1.287005900E-01
  4.906400000E-03 -1.018520000E-03
 
[MO]
Sym=     1a  
Ene=    -3.0874
Spin= Alpha
Occup=    2.00000
   1         0.00484887
   2        -0.00844638
   3        -0.00000000
   4         0.00000000
   5        -0.00071312
   6         1.00111414
   7         0.01887290
   8         0.00000000
   9         0.00000000
  10        -0.00807801
Sym=     2a  
Ene=    -3.0872
Spin= Alpha
Occup=    1.99996
   1        -1.00104789
   2        -0.01843765
   3        -0.00000000
   4        -0.00000000
   5        -0.00782090
   6         0.01641879
   7         0.00808719
   8        -0.00000000
   9         0.00000000
  10        -0.00044101
Sym=     3a  
Ene=    -0.0013
Spin= Alpha
Occup=    0.00004
   1        -0.92404891
   2        -3.30846989
   3         0.00000000
   4         0.00000000
   5        -1.45270892
   6         0.71621377
   7         3.81610377
   8         0.00000000
   9        -0.00000000
  10        -2.08203036
Sym=     4a  
Ene=    -0.3494
Spin= Alpha
Occup=    0.00000
   1        -0.00299077
   2        -0.01635825
   3        -0.00000000
   4         0.00000000
   5         0.53449385
   6        -0.11180707
   7         0.49776979
   8        -0.00000000
   9         0.00000000
  10         0.33374758
Sym=     5a  
Ene=    -0.3458
Spin= Alpha
Occup=    0.00000
   1         0.00000000
   2         0.00000000
   3        -0.53631224
   4        -0.04739460
   5        -0.00000000
   6         0.00000000
   7        -0.00000000
   8        -0.53620371
   9        -0.04738501
  10        -0.00000000
Sym=     6a  
Ene=    -0.3458
Spin= Alpha
Occup=    0.00000
   1        -0.00000000
   2         0.00000000
   3        -0.04739460
   4         0.53631224
   5        -0.00000000
   6         0.00000000
   7        -0.00000000
   8        -0.04738501
   9         0.53620371
  10        -0.00000000
Sym=     7a  
Ene=    -0.2876
Spin= Alpha
Occup=    0.00000
   1        -0.13176366
   2        -0.62191932
   3         0.00000000
   4        -0.00000000
   5         0.88562889
   6        -0.09258690
   7        -0.29237018
   8        -0.00000000
   9         0.00000000
  10        -0.86775574
Sym=     8a  
Ene=    -0.2357
Spin= Alpha
Occup=    0.00000
   1        -0.00000000
   2        -0.00000000
   3        -0.21678444
   4         1.33137953
   5        -0.00000000
   6         0.00000000
   7         0.00000000
   8         0.21679143
   9        -1.33142245
  10        -0.00000000
Sym=     9a  
Ene=    -0.2357
Spin= Alpha
Occup=    0.00000
   1         0.00000000
   2         0.00000000
   3        -1.33137953
   4        -0.21678444
   5         0.00000000
   6        -0.00000000
   7        -0.00000000
   8         1.33142245
   9         0.21679143
  10        -0.00000000
Sym=    10a  
Ene=     0.0621
Spin= Alpha
Occup=    0.00000
   1        -1.04439750
   2        -5.52561087
   3        -0.00000000
   4        -0.00000000
   5        -2.33589020
   6         1.19481761
   7         5.19321541
   8        -0.00000000
   9         0.00000000
  10        -1.85405684
