[Molden Format]
[N_Atoms]
                     2
[Atoms] (AU)
LI1         1      3           0.00000000      0.00000000      0.00000000
LI2         2      3           0.00000000      0.00000000      3.40150702
[Charge] (Mulliken)
  7.891465259035613E-013
 -7.891465259035613E-013
[GTO] (AU)
   1
   s  14
  9.497934400E+03  9.668999974E-05
  1.416811200E+03  6.087099984E-04
  3.214599400E+02  3.101519992E-03
  9.112416300E+01  1.266904997E-02
  2.999989100E+01  4.248012989E-02
  1.101763100E+01  1.150183297E-01
  4.372801000E+00  2.398650094E-01
  1.831256000E+00  3.584300090E-01
  8.022610000E-01  3.048527792E-01
  3.626480000E-01  8.824261976E-02
  1.139950000E-01 -8.445899977E-04
  5.123700000E-02 -7.943959979E-03
  2.246800000E-02 -3.764419990E-03
  7.860000000E-03 -8.868999976E-05
   s  14
  9.497934400E+03 -1.244999993E-05
  1.416811200E+03 -7.838999954E-05
  3.214599400E+02 -4.007099976E-04
  9.112416300E+01 -1.645249990E-03
  2.999989100E+01 -5.634599967E-03
  1.101763100E+01 -1.590780991E-02
  4.372801000E+00 -3.612581979E-02
  1.831256000E+00 -6.459927962E-02
  8.022610000E-01 -1.008321794E-01
  3.626480000E-01 -9.757613942E-02
  1.139950000E-01  2.301215886E-01
  5.123700000E-02  6.102389764E-01
  2.246800000E-02  2.849406083E-01
  7.860000000E-03  4.026899976E-03
   p   9
  1.311950400E+01  1.524940000E-03
  3.077424200E+00  8.314830000E-03
  1.098800500E+00  1.933203000E-02
  4.357784000E-01  4.934293000E-02
  1.802432000E-01  1.623554000E-01
  7.613330000E-02  3.847505400E-01
  3.254650000E-02  4.336100400E-01
  1.401820000E-02  1.287005900E-01
  4.906400000E-03 -1.018520000E-03
 
   2
   s  14
  9.497934400E+03  9.668999974E-05
  1.416811200E+03  6.087099984E-04
  3.214599400E+02  3.101519992E-03
  9.112416300E+01  1.266904997E-02
  2.999989100E+01  4.248012989E-02
  1.101763100E+01  1.150183297E-01
  4.372801000E+00  2.398650094E-01
  1.831256000E+00  3.584300090E-01
  8.022610000E-01  3.048527792E-01
  3.626480000E-01  8.824261976E-02
  1.139950000E-01 -8.445899977E-04
  5.123700000E-02 -7.943959979E-03
  2.246800000E-02 -3.764419990E-03
  7.860000000E-03 -8.868999976E-05
   s  14
  9.497934400E+03 -1.244999993E-05
  1.416811200E+03 -7.838999954E-05
  3.214599400E+02 -4.007099976E-04
  9.112416300E+01 -1.645249990E-03
  2.999989100E+01 -5.634599967E-03
  1.101763100E+01 -1.590780991E-02
  4.372801000E+00 -3.612581979E-02
  1.831256000E+00 -6.459927962E-02
  8.022610000E-01 -1.008321794E-01
  3.626480000E-01 -9.757613942E-02
  1.139950000E-01  2.301215886E-01
  5.123700000E-02  6.102389764E-01
  2.246800000E-02  2.849406083E-01
  7.860000000E-03  4.026899976E-03
   p   9
  1.311950400E+01  1.524940000E-03
  3.077424200E+00  8.314830000E-03
  1.098800500E+00  1.933203000E-02
  4.357784000E-01  4.934293000E-02
  1.802432000E-01  1.623554000E-01
  7.613330000E-02  3.847505400E-01
  3.254650000E-02  4.336100400E-01
  1.401820000E-02  1.287005900E-01
  4.906400000E-03 -1.018520000E-03
 
[MO]
Sym=     1a  
Ene=    -2.5003
Spin= Alpha
Occup=    2.00000
   1         0.70477758
   2         0.00591128
   3        -0.00000000
   4         0.00000000
   5         0.00159307
   6         0.70477758
   7         0.00591128
   8         0.00000000
   9        -0.00000000
  10        -0.00159307
Sym=     2a  
Ene=    -2.4886
Spin= Alpha
Occup=    2.00000
   1        -0.70918695
   2        -0.00723615
   3        -0.00000000
   4         0.00000000
   5         0.00029914
   6         0.70918695
   7         0.00723615
   8         0.00000000
   9        -0.00000000
  10         0.00029914
Sym=     3a  
Ene=    -0.1891
Spin= Alpha
Occup=    1.85258
   1        -0.10223166
   2         0.48909347
   3        -0.00000000
   4        -0.00000000
   5         0.15125705
   6        -0.10223166
   7         0.48909347
   8         0.00000000
   9        -0.00000000
  10        -0.15125705
Sym=     4a  
Ene=    -0.0000
Spin= Alpha
Occup=    0.14742
   1         0.00000000
   2        -0.00000000
   3         0.49717918
   4        -0.20647342
   5        -0.00000000
   6         0.00000000
   7         0.00000000
   8         0.49717918
   9        -0.20647342
  10         0.00000000
Sym=     5a  
Ene=     0.0242
Spin= Alpha
Occup=    0.00000
   1        -0.00000000
   2         0.00000000
   3         0.20647342
   4         0.49717918
   5        -0.00000000
   6         0.00000000
   7        -0.00000000
   8         0.20647342
   9         0.49717918
  10        -0.00000000
Sym=     6a  
Ene=     0.0264
Spin= Alpha
Occup=    0.00000
   1         0.05402409
   2        -0.34875097
   3         0.00000000
   4         0.00000000
   5         0.48352317
   6        -0.05402409
   7         0.34875097
   8         0.00000000
   9         0.00000000
  10         0.48352317
Sym=     7a  
Ene=     0.0948
Spin= Alpha
Occup=    0.00000
   1         0.14329898
   2         0.34608078
   3        -0.00000000
   4         0.00000000
   5        -0.95543829
   6         0.14329898
   7         0.34608078
   8         0.00000000
   9        -0.00000000
  10         0.95543829
Sym=     8a  
Ene=     0.1535
Spin= Alpha
Occup=    0.00000
   1         0.00000000
   2         0.00000000
   3        -1.24577890
   4         0.51735921
   5         0.00000000
   6        -0.00000000
   7        -0.00000000
   8         1.24577890
   9        -0.51735921
  10        -0.00000000
Sym=     9a  
Ene=     0.1538
Spin= Alpha
Occup=    0.00000
   1         0.00000000
   2         0.00000000
   3        -0.51735921
   4        -1.24577890
   5        -0.00000000
   6         0.00000000
   7        -0.00000000
   8         0.51735921
   9         1.24577890
  10         0.00000000
Sym=    10a  
Ene=     0.6935
Spin= Alpha
Occup=    0.00000
   1        -1.38944645
   2        -6.43312615
   3        -0.00000000
   4        -0.00000000
   5        -2.73263459
   6         1.38944645
   7         6.43312615
   8         0.00000000
   9        -0.00000000
  10        -2.73263459
