[Molden Format]
[N_Atoms]
                     2
[Atoms] (AU)
B1          1      5           0.00000000      0.00000000      0.00000000
B2          2      5           0.00000000      0.00000000      5.29123315
[Charge] (Mulliken)
  0.999999999995222     
   1.00000000000476     
[GTO] (AU)
   1
   s  14
  3.336021700E+04  1.039699991E-04
  4.972095200E+03  5.254399956E-04
  1.125641700E+03  2.509059979E-03
  3.164913600E+02  1.031887991E-02
  1.020072600E+02  3.636632969E-02
  3.629587300E+01  1.064607991E-01
  1.397141000E+01  2.403999880E-01
  5.741156000E+00  3.748581168E-01
  2.494268000E+00  3.100066974E-01
  1.114202000E+00  7.922455933E-02
  4.215490000E-01 -4.947589958E-03
  1.696330000E-01 -7.737119935E-03
  6.853500000E-02 -1.501079987E-03
  2.398700000E-02 -1.333299989E-04
   s  14
  3.336021700E+04 -2.030000008E-05
  4.972095200E+03 -1.025700004E-04
  1.125641700E+03 -4.911300020E-04
  3.164913600E+02 -2.026570008E-03
  1.020072600E+02 -7.261010030E-03
  3.629587300E+01 -2.197722009E-02
  1.397141000E+01 -5.408428022E-02
  5.741156000E+00 -1.022402604E-01
  2.494268000E+00 -1.423595206E-01
  1.114202000E+00 -4.658690019E-02
  4.215490000E-01  3.799402916E-01
  1.696330000E-01  5.890463624E-01
  6.853500000E-02  1.749075107E-01
  2.398700000E-02 -1.142030005E-03
   p   9
  5.500000000E+01  1.229800005E-03
  1.336610100E+01  8.827380035E-03
  4.135394000E+00  3.843340015E-02
  1.481256000E+00  1.150031805E-01
  6.021360000E-01  2.733674011E-01
  2.556360000E-01  4.061972116E-01
  1.111510000E-01  3.014967912E-01
  4.764800000E-02  7.684809030E-02
  1.667700000E-02 -8.170000032E-06
 
   2
   s  14
  3.336021700E+04  1.039699991E-04
  4.972095200E+03  5.254399956E-04
  1.125641700E+03  2.509059979E-03
  3.164913600E+02  1.031887991E-02
  1.020072600E+02  3.636632969E-02
  3.629587300E+01  1.064607991E-01
  1.397141000E+01  2.403999880E-01
  5.741156000E+00  3.748581168E-01
  2.494268000E+00  3.100066974E-01
  1.114202000E+00  7.922455933E-02
  4.215490000E-01 -4.947589958E-03
  1.696330000E-01 -7.737119935E-03
  6.853500000E-02 -1.501079987E-03
  2.398700000E-02 -1.333299989E-04
   s  14
  3.336021700E+04 -2.030000008E-05
  4.972095200E+03 -1.025700004E-04
  1.125641700E+03 -4.911300020E-04
  3.164913600E+02 -2.026570008E-03
  1.020072600E+02 -7.261010030E-03
  3.629587300E+01 -2.197722009E-02
  1.397141000E+01 -5.408428022E-02
  5.741156000E+00 -1.022402604E-01
  2.494268000E+00 -1.423595206E-01
  1.114202000E+00 -4.658690019E-02
  4.215490000E-01  3.799402916E-01
  1.696330000E-01  5.890463624E-01
  6.853500000E-02  1.749075107E-01
  2.398700000E-02 -1.142030005E-03
   p   9
  5.500000000E+01  1.229800005E-03
  1.336610100E+01  8.827380035E-03
  4.135394000E+00  3.843340015E-02
  1.481256000E+00  1.150031805E-01
  6.021360000E-01  2.733674011E-01
  2.556360000E-01  4.061972116E-01
  1.111510000E-01  3.014967912E-01
  4.764800000E-02  7.684809030E-02
  1.667700000E-02 -8.170000032E-06
 
[MO]
Sym=     1a  
Ene=    -8.4889
Spin= Alpha
Occup=    2.00000
   1         0.70704022
   2         0.00948741
   3         0.00000000
   4        -0.00000000
   5        -0.00042171
   6         0.70704018
   7         0.00948741
   8        -0.00000000
   9        -0.00000000
  10         0.00042171
Sym=     2a  
Ene=    -8.4888
Spin= Alpha
Occup=    2.00000
   1        -0.70704526
   2        -0.00934303
   3         0.00000000
   4        -0.00000000
   5         0.00052439
   6         0.70704530
   7         0.00934303
   8        -0.00000000
   9         0.00000000
  10         0.00052439
Sym=     3a  
Ene=    -1.0390
Spin= Alpha
Occup=    2.00000
   1        -0.01396948
   2         0.63280651
   3         0.00000000
   4         0.00000000
   5         0.13619119
   6        -0.01396948
   7         0.63280651
   8        -0.00000000
   9         0.00000000
  10        -0.13619119
Sym=     4a  
Ene=    -0.6210
Spin= Alpha
Occup=    1.00000
   1        -0.00000000
   2         0.00000000
   3         0.53697492
   4        -0.41609409
   5        -0.00000000
   6         0.00000000
   7        -0.00000000
   8         0.53697492
   9        -0.41609409
  10        -0.00000000
Sym=     5a  
Ene=    -0.0000
Spin= Alpha
Occup=    1.00000
   1        -0.00000000
   2        -0.00000000
   3        -0.41609409
   4        -0.53697492
   5         0.00000000
   6        -0.00000000
   7         0.00000000
   8        -0.41609409
   9        -0.53697492
  10        -0.00000000
Sym=     6a  
Ene=    -0.7601
Spin= Alpha
Occup=    0.00000
   1         0.00635364
   2        -0.74344396
   3         0.00000000
   4        -0.00000000
   5         0.03082148
   6        -0.00635364
   7         0.74344396
   8         0.00000000
   9        -0.00000000
  10         0.03082148
Sym=     7a  
Ene=    -0.5245
Spin= Alpha
Occup=    0.00000
   1         0.00499176
   2         0.24662881
   3         0.00000000
   4        -0.00000000
   5        -0.63625760
   6         0.00499176
   7         0.24662881
   8        -0.00000000
   9         0.00000000
  10         0.63625760
Sym=     8a  
Ene=    -0.4916
Spin= Alpha
Occup=    0.00000
   1        -0.00000000
   2         0.00000000
   3        -0.26651732
   4        -0.68884674
   5        -0.00000000
   6         0.00000000
   7        -0.00000000
   8         0.26651732
   9         0.68884674
  10        -0.00000000
Sym=     9a  
Ene=    -0.4916
Spin= Alpha
Occup=    0.00000
   1        -0.00000000
   2        -0.00000000
   3         0.68884674
   4        -0.26651732
   5         0.00000000
   6        -0.00000000
   7        -0.00000000
   8        -0.68884674
   9         0.26651732
  10        -0.00000000
Sym=    10a  
Ene=    -0.3953
Spin= Alpha
Occup=    0.00000
   1        -0.01183056
   2        -0.19937348
   3        -0.00000000
   4         0.00000000
   5        -0.81665409
   6         0.01183056
   7         0.19937348
   8        -0.00000000
   9        -0.00000000
  10        -0.81665409
