[Molden Format]
[N_Atoms]
                     2
[Atoms] (AU)
B1          1      5           0.00000000      0.00000000      0.00000000
B2          2      5           0.00000000      0.00000000      5.29123315
[Charge] (Mulliken)
  3.396622847398945E-003
 -3.396622847418485E-003
[GTO] (AU)
   1
   s  14
  3.336021700E+04  1.039699991E-04
  4.972095200E+03  5.254399956E-04
  1.125641700E+03  2.509059979E-03
  3.164913600E+02  1.031887991E-02
  1.020072600E+02  3.636632969E-02
  3.629587300E+01  1.064607991E-01
  1.397141000E+01  2.403999880E-01
  5.741156000E+00  3.748581168E-01
  2.494268000E+00  3.100066974E-01
  1.114202000E+00  7.922455933E-02
  4.215490000E-01 -4.947589958E-03
  1.696330000E-01 -7.737119935E-03
  6.853500000E-02 -1.501079987E-03
  2.398700000E-02 -1.333299989E-04
   s  14
  3.336021700E+04 -2.030000008E-05
  4.972095200E+03 -1.025700004E-04
  1.125641700E+03 -4.911300020E-04
  3.164913600E+02 -2.026570008E-03
  1.020072600E+02 -7.261010030E-03
  3.629587300E+01 -2.197722009E-02
  1.397141000E+01 -5.408428022E-02
  5.741156000E+00 -1.022402604E-01
  2.494268000E+00 -1.423595206E-01
  1.114202000E+00 -4.658690019E-02
  4.215490000E-01  3.799402916E-01
  1.696330000E-01  5.890463624E-01
  6.853500000E-02  1.749075107E-01
  2.398700000E-02 -1.142030005E-03
   p   9
  5.500000000E+01  1.229800005E-03
  1.336610100E+01  8.827380035E-03
  4.135394000E+00  3.843340015E-02
  1.481256000E+00  1.150031805E-01
  6.021360000E-01  2.733674011E-01
  2.556360000E-01  4.061972116E-01
  1.111510000E-01  3.014967912E-01
  4.764800000E-02  7.684809030E-02
  1.667700000E-02 -8.170000032E-06
 
   2
   s  14
  3.336021700E+04  1.039699991E-04
  4.972095200E+03  5.254399956E-04
  1.125641700E+03  2.509059979E-03
  3.164913600E+02  1.031887991E-02
  1.020072600E+02  3.636632969E-02
  3.629587300E+01  1.064607991E-01
  1.397141000E+01  2.403999880E-01
  5.741156000E+00  3.748581168E-01
  2.494268000E+00  3.100066974E-01
  1.114202000E+00  7.922455933E-02
  4.215490000E-01 -4.947589958E-03
  1.696330000E-01 -7.737119935E-03
  6.853500000E-02 -1.501079987E-03
  2.398700000E-02 -1.333299989E-04
   s  14
  3.336021700E+04 -2.030000008E-05
  4.972095200E+03 -1.025700004E-04
  1.125641700E+03 -4.911300020E-04
  3.164913600E+02 -2.026570008E-03
  1.020072600E+02 -7.261010030E-03
  3.629587300E+01 -2.197722009E-02
  1.397141000E+01 -5.408428022E-02
  5.741156000E+00 -1.022402604E-01
  2.494268000E+00 -1.423595206E-01
  1.114202000E+00 -4.658690019E-02
  4.215490000E-01  3.799402916E-01
  1.696330000E-01  5.890463624E-01
  6.853500000E-02  1.749075107E-01
  2.398700000E-02 -1.142030005E-03
   p   9
  5.500000000E+01  1.229800005E-03
  1.336610100E+01  8.827380035E-03
  4.135394000E+00  3.843340015E-02
  1.481256000E+00  1.150031805E-01
  6.021360000E-01  2.733674011E-01
  2.556360000E-01  4.061972116E-01
  1.111510000E-01  3.014967912E-01
  4.764800000E-02  7.684809030E-02
  1.667700000E-02 -8.170000032E-06
 
[MO]
Sym=     1a  
Ene=    -7.6513
Spin= Alpha
Occup=    2.00000
   1         0.99997982
   2         0.00318671
   3        -0.00000000
   4         0.00000000
   5         0.00025378
   6         0.00637555
   7         0.00117212
   8         0.00000000
   9         0.00000000
  10         0.00077552
Sym=     2a  
Ene=    -7.6477
Spin= Alpha
Occup=    2.00000
   1        -0.00637035
   2        -0.00016951
   3        -0.00000000
   4         0.00000000
   5        -0.00019762
   6         0.99988340
   7         0.01414965
   8        -0.00000000
   9        -0.00000000
  10        -0.00013070
Sym=     3a  
Ene=    -0.4882
Spin= Alpha
Occup=    2.00000
   1        -0.00544176
   2         0.00657780
   3        -0.00000000
   4         0.00000000
   5         0.05757756
   6        -0.01486734
   7         0.98686464
   8         0.00000000
   9        -0.00000000
  10         0.00107787
Sym=     4a  
Ene=    -0.1728
Spin= Alpha
Occup=    2.00000
   1        -0.00000000
   2         0.00000000
   3        -0.08508397
   4         0.67083332
   5        -0.00000000
   6         0.00000000
   7         0.00000000
   8        -0.08586584
   9         0.67699787
  10         0.00000000
Sym=     5a  
Ene=     0.1001
Spin= Alpha
Occup=    0.06787
   1        -0.00000000
   2        -0.00000000
   3         0.99321537
   4         0.12597273
   5        -0.00000000
   6         0.00000000
   7         0.00000000
   8        -0.01534227
   9        -0.00194591
  10         0.00000000
Sym=     6a  
Ene=    -0.0004
Spin= Alpha
Occup=    1.93213
   1         0.00319342
   2        -0.99529492
   3         0.00000000
   4         0.00000000
   5         0.00999282
   6         0.00366228
   7         0.11503514
   8         0.00000000
   9         0.00000000
  10         0.05117914
Sym=     7a  
Ene=     0.0506
Spin= Alpha
Occup=    0.00000
   1        -0.00000000
   2         0.00000000
   3         0.09329421
   4        -0.73556593
   5         0.00000000
   6        -0.00000000
   7         0.00000000
   8        -0.09257510
   9         0.72989620
  10        -0.00000000
Sym=     8a  
Ene=     0.0586
Spin= Alpha
Occup=    0.00000
   1         0.00749129
   2         0.13985912
   3        -0.00000000
   4        -0.00000000
   5        -0.65273758
   6         0.00750355
   7         0.14899567
   8        -0.00000000
   9        -0.00000000
  10         0.64671273
Sym=     9a  
Ene=     0.1162
Spin= Alpha
Occup=    0.00000
   1         0.00000000
   2         0.00000000
   3        -0.06780716
   4        -0.00860020
   5        -0.00000000
   6         0.00000000
   7         0.00000000
   8         0.99540906
   9         0.12625096
  10         0.00000000
Sym=    10a  
Ene=     0.2171
Spin= Alpha
Occup=    0.00000
   1        -0.01109545
   2        -0.20899722
   3        -0.00000000
   4        -0.00000000
   5        -0.81348916
   6         0.01100199
   7         0.21064106
   8         0.00000000
   9         0.00000000
  10        -0.81877204
