[Molden Format]
[N_Atoms]
                     2
[Atoms] (AU)
B1          1      5           0.00000000      0.00000000      0.00000000
BE2         2      4           0.00000000      0.00000000      3.40150702
[Charge] (Mulliken)
 -0.149847095139572     
  0.149847095139522     
[GTO] (AU)
   1
   s  14
  3.336021700E+04  1.039699991E-04
  4.972095200E+03  5.254399956E-04
  1.125641700E+03  2.509059979E-03
  3.164913600E+02  1.031887991E-02
  1.020072600E+02  3.636632969E-02
  3.629587300E+01  1.064607991E-01
  1.397141000E+01  2.403999880E-01
  5.741156000E+00  3.748581168E-01
  2.494268000E+00  3.100066974E-01
  1.114202000E+00  7.922455933E-02
  4.215490000E-01 -4.947589958E-03
  1.696330000E-01 -7.737119935E-03
  6.853500000E-02 -1.501079987E-03
  2.398700000E-02 -1.333299989E-04
   s  14
  3.336021700E+04 -2.030000008E-05
  4.972095200E+03 -1.025700004E-04
  1.125641700E+03 -4.911300020E-04
  3.164913600E+02 -2.026570008E-03
  1.020072600E+02 -7.261010030E-03
  3.629587300E+01 -2.197722009E-02
  1.397141000E+01 -5.408428022E-02
  5.741156000E+00 -1.022402604E-01
  2.494268000E+00 -1.423595206E-01
  1.114202000E+00 -4.658690019E-02
  4.215490000E-01  3.799402916E-01
  1.696330000E-01  5.890463624E-01
  6.853500000E-02  1.749075107E-01
  2.398700000E-02 -1.142030005E-03
   p   9
  5.500000000E+01  1.229800005E-03
  1.336610100E+01  8.827380035E-03
  4.135394000E+00  3.843340015E-02
  1.481256000E+00  1.150031805E-01
  6.021360000E-01  2.733674011E-01
  2.556360000E-01  4.061972116E-01
  1.111510000E-01  3.014967912E-01
  4.764800000E-02  7.684809030E-02
  1.667700000E-02 -8.170000032E-06
 
   2
   s  14
  2.262859900E+04  8.443999941E-05
  3.372318100E+03  4.601499968E-04
  7.603504000E+02  2.285389984E-03
  2.117404800E+02  9.648129932E-03
  6.722346800E+01  3.494469975E-02
  2.337217700E+01  1.061099893E-01
  8.721373000E+00  2.458240383E-01
  3.468091000E+00  3.862428773E-01
  1.452144000E+00  3.105526078E-01
  6.086150000E-01  6.415933955E-02
  2.576860000E-01 -2.265049984E-03
  1.041760000E-01 -5.217499963E-04
  4.242700000E-02 -8.757499938E-04
  1.484900000E-02  1.242199991E-04
   s  14
  2.262859900E+04 -1.586999994E-05
  3.372318100E+03 -8.656999968E-05
  7.603504000E+02 -4.302199984E-04
  2.117404800E+02 -1.825079993E-03
  6.722346800E+01 -6.682749976E-03
  2.337217700E+01 -2.095119992E-02
  8.721373000E+00 -5.200308981E-02
  3.468091000E+00 -9.849176964E-02
  1.452144000E+00 -1.355800695E-01
  6.086150000E-01 -6.429875976E-02
  2.576860000E-01  3.125414989E-01
  1.041760000E-01  6.270468577E-01
  4.242700000E-02  2.110231492E-01
  1.484900000E-02 -4.104669985E-03
   p   9
  3.371018400E+01  1.069960000E-03
  8.057649500E+00  6.828550001E-03
  2.836471400E+00  2.119065000E-02
  1.099965700E+00  5.843696001E-02
  4.433964000E-01  2.020920800E-01
  1.822264000E-01  4.582953101E-01
  7.572410000E-02  3.691239601E-01
  3.168540000E-02  6.611471001E-02
  1.108990000E-02  1.405160000E-03
 
[MO]
Sym=     1a  
Ene=    -7.6420
Spin= Alpha
Occup=    1.00000
   1         1.00002203
   2         0.01845376
   3        -0.00000000
   4         0.00000000
   5         0.00099345
   6        -0.00033107
   7        -0.00147825
   8         0.00000000
   9        -0.00000000
  10         0.00109982
Sym=     1a  
Ene=    -7.6106
Spin= Beta
Occup=    1.00000
   1         0.99997420
   2         0.01403295
   3        -0.00000000
   4        -0.00000000
   5         0.00110228
   6        -0.00015720
   7        -0.00071318
   8        -0.00000000
   9         0.00000000
  10         0.00034875
Sym=     2a  
Ene=    -4.7256
Spin= Alpha
Occup=    1.00000
   1        -0.00045628
   2         0.00012373
   3         0.00000000
   4        -0.00000000
   5         0.00082084
   6         0.99989920
   7         0.00325234
   8         0.00000000
   9         0.00000000
  10        -0.00139796
Sym=     2a  
Ene=    -4.7379
Spin= Beta
Occup=    1.00000
   1        -0.00021038
   2         0.00125870
   3         0.00000000
   4         0.00000000
   5         0.00100574
   6         0.99981995
   7         0.00281712
   8         0.00000000
   9         0.00000000
  10         0.00047301
Sym=     3a  
Ene=    -0.6206
Spin= Alpha
Occup=    1.00000
   1        -0.04292028
   2         0.78759936
   3        -0.00000000
   4         0.00000000
   5         0.00566124
   6        -0.04562257
   7         0.22448980
   8         0.00000000
   9        -0.00000000
  10        -0.17083992
Sym=     3a  
Ene=    -0.4996
Spin= Beta
Occup=    1.00000
   1        -0.04291721
   2         0.60841344
   3         0.00000000
   4        -0.00000000
   5         0.27450363
   6        -0.06459324
   7         0.37331841
   8        -0.00000000
   9         0.00000000
  10        -0.14442805
Sym=     4a  
Ene=    -0.3777
Spin= Alpha
Occup=    1.00000
   1        -0.03147323
   2        -0.42460164
   3        -0.00000000
   4        -0.00000000
   5         0.77949076
   6        -0.06118384
   7         0.32899787
   8        -0.00000000
   9        -0.00000000
  10        -0.20592857
Sym=     4a  
Ene=    -0.3087
Spin= Beta
Occup=    1.00000
   1         0.02108381
   2        -0.26006948
   3        -0.00000000
   4         0.00000000
   5        -0.06814317
   6         0.01912085
   7         0.76178313
   8        -0.00000000
   9         0.00000000
  10         0.61641826
Sym=     5a  
Ene=    -0.3147
Spin= Alpha
Occup=    1.00000
   1        -0.00000000
   2        -0.00000000
   3         0.87346852
   4         0.16118343
   5         0.00000000
   6        -0.00000000
   7         0.00000000
   8         0.24160108
   9         0.04458328
  10        -0.00000000
Sym=     5a  
Ene=     0.0344
Spin= Beta
Occup=    0.00000
   1        -0.00000000
   2         0.00000000
   3        -0.07891676
   4         0.42765753
   5        -0.00000000
   6        -0.00000000
   7        -0.00000000
   8        -0.13841524
   9         0.75008549
  10        -0.00000000
Sym=     6a  
Ene=     0.0265
Spin= Alpha
Occup=    0.00000
   1        -0.00000000
   2        -0.00000000
   3        -0.12030312
   4         0.65193422
   5         0.00000000
   6        -0.00000000
   7         0.00000000
   8        -0.10052610
   9         0.54476059
  10         0.00000000
Sym=     6a  
Ene=     0.0557
Spin= Beta
Occup=    0.00000
   1         0.00000000
   2         0.00000000
   3         0.35683591
   4         0.06584786
   5        -0.00000000
   6         0.00000000
   7         0.00000000
   8         0.80139364
   9         0.14788326
  10         0.00000000
Sym=     7a  
Ene=     0.0956
Spin= Alpha
Occup=    0.00000
   1         0.00394077
   2        -0.16722415
   3        -0.00000000
   4        -0.00000000
   5        -0.35988660
   6         0.04541311
   7         0.88693003
   8         0.00000000
   9        -0.00000000
  10         0.51954229
Sym=     7a  
Ene=     0.1460
Spin= Beta
Occup=    0.00000
   1         0.04006611
   2         0.75486970
   3        -0.00000000
   4        -0.00000000
   5        -0.67090305
   6         0.03010997
   7        -0.14232791
   8        -0.00000000
   9        -0.00000000
  10         0.43480154
Sym=     8a  
Ene=     0.1663
Spin= Alpha
Occup=    0.00000
   1        -0.00000000
   2         0.00000000
   3        -0.57884611
   4        -0.10681599
   5         0.00000000
   6        -0.00000000
   7        -0.00000000
   8         1.01962689
   9         0.18815441
  10        -0.00000000
Sym=     8a  
Ene=     0.2354
Spin= Beta
Occup=    0.00000
   1         0.00000000
   2        -0.00000000
   3         0.17652733
   4        -0.95661859
   5         0.00000000
   6        -0.00000000
   7        -0.00000000
   8        -0.13502213
   9         0.73169792
  10         0.00000000
Sym=     9a  
Ene=     0.2197
Spin= Alpha
Occup=    0.00000
   1         0.00000000
   2         0.00000000
   3         0.15138332
   4        -0.82036081
   5        -0.00000000
   6         0.00000000
   7         0.00000000
   8        -0.16517947
   9         0.89512344
  10         0.00000000
Sym=     9a  
Ene=     0.2703
Spin= Beta
Occup=    0.00000
   1        -0.00000000
   2         0.00000000
   3        -0.98523003
   4        -0.18180707
   5        -0.00000000
   6         0.00000000
   7         0.00000000
   8         0.67511356
   9         0.12458047
  10        -0.00000000
Sym=    10a  
Ene=     0.4981
Spin= Alpha
Occup=    0.00000
   1         0.17160773
   2         1.33518982
   3         0.00000000
   4         0.00000000
   5         1.00432011
   6        -0.17534804
   7        -1.13166942
   8         0.00000000
   9        -0.00000000
  10         1.33561696
Sym=    10a  
Ene=     0.5150
Spin= Beta
Occup=    0.00000
   1         0.16882407
   2         1.26641455
   3        -0.00000000
   4         0.00000000
   5         1.10259146
   6        -0.18261497
   7        -1.21902532
   8         0.00000000
   9         0.00000000
  10         1.23915665
