[Molden Format]
[N_Atoms]
                     2
[Atoms] (AU)
B1          1      5           0.00000000      0.00000000      0.00000000
BE2         2      4           0.00000000      0.00000000      3.40150702
[Charge] (Mulliken)
 -0.121454344560300     
  0.121454344560289     
[GTO] (AU)
   1
   s  14
  3.336021700E+04  1.039699991E-04
  4.972095200E+03  5.254399956E-04
  1.125641700E+03  2.509059979E-03
  3.164913600E+02  1.031887991E-02
  1.020072600E+02  3.636632969E-02
  3.629587300E+01  1.064607991E-01
  1.397141000E+01  2.403999880E-01
  5.741156000E+00  3.748581168E-01
  2.494268000E+00  3.100066974E-01
  1.114202000E+00  7.922455933E-02
  4.215490000E-01 -4.947589958E-03
  1.696330000E-01 -7.737119935E-03
  6.853500000E-02 -1.501079987E-03
  2.398700000E-02 -1.333299989E-04
   s  14
  3.336021700E+04 -2.030000008E-05
  4.972095200E+03 -1.025700004E-04
  1.125641700E+03 -4.911300020E-04
  3.164913600E+02 -2.026570008E-03
  1.020072600E+02 -7.261010030E-03
  3.629587300E+01 -2.197722009E-02
  1.397141000E+01 -5.408428022E-02
  5.741156000E+00 -1.022402604E-01
  2.494268000E+00 -1.423595206E-01
  1.114202000E+00 -4.658690019E-02
  4.215490000E-01  3.799402916E-01
  1.696330000E-01  5.890463624E-01
  6.853500000E-02  1.749075107E-01
  2.398700000E-02 -1.142030005E-03
   p   9
  5.500000000E+01  1.229800005E-03
  1.336610100E+01  8.827380035E-03
  4.135394000E+00  3.843340015E-02
  1.481256000E+00  1.150031805E-01
  6.021360000E-01  2.733674011E-01
  2.556360000E-01  4.061972116E-01
  1.111510000E-01  3.014967912E-01
  4.764800000E-02  7.684809030E-02
  1.667700000E-02 -8.170000032E-06
 
   2
   s  14
  2.262859900E+04  8.443999941E-05
  3.372318100E+03  4.601499968E-04
  7.603504000E+02  2.285389984E-03
  2.117404800E+02  9.648129932E-03
  6.722346800E+01  3.494469975E-02
  2.337217700E+01  1.061099893E-01
  8.721373000E+00  2.458240383E-01
  3.468091000E+00  3.862428773E-01
  1.452144000E+00  3.105526078E-01
  6.086150000E-01  6.415933955E-02
  2.576860000E-01 -2.265049984E-03
  1.041760000E-01 -5.217499963E-04
  4.242700000E-02 -8.757499938E-04
  1.484900000E-02  1.242199991E-04
   s  14
  2.262859900E+04 -1.586999994E-05
  3.372318100E+03 -8.656999968E-05
  7.603504000E+02 -4.302199984E-04
  2.117404800E+02 -1.825079993E-03
  6.722346800E+01 -6.682749976E-03
  2.337217700E+01 -2.095119992E-02
  8.721373000E+00 -5.200308981E-02
  3.468091000E+00 -9.849176964E-02
  1.452144000E+00 -1.355800695E-01
  6.086150000E-01 -6.429875976E-02
  2.576860000E-01  3.125414989E-01
  1.041760000E-01  6.270468577E-01
  4.242700000E-02  2.110231492E-01
  1.484900000E-02 -4.104669985E-03
   p   9
  3.371018400E+01  1.069960000E-03
  8.057649500E+00  6.828550001E-03
  2.836471400E+00  2.119065000E-02
  1.099965700E+00  5.843696001E-02
  4.433964000E-01  2.020920800E-01
  1.822264000E-01  4.582953101E-01
  7.572410000E-02  3.691239601E-01
  3.168540000E-02  6.611471001E-02
  1.108990000E-02  1.405160000E-03
 
[MO]
Sym=     1a  
Ene=    -7.6409
Spin= Alpha
Occup=    1.00000
   1         0.99989352
   2         0.01514451
   3        -0.00000000
   4        -0.00000000
   5        -0.00067715
   6         0.00000824
   7        -0.00007933
   8         0.00000000
   9         0.00000000
  10         0.00004157
Sym=     1a  
Ene=    -7.6409
Spin= Beta
Occup=    1.00000
   1         0.99989352
   2         0.01514451
   3        -0.00000000
   4        -0.00000000
   5        -0.00067715
   6         0.00000824
   7        -0.00007933
   8         0.00000000
   9         0.00000000
  10         0.00004157
Sym=     2a  
Ene=    -4.7856
Spin= Alpha
Occup=    1.00000
   1        -0.00011065
   2         0.00200673
   3        -0.00000000
   4        -0.00000000
   5         0.00114653
   6         0.99976293
   7         0.00287454
   8         0.00000000
   9         0.00000000
  10         0.00206795
Sym=     2a  
Ene=    -4.7856
Spin= Beta
Occup=    1.00000
   1        -0.00011065
   2         0.00200673
   3        -0.00000000
   4        -0.00000000
   5         0.00114653
   6         0.99976293
   7         0.00287454
   8         0.00000000
   9         0.00000000
  10         0.00206795
Sym=     3a  
Ene=    -0.5182
Spin= Alpha
Occup=    1.00000
   1        -0.04418007
   2         0.71212038
   3         0.00000000
   4        -0.00000000
   5         0.11511796
   6        -0.05302045
   7         0.30333354
   8        -0.00000000
   9         0.00000000
  10        -0.17214188
Sym=     3a  
Ene=    -0.5182
Spin= Beta
Occup=    1.00000
   1        -0.04418007
   2         0.71212038
   3         0.00000000
   4        -0.00000000
   5         0.11511796
   6        -0.05302045
   7         0.30333354
   8        -0.00000000
   9         0.00000000
  10        -0.17214188
Sym=     4a  
Ene=    -0.0860
Spin= Alpha
Occup=    1.00000
   1         0.00000000
   2         0.00000000
   3         0.66063931
   4        -0.34488639
   5        -0.00000000
   6        -0.00000000
   7        -0.00000000
   8         0.40545071
   9        -0.21166532
  10         0.00000000
Sym=     4a  
Ene=    -0.0860
Spin= Beta
Occup=    0.00000
   1         0.00000000
   2         0.00000000
   3         0.66063931
   4        -0.34488639
   5        -0.00000000
   6        -0.00000000
   7        -0.00000000
   8         0.40545071
   9        -0.21166532
  10         0.00000000
Sym=     5a  
Ene=     0.0000
Spin= Alpha
Occup=    1.00000
   1        -0.00000000
   2        -0.00000000
   3         0.29154381
   4         0.55846015
   5         0.00000000
   6        -0.00000000
   7         0.00000000
   8         0.27255806
   9         0.52209242
  10        -0.00000000
Sym=     5a  
Ene=     0.0000
Spin= Beta
Occup=    1.00000
   1        -0.00000000
   2        -0.00000000
   3         0.29154381
   4         0.55846015
   5         0.00000000
   6        -0.00000000
   7         0.00000000
   8         0.27255806
   9         0.52209242
  10        -0.00000000
Sym=     6a  
Ene=    -0.0374
Spin= Alpha
Occup=    0.00000
   1         0.00002022
   2        -0.40434552
   3         0.00000000
   4        -0.00000000
   5         0.26543076
   6        -0.00932451
   7         0.78690588
   8        -0.00000000
   9        -0.00000000
  10         0.38568248
Sym=     6a  
Ene=    -0.0374
Spin= Beta
Occup=    0.00000
   1         0.00002022
   2        -0.40434552
   3         0.00000000
   4        -0.00000000
   5         0.26543076
   6        -0.00932451
   7         0.78690588
   8        -0.00000000
   9        -0.00000000
  10         0.38568248
Sym=     7a  
Ene=     0.0747
Spin= Alpha
Occup=    0.00000
   1         0.04255857
   2         0.45352514
   3        -0.00000000
   4         0.00000000
   5        -0.70657817
   6         0.04860831
   7         0.18316306
   8         0.00000000
   9         0.00000000
  10         0.61963612
Sym=     7a  
Ene=     0.0747
Spin= Beta
Occup=    0.00000
   1         0.04255857
   2         0.45352514
   3        -0.00000000
   4         0.00000000
   5        -0.70657817
   6         0.04860831
   7         0.18316306
   8         0.00000000
   9         0.00000000
  10         0.61963612
Sym=     8a  
Ene=     0.1805
Spin= Alpha
Occup=    0.00000
   1        -0.00000000
   2        -0.00000000
   3        -0.39770318
   4        -0.76181132
   5         0.00000000
   6        -0.00000000
   7         0.00000000
   8         0.41094734
   9         0.78718087
  10        -0.00000000
Sym=     8a  
Ene=     0.1805
Spin= Beta
Occup=    0.00000
   1        -0.00000000
   2        -0.00000000
   3        -0.39770318
   4        -0.76181132
   5         0.00000000
   6        -0.00000000
   7         0.00000000
   8         0.41094734
   9         0.78718087
  10        -0.00000000
Sym=     9a  
Ene=     0.1926
Spin= Alpha
Occup=    0.00000
   1        -0.00000000
   2        -0.00000000
   3        -0.67512215
   4         0.35244715
   5         0.00000000
   6        -0.00000000
   7        -0.00000000
   8         0.85313770
   9        -0.44538007
  10        -0.00000000
Sym=     9a  
Ene=     0.1926
Spin= Beta
Occup=    0.00000
   1        -0.00000000
   2        -0.00000000
   3        -0.67512215
   4         0.35244715
   5         0.00000000
   6        -0.00000000
   7        -0.00000000
   8         0.85313770
   9        -0.44538007
  10        -0.00000000
Sym=    10a  
Ene=     0.5300
Spin= Alpha
Occup=    0.00000
   1        -0.16968071
   2        -1.31723440
   3        -0.00000000
   4        -0.00000000
   5        -1.07835833
   6         0.18342816
   7         1.21703719
   8        -0.00000000
   9        -0.00000000
  10        -1.25022233
Sym=    10a  
Ene=     0.5300
Spin= Beta
Occup=    0.00000
   1        -0.16968071
   2        -1.31723440
   3        -0.00000000
   4        -0.00000000
   5        -1.07835833
   6         0.18342816
   7         1.21703719
   8        -0.00000000
   9        -0.00000000
  10        -1.25022233
