[Molden Format]
[N_Atoms]
                     2
[Atoms] (AU)
F1          1      9           0.00000000      0.00000000      0.00000000
LI2         2      3           0.00000000      0.00000000      2.83458919
[Charge] (Mulliken)
 -0.721417049257850     
  0.721417049257828     
[GTO] (AU)
   1
   s  14
  1.031094600E+05  1.713099991E-04
  1.528100700E+04  7.123999962E-04
  3.441539200E+03  2.990479984E-03
  9.670948300E+02  1.164036994E-02
  3.140353400E+02  3.968642979E-02
  1.134423000E+02  1.128546094E-01
  4.464472700E+01  2.473650687E-01
  1.894287400E+01  3.672702681E-01
  8.532743000E+00  2.896286985E-01
  3.919401000E+00  7.786681959E-02
  1.568157000E+00  4.562139976E-03
  6.232900000E-01  2.468879987E-03
  2.408610000E-01  1.106309994E-03
  8.430100000E-02  1.739699991E-04
   s  14
  1.031094600E+05 -4.044999995E-05
  1.528100700E+04 -1.682299998E-04
  3.441539200E+03 -7.084299991E-04
  9.670948300E+02 -2.767999996E-03
  3.140353400E+02 -9.611379987E-03
  1.134423000E+02 -2.833957996E-02
  4.464472700E+01 -6.839343991E-02
  1.894287400E+01 -1.237379298E-01
  8.532743000E+00 -1.512859698E-01
  3.919401000E+00 -9.099909988E-03
  1.568157000E+00  3.716257695E-01
  6.232900000E-01  5.500214393E-01
  2.408610000E-01  2.092318697E-01
  8.430100000E-02  8.074639989E-03
   p   9
  2.453302900E+02  1.024860004E-03
  5.691900500E+01  8.344290032E-03
  1.760456800E+01  4.078927016E-02
  6.274995000E+00  1.351370605E-01
  2.447030000E+00  2.798830811E-01
  9.950600000E-01  3.597966414E-01
  4.039730000E-01  3.055347412E-01
  1.548100000E-01  1.354703905E-01
  5.418400000E-02  2.804449011E-02
 
   2
   s  14
  9.497934400E+03  9.668999974E-05
  1.416811200E+03  6.087099984E-04
  3.214599400E+02  3.101519992E-03
  9.112416300E+01  1.266904997E-02
  2.999989100E+01  4.248012989E-02
  1.101763100E+01  1.150183297E-01
  4.372801000E+00  2.398650094E-01
  1.831256000E+00  3.584300090E-01
  8.022610000E-01  3.048527792E-01
  3.626480000E-01  8.824261976E-02
  1.139950000E-01 -8.445899977E-04
  5.123700000E-02 -7.943959979E-03
  2.246800000E-02 -3.764419990E-03
  7.860000000E-03 -8.868999976E-05
   s  14
  9.497934400E+03 -1.244999993E-05
  1.416811200E+03 -7.838999954E-05
  3.214599400E+02 -4.007099976E-04
  9.112416300E+01 -1.645249990E-03
  2.999989100E+01 -5.634599967E-03
  1.101763100E+01 -1.590780991E-02
  4.372801000E+00 -3.612581979E-02
  1.831256000E+00 -6.459927962E-02
  8.022610000E-01 -1.008321794E-01
  3.626480000E-01 -9.757613942E-02
  1.139950000E-01  2.301215886E-01
  5.123700000E-02  6.102389764E-01
  2.246800000E-02  2.849406083E-01
  7.860000000E-03  4.026899976E-03
   p   9
  1.311950400E+01  1.524940000E-03
  3.077424200E+00  8.314830000E-03
  1.098800500E+00  1.933203000E-02
  4.357784000E-01  4.934293000E-02
  1.802432000E-01  1.623554000E-01
  7.613330000E-02  3.847505400E-01
  3.254650000E-02  4.336100400E-01
  1.401820000E-02  1.287005900E-01
  4.906400000E-03 -1.018520000E-03
 
[MO]
Sym=     1a  
Ene=   -25.8700
Spin= Alpha
Occup=    1.00000
   1         1.00002646
   2        -0.00203630
   3        -0.00000000
   4         0.00000000
   5         0.00038615
   6        -0.00017339
   7        -0.00038000
   8         0.00000000
   9        -0.00000000
  10         0.00038181
Sym=     1a  
Ene=   -25.8700
Spin= Beta
Occup=    1.00000
   1         1.00002646
   2        -0.00203630
   3        -0.00000000
   4         0.00000000
   5         0.00038615
   6        -0.00017339
   7        -0.00038000
   8         0.00000000
   9        -0.00000000
  10         0.00038181
Sym=     2a  
Ene=    -2.4639
Spin= Alpha
Occup=    1.00000
   1        -0.00117198
   2         0.02350555
   3        -0.00000000
   4         0.00000000
   5         0.01296798
   6         0.99674369
   7         0.01249788
   8         0.00000000
   9         0.00000000
  10         0.00260236
Sym=     2a  
Ene=    -2.4639
Spin= Beta
Occup=    1.00000
   1        -0.00117198
   2         0.02350555
   3        -0.00000000
   4         0.00000000
   5         0.01296798
   6         0.99674369
   7         0.01249788
   8         0.00000000
   9         0.00000000
  10         0.00260236
Sym=     3a  
Ene=    -1.3118
Spin= Alpha
Occup=    1.00000
   1        -0.00054141
   2         0.97338115
   3         0.00000000
   4        -0.00000000
   5         0.06468041
   6        -0.08371900
   7         0.03028558
   8        -0.00000000
   9         0.00000000
  10        -0.04362447
Sym=     3a  
Ene=    -1.3118
Spin= Beta
Occup=    1.00000
   1        -0.00054141
   2         0.97338115
   3         0.00000000
   4        -0.00000000
   5         0.06468041
   6        -0.08371900
   7         0.03028558
   8        -0.00000000
   9         0.00000000
  10        -0.04362447
Sym=     4a  
Ene=    -0.4358
Spin= Alpha
Occup=    1.00000
   1        -0.00380564
   2        -0.09348197
   3         0.00000000
   4         0.00000000
   5         0.99997351
   6        -0.12815000
   7         0.03008965
   8         0.00000000
   9         0.00000000
  10        -0.05645421
Sym=     4a  
Ene=    -0.4358
Spin= Beta
Occup=    1.00000
   1        -0.00380564
   2        -0.09348197
   3         0.00000000
   4         0.00000000
   5         0.99997351
   6        -0.12815000
   7         0.03008965
   8         0.00000000
   9         0.00000000
  10        -0.05645421
Sym=     5a  
Ene=    -0.4019
Spin= Alpha
Occup=    1.00000
   1         0.00000000
   2         0.00000000
   3        -0.24408681
   4         0.92509627
   5        -0.00000000
   6        -0.00000000
   7         0.00000000
   8        -0.03888997
   9         0.14739414
  10         0.00000000
Sym=     5a  
Ene=    -0.4019
Spin= Beta
Occup=    1.00000
   1         0.00000000
   2         0.00000000
   3        -0.24408681
   4         0.92509627
   5        -0.00000000
   6        -0.00000000
   7         0.00000000
   8        -0.03888997
   9         0.14739414
  10         0.00000000
Sym=     6a  
Ene=    -0.4019
Spin= Alpha
Occup=    1.00000
   1         0.00000000
   2         0.00000000
   3         0.92509627
   4         0.24408681
   5        -0.00000000
   6         0.00000000
   7        -0.00000000
   8         0.14739414
   9         0.03888997
  10         0.00000000
Sym=     6a  
Ene=    -0.4019
Spin= Beta
Occup=    1.00000
   1         0.00000000
   2         0.00000000
   3         0.92509627
   4         0.24408681
   5        -0.00000000
   6         0.00000000
   7        -0.00000000
   8         0.14739414
   9         0.03888997
  10         0.00000000
Sym=     7a  
Ene=     0.0086
Spin= Alpha
Occup=    0.00000
   1        -0.00169541
   2        -0.03804799
   3        -0.00000000
   4         0.00000000
   5        -0.07301811
   6        -0.00110026
   7         0.84013501
   8         0.00000000
   9        -0.00000000
  10         0.54918987
Sym=     7a  
Ene=     0.0086
Spin= Beta
Occup=    0.00000
   1        -0.00169541
   2        -0.03804799
   3        -0.00000000
   4         0.00000000
   5        -0.07301811
   6        -0.00110026
   7         0.84013501
   8         0.00000000
   9        -0.00000000
  10         0.54918987
Sym=     8a  
Ene=     0.1062
Spin= Alpha
Occup=    0.00000
   1        -0.00000000
   2        -0.00000000
   3        -0.34295601
   4        -0.11546604
   5         0.00000000
   6         0.00000000
   7        -0.00000000
   8         0.95860935
   9         0.32274349
  10        -0.00000000
Sym=     8a  
Ene=     0.1062
Spin= Beta
Occup=    0.00000
   1        -0.00000000
   2        -0.00000000
   3        -0.34295601
   4        -0.11546604
   5         0.00000000
   6         0.00000000
   7        -0.00000000
   8         0.95860935
   9         0.32274349
  10        -0.00000000
Sym=     9a  
Ene=     0.1062
Spin= Alpha
Occup=    0.00000
   1         0.00000000
   2         0.00000000
   3         0.11546604
   4        -0.34295601
   5        -0.00000000
   6         0.00000000
   7         0.00000000
   8        -0.32274349
   9         0.95860935
  10         0.00000000
Sym=     9a  
Ene=     0.1062
Spin= Beta
Occup=    0.00000
   1         0.00000000
   2         0.00000000
   3         0.11546604
   4        -0.34295601
   5        -0.00000000
   6         0.00000000
   7         0.00000000
   8        -0.32274349
   9         0.95860935
  10         0.00000000
Sym=    10a  
Ene=     0.2280
Spin= Alpha
Occup=    0.00000
   1         0.06144648
   2         0.56487041
   3        -0.00000000
   4         0.00000000
   5         0.12636311
   6        -0.04151426
   7        -0.63788262
   8         0.00000000
   9        -0.00000000
  10         0.93095533
Sym=    10a  
Ene=     0.2280
Spin= Beta
Occup=    0.00000
   1         0.06144648
   2         0.56487041
   3        -0.00000000
   4         0.00000000
   5         0.12636311
   6        -0.04151426
   7        -0.63788262
   8         0.00000000
   9        -0.00000000
  10         0.93095533
