   This run of MOLCAS is using the pymolcas driver

                             OPE
                             OPE          NMOL  CASOP  ENMOLC A   SO
                 OPE        NMOLC        AS  OP EN  MO LC     AS  OP
                OPENM       OL CA        SO  PE NM  OL CA     SOP EN
                OP EN      MO   LC       AS  OP ENMOL  CASO   PENMOL
                OP  EN     MO   LC       AS  OP EN     MO     LC ASO
               OP   E  NMOL  C  AS       OP  EN MO     LC     AS  OP
               OP  E   NMO   LC AS        OPEN  MO     LCASOP EN   M
               O  PEN   MO  LCA  SO
            OPE   NMO   L   CAS    OP
        OPENMOL  CASOP     ENMOL   CASOPE
     OPENMOLCA   SOPENMOLCASOPEN   MOLCASOPE
    OPENMOLCAS   OP           EN   MOL    CAS
    OPENMOLCAS       OP  ENM        O     LCA
    OPENMOLCAS    OPEN  MOLCASO     P  E  NMO
    OPENMOLCAS     OP               E  N  MOL
    OPENMOLCA   SO           PENM   O  L  CAS    OPEN    MO    LCAS
    OPENMOLCA   SOP           ENM   O  L  CAS   OP  EN  MOLC  AS   O
    OPENMOLCA   SOPE           NM      O  LCA   S      OP  EN MO
    OPENMOLC                AS         O  PEN   M      OL  CA  SOPE
    OPENMO        LCASOPE  NMOL        C  ASO   P      ENMOLC     AS
    OPE     NMO      LCA  SO     P     E   NM   OL  CA SO  PE N   MO
          OPENMOLCA            SOPE   NMO        LCAS  O    P  ENMO
     OPENMOLCASOPENMOLCASOPENMOLCASOPENMOLCA
        OPENMOLCASOPENMOLCASOPENMOLCASOPE
            OPENMOLCASOPENMOLCASOPENM
               OPENMOLCASOPENMOLCA        version: ea724fe96-dirty
                   OPENMOLCASO
                       OPE                tag:

 OpenMolcas is free software; you can redistribute it and/or modify it
 under the terms of the GNU Lesser General Public License version 2.1.
 OpenMolcas is distributed in the hope that it will be useful, but it
 is provided "as is" and without any express or implied warranties.
 For more details see the full text of the license in the file
 LICENSE or in <http://www.gnu.org/licenses/>.

                 Copyright (C) The OpenMolcas Authors
           For the author list and the recommended citation,
                   consult the file CONTRIBUTORS.md

           *************************************************
           * pymolcas version py2.28                       *
           *   build c4a6d18ded8cb6cad61d2372a9abd97c      *
           *   (after the EMIL interpreter by V. Veryazov) *
           *************************************************

configuration info
------------------
C Compiler ID: Intel
C flags: -std=gnu99
Fortran Compiler ID: Intel
Fortran flags: -fpp -i8 -r8 -heap-arrays
Definitions: _MOLCAS_;_I8_;_LINUX_
Parallel: OFF (GA=OFF)


   -------------------------------------------------------------------------------
  |
  |              Project: 3.00
  |       Submitted from: /home/grierjones/DDCASPT2/iron_oxo_DDCASPT2/cluster/3.00
  |         Scratch area: /tmp/3.00
  |      Save outputs to: /home/grierjones/DDCASPT2/iron_oxo_DDCASPT2/cluster/3.00
  |               Molcas: /home/grierjones/Test/build
  |
  | Scratch area is empty
  |
  |       MOLCAS_DRIVER = /usr/local/pymolcas
  | MOLCAS_KEEP_WORKDIR = NO
  |  MOLCAS_NEW_WORKDIR = YES
  |       MOLCAS_NPROCS = 1
  |        MOLCAS_PRINT = NORMAL
  |       MOLCAS_SOURCE = /home/grierjones/Test/build
  |    MOLCAS_STRUCTURE = 0
  |
   -------------------------------------------------------------------------------

++ ---------   Input file   ---------

&GATEWAY
coord=3.00.xyz
Basis = ANO-RCC-VDZP
Group = nosymm
Expert
End of Input

&SEWARD
End of Input

&SCF
UHF
charge
2
spin
5

>>> COPY $WorkDir/3.00.scf.h5 $CurrDir/

&RASSCF
Title= RASSCF
FileOrb
/home/grierjones/DDCASPT2/iron_oxo_DDCASPT2/cluster/2.99/2.99.RasOrb
NACTEL
10 0 0
RAS2
14
Symmetry
1
Spin
5
charge
2
orblisting
all
ITERation
300 200

>>> COPY $WorkDir/3.00.rasscf.h5 $CurrDir/

>>> COPY $WorkDir/GMJ_Fock_MO.csv $CurrDir/3.00.GMJ_Fock_MO.csv

>>> COPY $WorkDir/GMJ_PT2_Fock_MO.csv $CurrDir/3.00.GMJ_PT2_Fock_MO.csv

&MOTRA
Frozen=0
LUMORB

>>> COPY $WorkDir/GMJ_one_int_indx.csv $CurrDir/3.00.GMJ_one_int_indx.csv

>>> COPY $WorkDir/GMJ_one_int.csv $CurrDir/3.00.GMJ_one_int.csv

>>> COPY $WorkDir/GMJ_two_int_indx.csv $CurrDir/3.00.GMJ_two_int_indx.csv

>>> COPY $WorkDir/GMJ_two_int.csv $CurrDir/3.00.GMJ_two_int.csv

&CASPT2
Frozen
0
MAXITER
50

>>> FOREACH i IN (B,E,F,G,H)

  >>> FOREACH j IN (P,M)

    >>> IF (-FILE GMJ_e2_${i}_${j}.csv)

      >>> COPY $WorkDir/GMJ_RHS_${i}_${j}.csv $CurrDir/GMJ_RHS_${i}_${j}.csv

      >>> COPY $WorkDir/GMJ_IVECW_${i}_${j}.csv $CurrDir/GMJ_IVECW_${i}_${j}.csv

      >>> COPY $WorkDir/GMJ_IVECX_${i}_${j}.csv $CurrDir/GMJ_IVECX_${i}_${j}.csv

      >>> COPY $WorkDir/GMJ_IVECC2_${i}_${j}.csv $CurrDir/GMJ_IVECC2_${i}_${j}.csv

      >>> COPY $WorkDir/GMJ_e2_${i}_${j}.csv $CurrDir/GMJ_e2_${i}_${j}.csv

    >>> END IF

  >>> END FOREACH

>>> END FOREACH

>>> FOREACH i IN (A,C,D)

  >>> IF (-FILE GMJ_e2_$i.csv)

    >>> COPY $WorkDir/GMJ_RHS_$i.csv $CurrDir/GMJ_RHS_$i.csv

    >>> COPY $WorkDir/GMJ_IVECW_$i.csv $CurrDir/GMJ_IVECW_$i.csv

    >>> COPY $WorkDir/GMJ_IVECX_$i.csv $CurrDir/GMJ_IVECX_$i.csv

    >>> COPY $WorkDir/GMJ_IVECC2_$i.csv $CurrDir/GMJ_IVECC2_$i.csv

    >>> COPY $WorkDir/GMJ_e2_$i.csv $CurrDir/GMJ_e2_$i.csv

  >>> END IF

>>> END FOREACH

-- ----------------------------------

--- Start Module: gateway at Sun Dec 22 22:06:44 2024 ---
 
()()()()()()()()()()()()()()()()()()()()()()()()()()()()()()()()()()()()()()()()()()()()()()()()()()

                                              &GATEWAY

                                   only a single process is used
                       available to each process: 2.0 GB of memory, 1 thread?
()()()()()()()()()()()()()()()()()()()()()()()()()()()()()()()()()()()()()()()()()()()()()()()()()()
 
 ###############################################################################
 ###############################################################################
 ###                                                                         ###
 ###                                                                         ###
 ###                                                                         ###
 ###    WARNING: EXPERT option is ON!                                        ###
 ###                                                                         ###
 ###                                                                         ###
 ###############################################################################
 ###############################################################################
 
++    Symmetry information:
      ---------------------
 
                    Character Table for C1 
 
                             E  
                    a        1  x, y, xy, Rz, z, xz, Ry, yz, Rx, I
--
 
 
++    Basis set information:
      ----------------------
 
 
      Basis set label: O.ANO-RCC...3S2P1D.
 
      Electronic valence basis set:
      ------------------
      Associated Effective Charge   8.000000 au
      Associated Actual Charge      8.000000 au
      Nuclear Model: Point charge
 
      Shell  nPrim  nBasis  Cartesian Spherical Contaminant
         s      14       3        X                  
         p       9       2        X                  
         d       4       1                 X         
 
 
      Basis set label: FE.ANO-RCC...5S4P2D1F.
 
      Electronic valence basis set:
      ------------------
      Associated Effective Charge  26.000000 au
      Associated Actual Charge     26.000000 au
      Nuclear Model: Point charge
 
      Shell  nPrim  nBasis  Cartesian Spherical Contaminant
         s      21       5        X                  
         p      15       4        X                  
         d      10       2                 X         
         f       6       1                 X         
--
 
 
++    Molecular structure info:
      -------------------------
 
                    ************************************************ 
                    **** Cartesian Coordinates / Bohr, Angstrom **** 
                    ************************************************ 
 
     Center  Label                x              y              z                     x              y              z
        1      O1               0.000000       0.000000       4.346748              0.000000       0.000000       2.300200
        2      FE2              0.000000       0.000000      -1.323186              0.000000       0.000000      -0.700200
--
 
 
            Nuclear Potential Energy             36.68472864 au
 
 ###############################################################################
 ###############################################################################
 ###                                                                         ###
 ###                                                                         ###
 ###    There were warnings during the execution                             ###
 ###    Please, check the output with care!                                  ###
 ###                                                                         ###
 ###                                                                         ###
 ###############################################################################
 ###############################################################################
--- Stop Module: gateway at Sun Dec 22 22:06:44 2024 /rc=_RC_ALL_IS_WELL_ ---
*** files: xmldump
    saved to directory /home/grierjones/DDCASPT2/iron_oxo_DDCASPT2/cluster/3.00

--- Start Module: seward at Sun Dec 22 22:06:44 2024 ---
 
()()()()()()()()()()()()()()()()()()()()()()()()()()()()()()()()()()()()()()()()()()()()()()()()()()

                                              &SEWARD

                                   only a single process is used
                       available to each process: 2.0 GB of memory, 1 thread?
()()()()()()()()()()()()()()()()()()()()()()()()()()()()()()()()()()()()()()()()()()()()()()()()()()
 
 ###############################################################################
 ###############################################################################
 ###                                                                         ###
 ###                                                                         ###
 ###                                                                         ###
 ###    WARNING: EXPERT option is ON!                                        ###
 ###                                                                         ###
 ###                                                                         ###
 ###############################################################################
 ###############################################################################
               SEWARD will generate:
                  Multipole Moment integrals up to order  2
                  Kinetic Energy integrals
                  Nuclear Attraction integrals (point charge)
                  One-Electron Hamiltonian integrals
                  Velocity integrals
                  Relativistic Douglas-Kroll-Hess integrals:
                    - Parametrization         : EXP
                    - DKH order of Hamiltonian: 2
                    - DKH order of Properties : 0
                         - multipole moment operators
                         - electric potential operators
                         - contact operators
                  Atomic mean-field integrals
                  Two-Electron Repulsion integrals
 
                   Integrals are discarded if absolute value <: 0.10E-13
                   Integral cutoff threshold is set to       <: 0.10E-15
 
            Nuclear Potential Energy             36.68472864 au
 
 
      Basis set specifications :
      Symmetry species         a  
      Basis functions           48
 
 
  Input file to MOLDEN was generated!
 
 ###############################################################################
 ###############################################################################
 ###                                                                         ###
 ###                                                                         ###
 ###    There were warnings during the execution                             ###
 ###    Please, check the output with care!                                  ###
 ###                                                                         ###
 ###                                                                         ###
 ###############################################################################
 ###############################################################################
--- Stop Module: seward at Sun Dec 22 22:06:45 2024 /rc=_RC_ALL_IS_WELL_ ---
*** files: 3.00.GssOrb 3.00.guessorb.h5 3.00.guessorb.molden xmldump
    saved to directory /home/grierjones/DDCASPT2/iron_oxo_DDCASPT2/cluster/3.00

*** symbolic link created: INPORB -> 3.00.GssOrb
--- Start Module: scf at Sun Dec 22 22:06:45 2024 ---
 
()()()()()()()()()()()()()()()()()()()()()()()()()()()()()()()()()()()()()()()()()()()()()()()()()()

                                                &SCF

                                   only a single process is used
                       available to each process: 2.0 GB of memory, 1 thread?
()()()()()()()()()()()()()()()()()()()()()()()()()()()()()()()()()()()()()()()()()()()()()()()()()()
 
 *** Possible bug in opening file
 *** isFreeUnit resets the unit number
++    Input section:
      --------------
 
      Header of the integral files:
      
       Integrals generated by seward 4.2.0  , Sun Dec 22 22:06:44 2024
 
 
      Cartesian coordinates in Angstrom:
      -----------------------------------------------------
      No.  Label        X            Y            Z        
      -----------------------------------------------------
       1   O1         0.00000000   0.00000000   2.30020000
       2   FE2        0.00000000   0.00000000  -0.70020000
      -----------------------------------------------------
      Nuclear repulsion energy =   36.68472864
--
 
++    Orbital specifications:
      -----------------------
 
      Symmetry species               1
                                     a
      Frozen orbitals                0
      Start temperature = 0.500
      End temperature   = 0.010
      Temperature Factor= 0.460
      Deleted orbitals               0
      Total number of orbitals      48
      Number of basis functions     48
--
 
      Molecular charge                           2.000
 
++    Optimization specifications:
      ----------------------------
 
      SCF Algorithm: Conventional USCF
      D(i)-D(i-1) density differences are used
      Number of density matrices in core                5
      Maximum number of NDDO SCF iterations           400
      Maximum number of HF SCF iterations             400
      Threshold for SCF energy change            0.10E-08
      Threshold for density matrix               0.10E-03
      Threshold for Fock matrix                  0.15E-03
      Threshold for linear dependence            0.10E-08
      Threshold at which DIIS is turned on       0.15E+00
      Threshold at which QNR/C2DIIS is turned on 0.75E-01
      Threshold for Norm(delta) (QNR/C2DIIS)     0.20E-04
      DIIS extrapolation of the SCF procedure
      All orbitals punched on: UHFORB
--
 
      Input vectors read from INPORB
      Orbital file label: *Guess orbitals
 
 
++ Convergence information
                               UHF SCF        iterations: Energy and convergence statistics
 
Iter     Tot. SCF        One-elec.       Two-elec.     Energy      Max Dij or  Max Fij      DNorm      TNorm      AccCon     Time
         Energy          Energy          Energy        Change      Delta Norm                                                in Sec.
 
 The total and one-electron energies are shifted by a value of      1000. a.u.
 
   1  -343.224802036  -904.820157568   524.910626890   0.00E+00    0.15E+00*   0.40E+00*    0.75E+01   0.18E+03   None         0.
   2  -343.480305000  -901.792191340   521.627157697  -0.26E+00*   0.11E+00*   0.20E+00*    0.11E+01   0.18E+03   EDIIS        0.
   3  -342.138422693  -945.693665345   566.870514010   0.13E+01*   0.75E-01*   0.22E+00*    0.17E+01   0.19E+03   EDIIS        0.
   4  -342.889437786  -887.800419498   508.226253070  -0.75E+00*   0.15E+00*   0.11E+00*    0.17E+01   0.18E+03   EDIIS        0.
   5  -344.465623661  -917.611749925   536.461397621  -0.16E+01*   0.30E+00*   0.12E+00*    0.13E+01   0.18E+03   EDIIS        0.
   6  -344.620406588  -901.611694868   520.306559638  -0.15E+00*   0.56E+00*   0.19E+00*    0.18E+01   0.18E+03   EDIIS        0.
   7  -344.588756573  -925.918472640   544.644987424   0.32E-01*   0.11E+00*   0.10E+00*    0.16E+01   0.19E+03   EDIIS        0.
   8  -344.910758326  -912.541877276   530.946390307  -0.32E+00*   0.12E+00*   0.29E-01*    0.78E+00   0.18E+03   EDIIS        0.
   9  -344.916774550  -914.583092878   532.981589686  -0.60E-02*   0.57E-01*   0.39E-01*    0.24E+00   0.18E+03   EDIIS        0.
  10  -344.916487421  -912.349961258   530.748745195   0.29E-03*   0.14E+00*   0.22E-01*    0.17E+00   0.18E+03   EDIIS        0.
  11  -345.085197556  -915.260442659   533.490516460  -0.17E+00*   0.36E+00*   0.98E-01*    0.10E+01   0.18E+03   EDIIS        0.
  12  -345.102402144  -911.944788760   530.157657974  -0.17E-01*   0.62E+00*   0.12E+00*    0.46E+00   0.18E+03   EDIIS        0.
  13  -345.150141447  -918.229759518   536.394889429  -0.48E-01*   0.88E+00*   0.17E+00*    0.84E+00   0.18E+03   EDIIS        0.
  14  -345.273330444  -908.455633518   526.497574432  -0.12E+00*   0.26E+00*   0.20E+00*    0.12E+01   0.18E+03   EDIIS        0.
  15  -345.351004088  -915.949854438   533.914121708  -0.78E-01*   0.18E+00*   0.12E+00*    0.78E+00   0.18E+03   EDIIS        0.
  16  -345.367982689  -911.104084219   529.051372887  -0.17E-01*   0.49E-01*   0.75E-01*    0.39E+00   0.18E+03   EDIIS        0.
  17  -345.373047833  -914.305408959   532.247632484  -0.51E-02*   0.27E-01*   0.47E-01*    0.22E+00   0.18E+03   EDIIS        0.
 
       Fermi aufbau procedure completed!
      nOcc(alpha)=   18
      nOcc(beta) =   14
 
  18  -345.374849419  -912.391564300   530.331986238  -0.18E-02*   0.15E-01*   0.16E-01*    0.11E+00   0.18E+03   EDIIS        0.
  19  -345.375434215  -913.471706657   531.411543799  -0.58E-03*   0.83E-02*   0.84E-02*    0.62E-01   0.18E+03   EDIIS        0.
  20  -345.375594385  -912.886359286   530.826036259  -0.16E-03*   0.42E-02*   0.48E-02*    0.34E-01   0.18E+03   EDIIS        0.
  21  -345.375650651  -913.210327892   531.149948599  -0.56E-04*   0.26E-02*   0.25E-02*    0.18E-01   0.18E+03   EDIIS        0.
  22  -345.375664567  -913.033098990   530.972705780  -0.14E-04*   0.19E-02*   0.11E-02*    0.11E-01   0.18E+03   c2DIIS       0.
  23  -345.375672387  -913.104562393   531.044161363  -0.78E-05*   0.19E-02*   0.31E-03*    0.34E-02   0.18E+03   QNRc2DIIS    0.
  24  -345.375673411  -913.100333115   531.039931061  -0.10E-05*   0.51E-02*   0.22E-03*    0.24E-02   0.18E+03   QNRc2DIIS    0.
  25  -345.375674458  -913.106867080   531.046463980  -0.10E-05*   0.40E-03*   0.11E-03     0.63E-02   0.18E+03   QNRc2DIIS    0.
  26  -345.375674512  -913.100858956   531.040455801  -0.55E-07*   0.31E-03*   0.48E-04     0.55E-03   0.18E+03   QNRc2DIIS    0.
  27  -345.375674524  -913.102231350   531.041828183  -0.12E-07*   0.15E-04    0.13E-05     0.41E-03   0.18E+03   QNRc2DIIS    0.
  28  -345.375674524  -913.102233054   531.041829887  -0.14E-10    0.41E-05    0.26E-06     0.20E-04   0.18E+03   QNRc2DIIS    0.
 
       Convergence after 28 Macro Iterations
--
 
 *****************************************************************************************************************************
 *                                                                                                                           *
 *                                             SCF/KS-DFT Program, Final results                                             *
 *                                                                                                                           *
 *                                                                                                                           *
 *                                                                                                                           *
 *                                                       Final Results                                                       *
 *                                                                                                                           *
 *****************************************************************************************************************************
 
::    Total SCF energy                              -1345.3756745244
      One-electron energy                           -1913.1022330539
      Two-electron energy                             531.0418298869
      Nuclear repulsion energy                         36.6847286426
      Kinetic energy (interpolated)                  1399.9005706129
      Virial theorem                                    0.9610508794
      Total spin, S(S+1)                                7.0122162599
      Total spin, S                                     2.1948499513
      Max non-diagonal density matrix element           0.0000029289
      Max non-diagonal Fock matrix element              0.0000004495
 
 
      All orbitals with orbital energies smaller than  E(LUMO)+0.5 are printed
 
++    Molecular orbitals:
      -------------------
 
      Title: UHF orbitals (alpha)

      Molecular orbitals for symmetry species 1: a  
 
          Orbital            1         2         3         4         5         6         7         8         9        10    
          Energy         -264.3059  -33.1253  -28.2194  -28.1845  -28.1843  -21.0701   -5.0793   -3.6827   -3.6065   -3.6060
          Occ. No.          1.0000    1.0000    1.0000    1.0000    1.0000    1.0000    1.0000    1.0000    1.0000    1.0000
 
        1 O1     1s         0.0000   -0.0000   -0.0000    0.0000   -0.0000    1.0000   -0.0000   -0.0000    0.0000    0.0001
        2 O1     2s         0.0000   -0.0000   -0.0000    0.0000   -0.0001   -0.0002   -0.0001   -0.0000    0.0000    0.0009
        3 O1     3s        -0.0000   -0.0001   -0.0000    0.0000   -0.0001   -0.0006   -0.0002   -0.0000    0.0000    0.0009
        4 O1     2px       -0.0000    0.0000   -0.0000   -0.0000    0.0000   -0.0000    0.0000    0.0002    0.0000   -0.0000
        5 O1     3px        0.0000   -0.0000   -0.0001   -0.0000    0.0000    0.0000   -0.0000    0.0005    0.0000   -0.0000
        6 O1     2py       -0.0000    0.0000    0.0000   -0.0000   -0.0000    0.0000   -0.0000   -0.0000    0.0002   -0.0000
        7 O1     3py       -0.0000    0.0000    0.0000   -0.0001   -0.0000   -0.0000   -0.0000   -0.0000    0.0005   -0.0000
        8 O1     2pz       -0.0000    0.0000   -0.0000   -0.0000    0.0000   -0.0002   -0.0000    0.0000   -0.0000   -0.0010
        9 O1     3pz       -0.0000   -0.0000    0.0000   -0.0000    0.0000    0.0002    0.0000    0.0000   -0.0000   -0.0008
       10 O1     3d2-      -0.0000   -0.0000   -0.0000    0.0000    0.0000    0.0001   -0.0000    0.0000   -0.0000    0.0000
       11 O1     3d1-      -0.0000   -0.0000   -0.0000    0.0000    0.0000    0.0000    0.0000    0.0000   -0.0001   -0.0000
       12 O1     3d0       -0.0000    0.0000   -0.0000    0.0000   -0.0000    0.0003   -0.0000   -0.0000    0.0000    0.0003
       13 O1     3d1+       0.0000   -0.0000    0.0000    0.0000   -0.0000    0.0000   -0.0000   -0.0001   -0.0000    0.0000
       14 O1     3d2+       0.0000    0.0000   -0.0000    0.0000   -0.0000   -0.0012    0.0000   -0.0000   -0.0000   -0.0000
       15 FE2    1s         1.0000   -0.0000    0.0000   -0.0000    0.0000    0.0000   -0.0000    0.0000   -0.0000   -0.0000
       16 FE2    2s         0.0000    1.0000   -0.0000   -0.0000    0.0002    0.0000   -0.0030   -0.0000    0.0000   -0.0000
       17 FE2    3s         0.0000    0.0030   -0.0000   -0.0000    0.0000    0.0000    0.9999   -0.0000    0.0000    0.0012
       18 FE2    4s         0.0000   -0.0002   -0.0000   -0.0000    0.0001    0.0000    0.0005    0.0000   -0.0000   -0.0010
       19 FE2    5s         0.0000    0.0003   -0.0000   -0.0000    0.0000   -0.0000    0.0006   -0.0000    0.0000    0.0001
       20 FE2    2px       -0.0000    0.0000    0.9993    0.0366    0.0000    0.0000    0.0000   -0.0031   -0.0001    0.0000
       21 FE2    3px       -0.0000    0.0000    0.0031    0.0001    0.0000    0.0000    0.0000    0.9992    0.0366   -0.0000
       22 FE2    4px       -0.0000   -0.0000   -0.0005   -0.0000   -0.0000    0.0000    0.0000   -0.0098   -0.0003    0.0000
       23 FE2    5px       -0.0000    0.0000    0.0013    0.0000    0.0000    0.0000   -0.0000    0.0051    0.0001   -0.0000
       24 FE2    2py       -0.0000   -0.0000   -0.0366    0.9993    0.0000    0.0000    0.0000    0.0001   -0.0026    0.0000
       25 FE2    3py        0.0000   -0.0000   -0.0001    0.0026    0.0000    0.0000   -0.0000   -0.0365    0.9993   -0.0000
       26 FE2    4py        0.0000    0.0000    0.0000   -0.0003   -0.0000    0.0000   -0.0000    0.0004   -0.0073    0.0000
       27 FE2    5py        0.0000   -0.0000   -0.0000    0.0009    0.0000    0.0000    0.0000   -0.0002    0.0032   -0.0000
       28 FE2    2pz       -0.0000   -0.0002    0.0000   -0.0000    1.0000    0.0000    0.0000    0.0000   -0.0000   -0.0026
       29 FE2    3pz        0.0000   -0.0000    0.0000   -0.0000    0.0026    0.0000   -0.0013   -0.0000    0.0000    0.9999
       30 FE2    4pz       -0.0000    0.0000    0.0000    0.0000   -0.0003    0.0000   -0.0000    0.0000   -0.0000   -0.0082
       31 FE2    5pz        0.0000    0.0000    0.0000   -0.0000    0.0010   -0.0000    0.0003   -0.0000    0.0000    0.0033
       32 FE2    3d2-      -0.0000   -0.0000   -0.0000    0.0000   -0.0000   -0.0000   -0.0009   -0.0000    0.0000   -0.0000
       33 FE2    4d2-       0.0000    0.0000   -0.0000    0.0000    0.0000   -0.0000    0.0003   -0.0000    0.0000    0.0000
       34 FE2    3d1-      -0.0000    0.0000    0.0000   -0.0000   -0.0000    0.0000    0.0000    0.0000   -0.0008    0.0000
       35 FE2    4d1-      -0.0000   -0.0000   -0.0000    0.0000    0.0000    0.0000   -0.0000    0.0000   -0.0001    0.0000
       36 FE2    3d0       -0.0000   -0.0003    0.0000    0.0000   -0.0000    0.0000   -0.0068   -0.0000   -0.0000   -0.0010
       37 FE2    4d0        0.0000    0.0002    0.0000   -0.0000    0.0001    0.0000    0.0024   -0.0000   -0.0000   -0.0006
       38 FE2    3d1+      -0.0000   -0.0000   -0.0000   -0.0000    0.0000    0.0000   -0.0000   -0.0008   -0.0000    0.0000
       39 FE2    4d1+      -0.0000    0.0000    0.0000    0.0000    0.0000    0.0000    0.0000   -0.0001   -0.0000    0.0000
       40 FE2    3d2+       0.0000    0.0005    0.0000    0.0000    0.0000    0.0000    0.0117    0.0000    0.0000    0.0000
       41 FE2    4d2+      -0.0000   -0.0004   -0.0000    0.0000   -0.0000    0.0000   -0.0042    0.0000   -0.0000   -0.0000
       42 FE2    4f3-      -0.0000   -0.0000   -0.0000    0.0002    0.0000   -0.0000   -0.0000   -0.0005    0.0049   -0.0000
       43 FE2    4f2-       0.0000   -0.0000    0.0000    0.0000   -0.0000   -0.0000    0.0000    0.0000   -0.0000   -0.0005
       44 FE2    4f1-      -0.0000    0.0000    0.0000   -0.0002   -0.0000    0.0000   -0.0000    0.0001   -0.0048    0.0000
       45 FE2    4f0       -0.0000    0.0000    0.0000    0.0000   -0.0000    0.0000   -0.0000    0.0000   -0.0000   -0.0012
       46 FE2    4f1+      -0.0000   -0.0000   -0.0001   -0.0000   -0.0000    0.0000    0.0000   -0.0039   -0.0002    0.0000
       47 FE2    4f2+      -0.0000    0.0000    0.0000   -0.0000    0.0002    0.0000   -0.0000   -0.0000    0.0000    0.0067
       48 FE2    4f3+       0.0000   -0.0000    0.0002    0.0000    0.0000    0.0000    0.0000    0.0048    0.0005   -0.0000
 
          Orbital           11        12        13        14        15        16        17        18        19        20    
          Energy           -1.6318   -1.3624   -1.3530   -1.3521   -1.3214   -1.2727   -1.0475   -0.9405   -0.5465   -0.3891
          Occ. No.          1.0000    1.0000    1.0000    1.0000    1.0000    1.0000    1.0000    1.0000    0.0000    0.0000
 
        1 O1     1s         0.0002    0.0005   -0.0000   -0.0000   -0.0011    0.0000    0.0000    0.0017   -0.0042   -0.0000
        2 O1     2s         0.9980    0.0162   -0.0000    0.0000   -0.0280    0.0000    0.0000    0.0566   -0.0633   -0.0000
        3 O1     3s        -0.0087    0.0035    0.0000   -0.0000   -0.0066    0.0000   -0.0000   -0.0202   -0.0108   -0.0000
        4 O1     2px        0.0000    0.0000   -0.0000   -0.0021   -0.0000    0.0002    0.0395    0.0000    0.0000    0.1476
        5 O1     3px       -0.0000   -0.0000   -0.0000   -0.0053    0.0000   -0.0003   -0.0018    0.0000    0.0000    0.0333
        6 O1     2py        0.0000    0.0000   -0.0000    0.0001   -0.0000    0.0053    0.9979   -0.0000   -0.0000   -0.0060
        7 O1     3py       -0.0000   -0.0000    0.0000    0.0002   -0.0000   -0.0070   -0.0445   -0.0000   -0.0000   -0.0013
        8 O1     2pz       -0.0377    0.0044   -0.0000    0.0000   -0.0103    0.0000    0.0000    0.9713    0.1867   -0.0000
        9 O1     3pz       -0.0122   -0.0049   -0.0000    0.0000    0.0090   -0.0000   -0.0000    0.0081    0.0181   -0.0000
       10 O1     3d2-       0.0035    0.0001   -0.0001    0.0000   -0.0001   -0.0000   -0.0000    0.0002   -0.0001    0.0000
       11 O1     3d1-       0.0000    0.0000    0.0000   -0.0000   -0.0000    0.0005   -0.0123    0.0000    0.0000    0.0002
       12 O1     3d0        0.0049    0.0003   -0.0000   -0.0000   -0.0005   -0.0000   -0.0000   -0.0168    0.0004    0.0000
       13 O1     3d1+       0.0000    0.0000    0.0000    0.0007   -0.0000    0.0000   -0.0005   -0.0000   -0.0000   -0.0051
       14 O1     3d2+      -0.0443   -0.0006   -0.0000   -0.0000    0.0008   -0.0000   -0.0000   -0.0029    0.0016    0.0000
       15 FE2    1s        -0.0001   -0.0000   -0.0000    0.0000    0.0000   -0.0000    0.0000    0.0003    0.0001   -0.0000
       16 FE2    2s        -0.0004   -0.0006   -0.0000    0.0000    0.0001   -0.0000    0.0000    0.0020    0.0010   -0.0000
       17 FE2    3s        -0.0026   -0.0143   -0.0000    0.0000    0.0008   -0.0000    0.0000    0.0115    0.0033   -0.0000
       18 FE2    4s         0.0010    0.0009    0.0000    0.0000    0.0026   -0.0000   -0.0000   -0.0871    0.9829   -0.0000
       19 FE2    5s        -0.0048   -0.0031    0.0000   -0.0000    0.0035    0.0000    0.0000    0.0262   -0.2234    0.0000
       20 FE2    2px        0.0000    0.0000    0.0000    0.0000   -0.0000    0.0000   -0.0000   -0.0000    0.0000    0.0003
       21 FE2    3px        0.0000   -0.0000    0.0000    0.0008    0.0000    0.0000   -0.0001   -0.0000   -0.0000    0.0084
       22 FE2    4px       -0.0000    0.0000   -0.0000   -0.0001    0.0000   -0.0000    0.0001    0.0000    0.0000    0.9694
       23 FE2    5px       -0.0000   -0.0000    0.0000    0.0009   -0.0000    0.0000   -0.0000   -0.0000    0.0000    0.0691
       24 FE2    2py        0.0000    0.0000   -0.0000   -0.0000   -0.0000    0.0000   -0.0000    0.0000    0.0000   -0.0000
       25 FE2    3py       -0.0000   -0.0000   -0.0000   -0.0000    0.0000    0.0008   -0.0013    0.0000    0.0000   -0.0003
       26 FE2    4py        0.0000    0.0000    0.0000    0.0000    0.0000   -0.0000    0.0035   -0.0000   -0.0000   -0.0361
       27 FE2    5py        0.0000    0.0000   -0.0000   -0.0000   -0.0000    0.0010   -0.0004    0.0000   -0.0000   -0.0026
       28 FE2    2pz       -0.0001   -0.0000   -0.0000   -0.0000    0.0000   -0.0000   -0.0000    0.0004    0.0001   -0.0000
       29 FE2    3pz       -0.0030   -0.0007   -0.0000   -0.0000    0.0011    0.0000    0.0000    0.0093    0.0028    0.0000
       30 FE2    4pz        0.0021   -0.0023    0.0000    0.0000    0.0042   -0.0000   -0.0000   -0.0653   -0.0535    0.0000
       31 FE2    5pz       -0.0012   -0.0013    0.0000   -0.0000    0.0024   -0.0000   -0.0000   -0.0034   -0.0033    0.0000
       32 FE2    3d2-       0.0001   -0.0634    0.9947   -0.0000   -0.0360    0.0000    0.0000   -0.0001    0.0001    0.0000
       33 FE2    4d2-      -0.0000    0.0047   -0.0724    0.0000    0.0024   -0.0000   -0.0000    0.0001   -0.0010   -0.0000
       34 FE2    3d1-       0.0000   -0.0000   -0.0000   -0.0365    0.0000    0.9981   -0.0152    0.0000    0.0000    0.0000
       35 FE2    4d1-       0.0000    0.0000    0.0000    0.0026   -0.0000   -0.0525    0.0031   -0.0000   -0.0000   -0.0001
       36 FE2    3d0        0.0127   -0.4924   -0.0000   -0.0000    0.8683   -0.0000    0.0000    0.0358    0.0107   -0.0000
       37 FE2    4d0        0.0007    0.0359    0.0000    0.0000   -0.0553    0.0000   -0.0000   -0.0186   -0.0142    0.0000
       38 FE2    3d1+      -0.0000    0.0000    0.0000    0.9969    0.0000    0.0365   -0.0006   -0.0000   -0.0000   -0.0006
       39 FE2    4d1+      -0.0000   -0.0000   -0.0000   -0.0722    0.0000   -0.0019    0.0001    0.0000    0.0000    0.0012
       40 FE2    3d2+      -0.0009    0.8649    0.0729   -0.0000    0.4912   -0.0000    0.0000    0.0020   -0.0007   -0.0000
       41 FE2    4d2+       0.0001   -0.0647   -0.0053    0.0000   -0.0323    0.0000   -0.0000   -0.0011    0.0142    0.0000
       42 FE2    4f3-       0.0000   -0.0000    0.0000   -0.0000   -0.0000    0.0000   -0.0000    0.0000   -0.0000   -0.0000
       43 FE2    4f2-       0.0000    0.0000   -0.0005    0.0000    0.0000    0.0000   -0.0000   -0.0000   -0.0000   -0.0000
       44 FE2    4f1-       0.0000    0.0000   -0.0000    0.0000   -0.0000   -0.0007    0.0005   -0.0000   -0.0000    0.0000
       45 FE2    4f0        0.0003    0.0003   -0.0000   -0.0000   -0.0006    0.0000   -0.0000   -0.0015   -0.0004   -0.0000
       46 FE2    4f1+      -0.0000   -0.0000   -0.0000   -0.0007    0.0000   -0.0000    0.0000    0.0000    0.0000   -0.0001
       47 FE2    4f2+      -0.0000   -0.0004   -0.0000    0.0000   -0.0002    0.0000    0.0000    0.0000    0.0000    0.0000
       48 FE2    4f3+      -0.0000    0.0000    0.0000    0.0000    0.0000    0.0000   -0.0000   -0.0000    0.0000    0.0002
 
          Orbital           21        22        23        24    
          Energy           -0.3732   -0.3516   -0.2923   -0.2133
          Occ. No.          0.0000    0.0000    0.0000    0.0000
 
        1 O1     1s         0.0000   -0.0151   -0.0000   -0.0185
        2 O1     2s         0.0000   -0.1767   -0.0000   -0.1729
        3 O1     3s         0.0000   -0.0316   -0.0000   -0.0493
        4 O1     2px       -0.0026    0.0000   -0.9537   -0.0000
        5 O1     3px       -0.0001    0.0000   -0.2619   -0.0000
        6 O1     2py       -0.0553   -0.0000    0.0378    0.0000
        7 O1     3py        0.0013   -0.0000    0.0104    0.0000
        8 O1     2pz       -0.0000    0.2351    0.0000    0.0327
        9 O1     3pz       -0.0000    0.0245    0.0000    0.0271
       10 O1     3d2-      -0.0000   -0.0003   -0.0000   -0.0001
       11 O1     3d1-      -0.0037    0.0000   -0.0005   -0.0000
       12 O1     3d0       -0.0000    0.0037   -0.0000   -0.0041
       13 O1     3d1+      -0.0001   -0.0000    0.0122   -0.0000
       14 O1     3d2+      -0.0000    0.0037    0.0000    0.0012
       15 FE2    1s        -0.0000    0.0001    0.0000    0.0001
       16 FE2    2s        -0.0000    0.0009    0.0000    0.0004
       17 FE2    3s        -0.0000    0.0051    0.0000    0.0024
       18 FE2    4s         0.0000    0.0855    0.0000    0.2639
       19 FE2    5s        -0.0000   -0.0492   -0.0000    0.9902
       20 FE2    2px        0.0000   -0.0000    0.0003    0.0000
       21 FE2    3px        0.0003   -0.0000    0.0071    0.0000
       22 FE2    4px        0.0373   -0.0000    0.2615    0.0000
       23 FE2    5px        0.0029   -0.0000    0.0162    0.0000
       24 FE2    2py        0.0003    0.0000   -0.0000    0.0000
       25 FE2    3py        0.0070    0.0000   -0.0003   -0.0000
       26 FE2    4py        0.9977    0.0000   -0.0105    0.0000
       27 FE2    5py        0.0773    0.0000   -0.0007   -0.0000
       28 FE2    2pz       -0.0000    0.0005    0.0000    0.0001
       29 FE2    3pz       -0.0000    0.0114    0.0000    0.0028
       30 FE2    4pz       -0.0000    1.0326    0.0000    0.0909
       31 FE2    5pz       -0.0000    0.0786    0.0000    0.0051
       32 FE2    3d2-      -0.0000   -0.0000   -0.0000    0.0000
       33 FE2    4d2-       0.0000   -0.0002   -0.0000    0.0008
       34 FE2    3d1-       0.0017    0.0000   -0.0005   -0.0000
       35 FE2    4d1-      -0.0031   -0.0000    0.0014   -0.0000
       36 FE2    3d0       -0.0000    0.0109    0.0000    0.0033
       37 FE2    4d0        0.0000   -0.0245   -0.0000   -0.0090
       38 FE2    3d1+       0.0001   -0.0000    0.0116    0.0000
       39 FE2    4d1+      -0.0001    0.0000   -0.0363   -0.0000
       40 FE2    3d2+      -0.0000    0.0005    0.0000   -0.0000
       41 FE2    4d2+       0.0000    0.0021    0.0000   -0.0104
       42 FE2    4f3-       0.0002    0.0000   -0.0000    0.0000
       43 FE2    4f2-       0.0000   -0.0000   -0.0000   -0.0000
       44 FE2    4f1-      -0.0001   -0.0000    0.0001   -0.0000
       45 FE2    4f0        0.0000   -0.0014   -0.0000   -0.0005
       46 FE2    4f1+      -0.0000    0.0000   -0.0018   -0.0000
       47 FE2    4f2+       0.0000    0.0000    0.0000    0.0000
       48 FE2    4f3+       0.0000   -0.0000    0.0001    0.0000
--
 
 
  Input file to MOLDEN was generated!
 
 
++    Static properties:
      ------------------
 
 
      LoProp Charges per center
 

                   O1       FE2   
      Nuclear      8.0000  26.0000
      Electronic  -7.9459 -24.0541
 
      Total        0.0541   1.9459
--
 
 
      All orbitals with orbital energies smaller than  E(LUMO)+0.5 are printed
 
++    Molecular orbitals:
      -------------------
 
      Title: UHF orbitals (beta)

      Molecular orbitals for symmetry species 1: a  
 
          Orbital            1         2         3         4         5         6         7         8         9        10    
          Energy         -264.3033  -32.9994  -28.0710  -28.0704  -28.0703  -21.0704   -4.7255   -3.2218   -3.2207   -3.1702
          Occ. No.          1.0000    1.0000    1.0000    1.0000    1.0000    1.0000    1.0000    1.0000    1.0000    1.0000
 
        1 O1     1s         0.0000   -0.0000    0.0000   -0.0000    0.0000    1.0000    0.0000   -0.0000    0.0001   -0.0000
        2 O1     2s         0.0000   -0.0000    0.0000   -0.0000    0.0001   -0.0002    0.0001   -0.0000    0.0011   -0.0000
        3 O1     3s         0.0000   -0.0000    0.0000   -0.0000    0.0001   -0.0006   -0.0000   -0.0000    0.0008   -0.0000
        4 O1     2px       -0.0000    0.0000    0.0000    0.0000    0.0000   -0.0000    0.0000    0.0000   -0.0000    0.0003
        5 O1     3px        0.0000   -0.0000    0.0001    0.0000   -0.0000    0.0000   -0.0000    0.0000   -0.0000    0.0006
        6 O1     2py       -0.0000    0.0000   -0.0000    0.0000    0.0000    0.0000   -0.0000    0.0001   -0.0000   -0.0000
        7 O1     3py       -0.0000    0.0000   -0.0000    0.0000    0.0000   -0.0000   -0.0000    0.0003    0.0000   -0.0000
        8 O1     2pz       -0.0000    0.0000   -0.0000    0.0000   -0.0000   -0.0002    0.0001    0.0000   -0.0011    0.0000
        9 O1     3pz       -0.0000    0.0000   -0.0000    0.0000   -0.0001    0.0002    0.0004    0.0000   -0.0003   -0.0000
       10 O1     3d2-      -0.0000   -0.0000   -0.0000    0.0000   -0.0000   -0.0001   -0.0000   -0.0000   -0.0000    0.0000
       11 O1     3d1-      -0.0000   -0.0000    0.0000    0.0000    0.0000   -0.0000    0.0000   -0.0000   -0.0000    0.0000
       12 O1     3d0       -0.0000   -0.0000   -0.0000   -0.0000    0.0000    0.0003   -0.0002   -0.0000    0.0002   -0.0000
       13 O1     3d1+       0.0000   -0.0000   -0.0000    0.0000    0.0000   -0.0000   -0.0000   -0.0000   -0.0000   -0.0001
       14 O1     3d2+       0.0000    0.0000   -0.0000   -0.0000    0.0000    0.0012    0.0000   -0.0000    0.0000   -0.0000
       15 FE2    1s         1.0000    0.0000    0.0000   -0.0000    0.0000    0.0000    0.0000    0.0000   -0.0000    0.0000
       16 FE2    2s        -0.0000    1.0000    0.0000   -0.0000    0.0002    0.0000    0.0005    0.0000    0.0000   -0.0000
       17 FE2    3s         0.0000   -0.0005   -0.0000    0.0000   -0.0000    0.0000    1.0000   -0.0000    0.0018   -0.0000
       18 FE2    4s         0.0000    0.0002   -0.0000    0.0000   -0.0001    0.0000    0.0035    0.0000   -0.0006    0.0000
       19 FE2    5s         0.0000   -0.0002   -0.0000    0.0000   -0.0000   -0.0000   -0.0022    0.0000    0.0000   -0.0000
       20 FE2    2px       -0.0000    0.0000    0.9993    0.0366   -0.0000    0.0000    0.0000    0.0001    0.0000    0.0029
       21 FE2    3px       -0.0000    0.0000   -0.0029   -0.0001    0.0000   -0.0000    0.0000    0.0365    0.0000    0.9993
       22 FE2    4px       -0.0000   -0.0000    0.0004    0.0000   -0.0000   -0.0000    0.0000    0.0000    0.0000   -0.0014
       23 FE2    5px       -0.0000    0.0000   -0.0010   -0.0000    0.0000   -0.0000   -0.0000   -0.0002   -0.0000   -0.0047
       24 FE2    2py       -0.0000   -0.0000   -0.0366    0.9993    0.0000    0.0000    0.0000    0.0019    0.0000   -0.0001
       25 FE2    3py        0.0000   -0.0000    0.0001   -0.0019   -0.0000    0.0000   -0.0000    0.9992    0.0000   -0.0366
       26 FE2    4py        0.0000    0.0000   -0.0000    0.0003    0.0000   -0.0000   -0.0000    0.0005    0.0000    0.0000
       27 FE2    5py        0.0000   -0.0000    0.0000   -0.0008   -0.0000    0.0000    0.0000   -0.0051   -0.0000    0.0002
       28 FE2    2pz       -0.0000   -0.0002    0.0000   -0.0000    1.0000   -0.0000    0.0000   -0.0000    0.0019   -0.0000
       29 FE2    3pz        0.0000   -0.0000   -0.0000    0.0000   -0.0019    0.0000   -0.0018   -0.0000    0.9998   -0.0000
       30 FE2    4pz       -0.0000    0.0000    0.0000   -0.0000    0.0002    0.0000    0.0001    0.0000    0.0001    0.0000
       31 FE2    5pz        0.0000   -0.0000   -0.0000    0.0000   -0.0008   -0.0000    0.0002    0.0000   -0.0052    0.0000
       32 FE2    3d2-       0.0000    0.0000   -0.0000    0.0000    0.0000    0.0000    0.0001    0.0000    0.0000   -0.0000
       33 FE2    4d2-       0.0000    0.0000   -0.0000    0.0000   -0.0000    0.0000    0.0000   -0.0000   -0.0000   -0.0000
       34 FE2    3d1-      -0.0000    0.0000    0.0000   -0.0000   -0.0000    0.0000   -0.0000   -0.0009   -0.0000    0.0000
       35 FE2    4d1-      -0.0000    0.0000    0.0000    0.0000    0.0000   -0.0000   -0.0000   -0.0001   -0.0000    0.0000
       36 FE2    3d0        0.0000    0.0000   -0.0000    0.0000   -0.0000    0.0000    0.0002    0.0000   -0.0015   -0.0000
       37 FE2    4d0       -0.0000    0.0000   -0.0000    0.0000   -0.0000    0.0000    0.0003    0.0000   -0.0001   -0.0000
       38 FE2    3d1+      -0.0000    0.0000   -0.0000   -0.0000    0.0000   -0.0000    0.0000   -0.0000    0.0000   -0.0010
       39 FE2    4d1+      -0.0000   -0.0000   -0.0000    0.0000    0.0000   -0.0000   -0.0000   -0.0000    0.0000   -0.0001
       40 FE2    3d2+      -0.0000   -0.0000    0.0000    0.0000   -0.0000   -0.0000   -0.0008    0.0000   -0.0000    0.0000
       41 FE2    4d2+      -0.0000   -0.0000   -0.0000   -0.0000    0.0000   -0.0000   -0.0002   -0.0000    0.0000    0.0000
       42 FE2    4f3-      -0.0000    0.0000   -0.0000    0.0001    0.0000   -0.0000   -0.0000    0.0024    0.0000   -0.0003
       43 FE2    4f2-      -0.0000    0.0000    0.0000   -0.0000    0.0000    0.0000    0.0000   -0.0000    0.0008    0.0000
       44 FE2    4f1-      -0.0000    0.0000    0.0000    0.0009    0.0000   -0.0000   -0.0000    0.0151    0.0000    0.0001
       45 FE2    4f0        0.0000   -0.0000   -0.0000    0.0000   -0.0006    0.0000   -0.0000    0.0000   -0.0114    0.0000
       46 FE2    4f1+      -0.0000    0.0000   -0.0001    0.0000    0.0000   -0.0000    0.0000    0.0006    0.0000   -0.0020
       47 FE2    4f2+       0.0000   -0.0000   -0.0000    0.0000   -0.0007   -0.0000   -0.0000    0.0000   -0.0106    0.0000
       48 FE2    4f3+       0.0000   -0.0000    0.0001    0.0000    0.0000    0.0000   -0.0000    0.0003    0.0000    0.0024
 
          Orbital           11        12        13        14        15        16        17        18        19        20    
          Energy           -1.6327   -1.1258   -1.0478   -0.9441   -0.5144   -0.3974   -0.3848   -0.3836   -0.3590   -0.3577
          Occ. No.          1.0000    1.0000    1.0000    1.0000    0.0000    0.0000    0.0000    0.0000    0.0000    0.0000
 
        1 O1     1s         0.0002    0.0000   -0.0000    0.0017   -0.0050    0.0012    0.0000   -0.0000    0.0000   -0.0000
        2 O1     2s         0.9983    0.0000   -0.0000    0.0571   -0.0702    0.0156    0.0000   -0.0000    0.0000   -0.0000
        3 O1     3s        -0.0087    0.0000    0.0000   -0.0198   -0.0128    0.0006   -0.0000   -0.0000    0.0000   -0.0000
        4 O1     2px       -0.0000   -0.0002    0.9977    0.0000    0.0000   -0.0000   -0.0000   -0.0297    0.0092   -0.0577
        5 O1     3px        0.0000   -0.0003   -0.0445   -0.0000    0.0000   -0.0000    0.0000    0.0078    0.0026    0.0054
        6 O1     2py       -0.0000   -0.0031   -0.0395   -0.0000   -0.0000    0.0000    0.0000    0.0015    0.2481   -0.0003
        7 O1     3py       -0.0000   -0.0085    0.0018   -0.0000   -0.0000    0.0000    0.0000   -0.0002    0.0654   -0.0009
        8 O1     2pz       -0.0382   -0.0000   -0.0000    0.9742    0.1640   -0.0351   -0.0000    0.0000    0.0000    0.0000
        9 O1     3pz       -0.0122   -0.0000    0.0000    0.0067    0.0141    0.0016    0.0000   -0.0000    0.0000   -0.0000
       10 O1     3d2-      -0.0035    0.0000    0.0000   -0.0002    0.0001   -0.0001    0.0005   -0.0000   -0.0000    0.0000
       11 O1     3d1-      -0.0000    0.0006    0.0005    0.0000    0.0000   -0.0000   -0.0000    0.0001   -0.0069    0.0002
       12 O1     3d0        0.0052    0.0000    0.0000   -0.0168    0.0009   -0.0016    0.0000    0.0000   -0.0000    0.0000
       13 O1     3d1+      -0.0000    0.0000   -0.0124   -0.0000    0.0000   -0.0000   -0.0000   -0.0028   -0.0003   -0.0041
       14 O1     3d2+       0.0444   -0.0000   -0.0000    0.0028   -0.0016    0.0009    0.0000    0.0000    0.0000   -0.0000
       15 FE2    1s        -0.0001   -0.0000   -0.0000    0.0003    0.0001   -0.0000    0.0000   -0.0000    0.0000   -0.0000
       16 FE2    2s        -0.0004   -0.0000   -0.0000    0.0020    0.0004    0.0000    0.0000   -0.0000    0.0000    0.0000
       17 FE2    3s        -0.0027   -0.0000   -0.0000    0.0116   -0.0006    0.0007    0.0000   -0.0000    0.0000    0.0000
       18 FE2    4s         0.0002   -0.0000    0.0000   -0.0684    0.9949   -0.0266    0.0000   -0.0000    0.0000   -0.0000
       19 FE2    5s        -0.0044    0.0000   -0.0000    0.0181   -0.1645    0.0034   -0.0000   -0.0000    0.0000    0.0000
       20 FE2    2px        0.0000    0.0000   -0.0001   -0.0000    0.0000   -0.0000    0.0000    0.0000   -0.0000   -0.0003
       21 FE2    3px       -0.0000    0.0000   -0.0014   -0.0000   -0.0000   -0.0000    0.0000    0.0008   -0.0000    0.0018
       22 FE2    4px       -0.0000   -0.0000    0.0032    0.0000    0.0000    0.0000   -0.0000   -0.0637    0.0473    0.9929
       23 FE2    5px       -0.0000    0.0000   -0.0003   -0.0000    0.0000    0.0000   -0.0000   -0.0056    0.0045    0.0951
       24 FE2    2py        0.0000    0.0000    0.0000    0.0000    0.0000   -0.0000   -0.0000   -0.0000   -0.0003    0.0000
       25 FE2    3py       -0.0000    0.0010    0.0001    0.0000    0.0000   -0.0000   -0.0000   -0.0000   -0.0014   -0.0001
       26 FE2    4py        0.0000   -0.0001   -0.0001   -0.0000   -0.0000    0.0000    0.0000    0.0026    0.9322   -0.0490
       27 FE2    5py        0.0000    0.0010    0.0000    0.0000   -0.0000    0.0000    0.0000    0.0002    0.0896   -0.0047
       28 FE2    2pz       -0.0001   -0.0000   -0.0000    0.0004    0.0001   -0.0000    0.0000   -0.0000    0.0000   -0.0000
       29 FE2    3pz       -0.0035    0.0000   -0.0000    0.0104    0.0028   -0.0010   -0.0000   -0.0000    0.0000    0.0000
       30 FE2    4pz        0.0015   -0.0000    0.0000   -0.0580   -0.0585    0.0750   -0.0000    0.0000   -0.0000    0.0000
       31 FE2    5pz       -0.0010   -0.0000    0.0000   -0.0044   -0.0051    0.0073   -0.0000    0.0000   -0.0000    0.0000
       32 FE2    3d2-       0.0000    0.0000    0.0000   -0.0001   -0.0011   -0.0625    0.9729   -0.0000   -0.0000    0.0000
       33 FE2    4d2-      -0.0000    0.0000   -0.0000    0.0000   -0.0006   -0.0137    0.2193   -0.0000   -0.0000    0.0000
       34 FE2    3d1-      -0.0000    0.9997   -0.0001    0.0000   -0.0000   -0.0000   -0.0000   -0.0356   -0.0036   -0.0023
       35 FE2    4d1-       0.0000   -0.0008   -0.0001   -0.0000   -0.0000   -0.0000   -0.0000   -0.0080    0.0030   -0.0004
       36 FE2    3d0        0.0033   -0.0000    0.0000   -0.0358   -0.0295   -0.4659    0.0000    0.0000    0.0000    0.0000
       37 FE2    4d0        0.0017   -0.0000    0.0000   -0.0191   -0.0138   -0.0993    0.0000    0.0000    0.0000   -0.0000
       38 FE2    3d1+      -0.0000    0.0366    0.0057    0.0000    0.0000    0.0000    0.0000    0.9727    0.0003    0.0624
       39 FE2    4d1+      -0.0000   -0.0000    0.0029    0.0000    0.0000    0.0000    0.0000    0.2187    0.0002    0.0115
       40 FE2    3d2+      -0.0001   -0.0000   -0.0000    0.0019    0.0154    0.8531    0.0713   -0.0000   -0.0000   -0.0000
       41 FE2    4d2+       0.0001    0.0000    0.0000   -0.0003    0.0086    0.1865    0.0161   -0.0000   -0.0000   -0.0000
       42 FE2    4f3-       0.0000   -0.0000    0.0000    0.0000   -0.0000   -0.0000    0.0000    0.0000    0.0002   -0.0000
       43 FE2    4f2-      -0.0000    0.0000    0.0000   -0.0000   -0.0000    0.0000   -0.0006    0.0000    0.0000   -0.0000
       44 FE2    4f1-       0.0000   -0.0007   -0.0000   -0.0000   -0.0000    0.0000    0.0000    0.0000    0.0011   -0.0000
       45 FE2    4f0        0.0004    0.0000    0.0000   -0.0014   -0.0002    0.0005    0.0000   -0.0000    0.0000   -0.0000
       46 FE2    4f1+      -0.0000   -0.0000    0.0004    0.0000    0.0000   -0.0000   -0.0000   -0.0008    0.0000   -0.0003
       47 FE2    4f2+       0.0000    0.0000    0.0000    0.0000    0.0000   -0.0005   -0.0000    0.0000    0.0000    0.0000
       48 FE2    4f3+      -0.0000   -0.0000   -0.0000   -0.0000    0.0000    0.0000    0.0000   -0.0000    0.0000    0.0002
 
          Orbital           21        22        23        24    
          Energy           -0.3472   -0.3252   -0.2892   -0.2007
          Occ. No.          0.0000    0.0000    0.0000    0.0000
 
        1 O1     1s         0.0043   -0.0156    0.0000   -0.0185
        2 O1     2s         0.0474   -0.1834    0.0000   -0.1719
        3 O1     3s         0.0138   -0.0242    0.0000   -0.0479
        4 O1     2px       -0.0000    0.0000   -0.0370   -0.0000
        5 O1     3px        0.0000    0.0000   -0.0101   -0.0000
        6 O1     2py        0.0000   -0.0000   -0.9343   -0.0000
        7 O1     3py        0.0000   -0.0000   -0.2547   -0.0000
        8 O1     2pz       -0.0408    0.2461   -0.0000    0.0296
        9 O1     3pz       -0.0145    0.0140   -0.0000    0.0299
       10 O1     3d2-      -0.0001    0.0003    0.0000    0.0001
       11 O1     3d1-      -0.0000    0.0000    0.0113    0.0000
       12 O1     3d0        0.0014    0.0059    0.0000   -0.0045
       13 O1     3d1+      -0.0000    0.0000    0.0004    0.0000
       14 O1     3d2+       0.0009   -0.0039    0.0000   -0.0012
       15 FE2    1s        -0.0000    0.0001   -0.0000    0.0001
       16 FE2    2s        -0.0003    0.0007   -0.0000    0.0008
       17 FE2    3s        -0.0014    0.0039   -0.0000    0.0048
       18 FE2    4s        -0.0296    0.0947   -0.0000    0.2075
       19 FE2    5s         0.0036   -0.0568    0.0000    1.0014
       20 FE2    2px       -0.0000    0.0000    0.0000    0.0000
       21 FE2    3px        0.0000   -0.0000    0.0002    0.0000
       22 FE2    4px        0.0000   -0.0000    0.0144   -0.0000
       23 FE2    5px        0.0000   -0.0000    0.0013    0.0000
       24 FE2    2py       -0.0000    0.0000    0.0001    0.0000
       25 FE2    3py        0.0000    0.0000    0.0050   -0.0000
       26 FE2    4py       -0.0000    0.0000    0.3645    0.0000
       27 FE2    5py       -0.0000    0.0000    0.0326   -0.0000
       28 FE2    2pz        0.0001   -0.0001   -0.0000    0.0001
       29 FE2    3pz       -0.0003    0.0042   -0.0000    0.0024
       30 FE2    4pz       -0.5134    0.8896   -0.0000    0.0950
       31 FE2    5pz       -0.0488    0.0827   -0.0000    0.0069
       32 FE2    3d2-      -0.0317   -0.0130   -0.0000   -0.0007
       33 FE2    4d2-      -0.0078   -0.0034   -0.0000    0.0000
       34 FE2    3d1-       0.0000    0.0000    0.0210    0.0000
       35 FE2    4d1-       0.0000   -0.0000   -0.0295    0.0000
       36 FE2    3d0        0.7147    0.4721   -0.0000    0.0378
       37 FE2    4d0        0.1792    0.0967   -0.0000    0.0021
       38 FE2    3d1+       0.0000   -0.0000    0.0013    0.0000
       39 FE2    4d1+       0.0000   -0.0000   -0.0010    0.0000
       40 FE2    3d2+       0.4323    0.1771   -0.0000    0.0091
       41 FE2    4d2+       0.1059    0.0469   -0.0000   -0.0005
       42 FE2    4f3-      -0.0000    0.0000    0.0001    0.0000
       43 FE2    4f2-      -0.0000    0.0000    0.0000    0.0000
       44 FE2    4f1-      -0.0000   -0.0000   -0.0012   -0.0000
       45 FE2    4f0       -0.0002   -0.0019    0.0000   -0.0005
       46 FE2    4f1+       0.0000    0.0000   -0.0000   -0.0000
       47 FE2    4f2+       0.0000   -0.0006    0.0000   -0.0001
       48 FE2    4f3+       0.0000    0.0000    0.0000    0.0000
--
 
 
++    Molecular charges:
      ------------------
 
      Mulliken charges per centre and basis function type
      ---------------------------------------------------
 
                            O1                      FE2   
                     alpha        beta       alpha        beta
      1s           1.0000      1.0000      1.0000      1.0000
      2s           0.9987      0.9986      1.0000      1.0000
      2px          0.0015      0.9959      1.0000      1.0000
      2pz          0.9642      0.9688      1.0000      1.0000
      2py          0.9960      0.0015      1.0000      1.0000
      3s           0.0009      0.0011      1.0000      1.0000
      3px         -0.0001      0.0019      0.9998      1.0000
      3pz          0.0003      0.0005      0.9998      0.9997
      3py          0.0018     -0.0003      0.9999      0.9997
      4s           0.0000      0.0000      0.0168      0.0118
      3d2+         0.0020      0.0020      0.9947      0.0000
      3d1+        -0.0000      0.0002      0.9949      0.0014
      3d0          0.0005      0.0005      0.9957      0.0025
      3d1-         0.0001     -0.0000      0.9973      0.9990
      3d2-         0.0000      0.0000      0.9947      0.0000
      4px          0.0000      0.0000      0.0001      0.0002
      4pz          0.0000      0.0000      0.0136      0.0116
      4py          0.0000      0.0000      0.0002      0.0000
      5s           0.0000      0.0000      0.0004     -0.0000
      4d2+         0.0000      0.0000      0.0053      0.0000
      4d1+         0.0000      0.0000      0.0053      0.0002
      4d0          0.0000      0.0000      0.0070      0.0025
      4d1-         0.0000      0.0000      0.0030      0.0000
      4d2-         0.0000      0.0000      0.0053      0.0000
      5px          0.0000      0.0000      0.0000      0.0000
      5pz          0.0000      0.0000      0.0000      0.0001
      5py          0.0000      0.0000     -0.0000      0.0000
      4f3+         0.0000      0.0000      0.0000      0.0000
      4f2+         0.0000      0.0000      0.0000      0.0001
      4f1+         0.0000      0.0000      0.0000      0.0000
      4f0          0.0000      0.0000      0.0000      0.0002
      4f1-         0.0000      0.0000      0.0000      0.0002
      4f2-         0.0000      0.0000      0.0000      0.0000
      4f3-         0.0000      0.0000      0.0000      0.0000
      Total        3.9658      3.9707     14.0342     10.0293
      Total              7.9365                 24.0635
 
      Charge            0.0635                  1.9365
 
      Total electronic charge=   32.000000
 
      Total            charge=    2.000000
--
 
 
  Input file to MOLDEN was generated!
 
 
++    Static properties:
      ------------------
 
 
      LoProp Charges per center
 

                   O1       FE2   
      Nuclear      8.0000  26.0000
      Electronic  -7.9459 -24.0541
 
      Total        0.0541   1.9459
--
 
 
++    Natural Bond Order analysis
      ---------------------------
      Based on LoProp computed density
      -------------------------------------------------------------------------------------
      Atom A       Atom B       Bond Order
      -------------------------------------------------------------------------------------
      NBO located     21.998 core electrons.
      NBO located      3.935 lone pair electrons.
      NBO located      1.000 non-bonded electrons on atom O1        
      NBO located      1.000 non-bonded electrons on atom O1        
      NBO located      1.003 non-bonded electrons on atom FE2       
      NBO located      1.000 non-bonded electrons on atom FE2       
      NBO located      1.000 non-bonded electrons on atom FE2       
      NBO located      1.000 non-bonded electrons on atom FE2       
      The remaining    0.065 electrons are to be considered as diffuse
--
 
 
++    Molecular orbitals:
      -------------------
 
      Title: Natural orbitals

      Molecular orbitals for symmetry species 1: a  
 
          Orbital            1         2         3         4         5         6         7         8         9        10    
          Energy         -264.3046  -32.7357  -21.0552  -27.4912  -27.9794  -27.9785   -5.0819   -4.0802   -1.9987   -3.5614
          Occ. No.          2.0000    2.0000    2.0000    2.0000    2.0000    2.0000    2.0000    1.9999    1.9998    1.9997
 
        1 O1     1s         0.0000   -0.0013    0.9996    0.0000    0.0000    0.0002   -0.0072   -0.0000    0.0007   -0.0000
        2 O1     2s        -0.0000    0.0001   -0.0274   -0.0000   -0.0000    0.0000    0.0012   -0.0000   -0.0073   -0.0000
        3 O1     3s        -0.0000    0.0001   -0.0003   -0.0000   -0.0000   -0.0000    0.0033   -0.0000   -0.0155   -0.0000
        4 O1     2px        0.0000   -0.0000   -0.0000   -0.0000   -0.0000    0.0000   -0.0000    0.0002    0.0000    0.0000
        5 O1     3px        0.0000    0.0000    0.0000   -0.0001   -0.0000   -0.0000    0.0000    0.0005   -0.0000    0.0000
        6 O1     2py       -0.0000    0.0000    0.0000    0.0000   -0.0000   -0.0000    0.0000   -0.0000   -0.0000    0.0003
        7 O1     3py       -0.0000    0.0000    0.0000    0.0000   -0.0000    0.0000    0.0000   -0.0000   -0.0000    0.0004
        8 O1     2pz        0.0000   -0.0059   -0.0016   -0.0000    0.0000    0.0042   -0.1762    0.0000    0.7622    0.0000
        9 O1     3pz       -0.0000   -0.0001    0.0005    0.0000    0.0000   -0.0000   -0.0012    0.0000    0.0065    0.0000
       10 O1     3d2-      -0.0000   -0.0000    0.0000   -0.0000    0.0000    0.0000   -0.0000    0.0000    0.0000   -0.0000
       11 O1     3d1-      -0.0000   -0.0000   -0.0000   -0.0000    0.0000   -0.0000   -0.0000    0.0000    0.0000   -0.0001
       12 O1     3d0       -0.0000    0.0001    0.0002    0.0000    0.0000   -0.0001    0.0030   -0.0000   -0.0135   -0.0000
       13 O1     3d1+       0.0000    0.0000    0.0000    0.0000    0.0000   -0.0000    0.0000   -0.0001   -0.0000   -0.0000
       14 O1     3d2+       0.0000    0.0000   -0.0000   -0.0000   -0.0000   -0.0000    0.0000   -0.0000   -0.0000   -0.0000
       15 FE2    1s         1.0000   -0.0001   -0.0000    0.0000   -0.0000   -0.0000    0.0001    0.0000    0.0002    0.0000
       16 FE2    2s         0.0001    0.9943    0.0020   -0.0000    0.0000    0.0012    0.1030    0.0000    0.0235    0.0000
       17 FE2    3s        -0.0002   -0.1063    0.0068    0.0000   -0.0000   -0.0106    0.9756    0.0000    0.1635    0.0000
       18 FE2    4s        -0.0000    0.0002    0.0002    0.0000   -0.0000   -0.0004    0.0160   -0.0000   -0.0600   -0.0000
       19 FE2    5s         0.0000   -0.0000    0.0001   -0.0000    0.0000    0.0001   -0.0048    0.0000    0.0173    0.0000
       20 FE2    2px       -0.0000    0.0000   -0.0000    0.9860    0.0364   -0.0000   -0.0000    0.1624   -0.0000    0.0028
       21 FE2    3px        0.0000   -0.0000    0.0000   -0.1624   -0.0028    0.0000   -0.0000    0.9860   -0.0000    0.0364
       22 FE2    4px        0.0000   -0.0000   -0.0000    0.0009    0.0000    0.0000   -0.0000   -0.0055    0.0000   -0.0001
       23 FE2    5px       -0.0000    0.0000   -0.0000    0.0001    0.0000   -0.0000   -0.0000    0.0003   -0.0000   -0.0000
       24 FE2    2py        0.0000    0.0000   -0.0000   -0.0361    0.9964   -0.0000   -0.0000   -0.0059   -0.0000    0.0770
       25 FE2    3py       -0.0000    0.0000    0.0000    0.0059   -0.0770    0.0000    0.0000   -0.0361   -0.0000    0.9963
       26 FE2    4py        0.0000    0.0000   -0.0000   -0.0000    0.0003   -0.0000    0.0000    0.0002   -0.0000   -0.0034
       27 FE2    5py        0.0000   -0.0000   -0.0000   -0.0000    0.0001   -0.0000   -0.0000   -0.0000    0.0000   -0.0010
       28 FE2    2pz       -0.0000    0.0023    0.0001    0.0000   -0.0000   -0.9970   -0.0097    0.0000   -0.0438   -0.0000
       29 FE2    3pz        0.0000    0.0007   -0.0001   -0.0000    0.0000    0.0764    0.0176   -0.0000   -0.5923    0.0000
       30 FE2    4pz       -0.0000    0.0004    0.0001    0.0000   -0.0000   -0.0006    0.0111   -0.0000   -0.0459   -0.0000
       31 FE2    5pz       -0.0000    0.0000    0.0000    0.0000   -0.0000   -0.0002    0.0009   -0.0000   -0.0025   -0.0000
       32 FE2    3d2-      -0.0000   -0.0000    0.0000    0.0000   -0.0000   -0.0000    0.0001   -0.0000   -0.0001    0.0000
       33 FE2    4d2-       0.0000   -0.0000    0.0000    0.0000   -0.0000   -0.0000    0.0001    0.0000    0.0001    0.0000
       34 FE2    3d1-       0.0000    0.0000    0.0000   -0.0000   -0.0000   -0.0000   -0.0000    0.0000   -0.0000    0.0029
       35 FE2    4d1-      -0.0000    0.0000   -0.0000   -0.0000    0.0000   -0.0000    0.0000    0.0000   -0.0000   -0.0002
       36 FE2    3d0       -0.0000    0.0002    0.0000    0.0000   -0.0000   -0.0003    0.0067   -0.0000   -0.0271   -0.0000
       37 FE2    4d0       -0.0000    0.0001    0.0000    0.0000   -0.0000   -0.0001    0.0040   -0.0000   -0.0126   -0.0000
       38 FE2    3d1+       0.0000   -0.0000   -0.0000    0.0002   -0.0000    0.0000   -0.0000   -0.0010    0.0000    0.0001
       39 FE2    4d1+      -0.0000   -0.0000   -0.0000    0.0000    0.0000    0.0000   -0.0000   -0.0001    0.0000   -0.0000
       40 FE2    3d2+       0.0000    0.0000   -0.0000   -0.0000    0.0000    0.0000   -0.0013    0.0000    0.0014    0.0000
       41 FE2    4d2+      -0.0000    0.0000   -0.0000   -0.0000    0.0000    0.0000   -0.0016   -0.0000   -0.0009   -0.0000
       42 FE2    4f3-      -0.0000    0.0000    0.0000    0.0001   -0.0002    0.0000    0.0000   -0.0004   -0.0000    0.0036
       43 FE2    4f2-      -0.0000    0.0000   -0.0000   -0.0000   -0.0000   -0.0000    0.0000    0.0000   -0.0001    0.0000
       44 FE2    4f1-      -0.0000    0.0000    0.0000   -0.0000   -0.0000   -0.0000    0.0000    0.0001   -0.0000    0.0052
       45 FE2    4f0       -0.0000    0.0000   -0.0000    0.0000   -0.0000   -0.0002    0.0001   -0.0000    0.0026   -0.0000
       46 FE2    4f1+      -0.0000    0.0000   -0.0000    0.0004   -0.0000    0.0000    0.0000   -0.0029    0.0000    0.0002
       47 FE2    4f2+       0.0000   -0.0000    0.0000   -0.0000    0.0000    0.0001   -0.0000    0.0000    0.0012   -0.0000
       48 FE2    4f3+       0.0000   -0.0000    0.0000   -0.0005   -0.0000    0.0000   -0.0000    0.0036   -0.0000    0.0004
 
          Orbital           11        12        13        14        15        16        17        18        19        20    
          Energy           -2.6562   -1.1982   -1.6368   -0.7403   -0.8413   -0.8290   -0.7890   -0.6413   -0.7292    1.7424
          Occ. No.          1.9997    1.9987    1.9960    1.0120    1.0000    1.0000    1.0000    1.0000    0.9880    0.0040
 
        1 O1     1s         0.0010   -0.0000   -0.0275   -0.0000   -0.0005    0.0000    0.0010   -0.0000   -0.0000   -0.0000
        2 O1     2s        -0.0037   -0.0000   -1.0005   -0.0000   -0.0087    0.0000    0.0168   -0.0000    0.0000   -0.0004
        3 O1     3s        -0.0107    0.0000    0.0100   -0.0000   -0.0042    0.0000    0.0080   -0.0000   -0.0000   -0.0022
        4 O1     2px        0.0000   -0.0000   -0.0000    0.6998   -0.0000    0.0000   -0.0000   -0.0395   -0.7112    0.0000
        5 O1     3px       -0.0000   -0.0003    0.0000   -0.0351    0.0000   -0.0000    0.0000    0.0018    0.0280    0.0000
        6 O1     2py       -0.0000   -0.0012    0.0000   -0.0273   -0.0000    0.0000   -0.0000   -0.9979    0.0286   -0.0000
        7 O1     3py       -0.0000   -0.0076    0.0000    0.0014    0.0000   -0.0000    0.0000    0.0445   -0.0011    0.0000
        8 O1     2pz        0.5774   -0.0000   -0.0261   -0.0000    0.0295   -0.0000   -0.0499    0.0000    0.0000    0.0006
        9 O1     3pz        0.0042   -0.0000    0.0117    0.0000    0.0051   -0.0000   -0.0094    0.0000   -0.0000   -0.0002
       10 O1     3d2-       0.0000   -0.0000    0.0000    0.0000   -0.0000   -0.0001    0.0000   -0.0000   -0.0000   -0.0791
       11 O1     3d1-       0.0000    0.0006    0.0000    0.0003    0.0000   -0.0000    0.0000    0.0123   -0.0004   -0.0000
       12 O1     3d0       -0.0100   -0.0000   -0.0040    0.0000   -0.0009   -0.0000    0.0015   -0.0000   -0.0000    0.0033
       13 O1     3d1+      -0.0000    0.0000   -0.0000   -0.0082    0.0000   -0.0000    0.0000    0.0005    0.0093   -0.0000
       14 O1     3d2+      -0.0000   -0.0000   -0.0000   -0.0000    0.0003   -0.0000   -0.0003    0.0000    0.0000    0.9968
       15 FE2    1s         0.0002   -0.0000    0.0000   -0.0000    0.0000   -0.0000   -0.0000    0.0000    0.0000    0.0000
       16 FE2    2s         0.0141    0.0000    0.0002   -0.0000    0.0001   -0.0000   -0.0003    0.0000    0.0000    0.0000
       17 FE2    3s         0.1006    0.0000    0.0015   -0.0000   -0.0000   -0.0000   -0.0016    0.0000    0.0000    0.0000
       18 FE2    4s        -0.0466   -0.0000    0.0045    0.0000   -0.0039    0.0000    0.0028   -0.0000   -0.0000    0.0038
       19 FE2    5s         0.0132    0.0000    0.0031    0.0000    0.0040   -0.0000   -0.0051    0.0000    0.0000   -0.0007
       20 FE2    2px       -0.0000   -0.0000   -0.0000   -0.0000    0.0000   -0.0000    0.0000    0.0000    0.0000   -0.0000
       21 FE2    3px       -0.0000   -0.0001   -0.0000   -0.0001    0.0000   -0.0000    0.0000    0.0001    0.0017   -0.0000
       22 FE2    4px        0.0000   -0.0000    0.0000    0.0022   -0.0000    0.0000   -0.0000   -0.0001   -0.0024    0.0000
       23 FE2    5px       -0.0000    0.0000    0.0000    0.0005   -0.0000   -0.0000    0.0000    0.0000    0.0009   -0.0000
       24 FE2    2py       -0.0000   -0.0002   -0.0000    0.0000    0.0000   -0.0000    0.0000    0.0001   -0.0000   -0.0000
       25 FE2    3py       -0.0000   -0.0029   -0.0000    0.0000    0.0000   -0.0000    0.0000    0.0015   -0.0001   -0.0000
       26 FE2    4py       -0.0000   -0.0001   -0.0000   -0.0001   -0.0000    0.0000   -0.0000   -0.0035    0.0001    0.0000
       27 FE2    5py        0.0000    0.0010   -0.0000   -0.0000    0.0000   -0.0000    0.0000    0.0004   -0.0000   -0.0000
       28 FE2    2pz        0.0628   -0.0000    0.0001   -0.0000    0.0000   -0.0000   -0.0001    0.0000    0.0000    0.0000
       29 FE2    3pz        0.8018   -0.0000    0.0030    0.0000    0.0013   -0.0000   -0.0023    0.0000    0.0000    0.0000
       30 FE2    4pz       -0.0399   -0.0000    0.0023    0.0000   -0.0000    0.0000   -0.0001    0.0000   -0.0000   -0.0008
       31 FE2    5pz       -0.0031   -0.0000    0.0014    0.0000    0.0011   -0.0000   -0.0021    0.0000    0.0000    0.0011
       32 FE2    3d2-      -0.0001    0.0000    0.0000    0.0000    0.0634    0.9947    0.0359    0.0000    0.0000    0.0001
       33 FE2    4d2-       0.0000    0.0000   -0.0000   -0.0000   -0.0047   -0.0724   -0.0024   -0.0000   -0.0000   -0.0001
       34 FE2    3d1-       0.0000    0.9993   -0.0000   -0.0258    0.0000   -0.0000    0.0000    0.0104   -0.0258   -0.0000
       35 FE2    4d1-      -0.0000   -0.0267    0.0000    0.0018   -0.0000    0.0000   -0.0000   -0.0029    0.0020    0.0000
       36 FE2    3d0       -0.0226   -0.0000   -0.0010    0.0000    0.4914   -0.0000   -0.8690    0.0000    0.0000   -0.0005
       37 FE2    4d0       -0.0100    0.0000   -0.0004   -0.0000   -0.0364    0.0000    0.0564   -0.0000   -0.0000   -0.0003
       38 FE2    3d1+       0.0000    0.0366   -0.0000    0.7048   -0.0000   -0.0000    0.0000    0.0010    0.7051   -0.0000
       39 FE2    4d1+       0.0000   -0.0010    0.0000   -0.0487    0.0000    0.0000   -0.0000   -0.0002   -0.0534    0.0000
       40 FE2    3d2+       0.0010   -0.0000   -0.0001   -0.0000   -0.8655    0.0729   -0.4902    0.0000   -0.0000   -0.0015
       41 FE2    4d2+      -0.0007    0.0000    0.0000    0.0000    0.0647   -0.0053    0.0323   -0.0000    0.0000    0.0013
       42 FE2    4f3-      -0.0000   -0.0000   -0.0000   -0.0000    0.0000   -0.0000    0.0000    0.0000   -0.0000   -0.0000
       43 FE2    4f2-       0.0001    0.0000   -0.0000   -0.0000   -0.0000   -0.0005   -0.0000   -0.0000   -0.0000   -0.0000
       44 FE2    4f1-      -0.0000   -0.0007   -0.0000    0.0000   -0.0000    0.0000   -0.0000   -0.0005    0.0000    0.0000
       45 FE2    4f0       -0.0059    0.0000   -0.0003   -0.0000   -0.0004    0.0000    0.0007   -0.0000   -0.0000    0.0000
       46 FE2    4f1+       0.0000   -0.0000    0.0000   -0.0002    0.0000    0.0000   -0.0000   -0.0000   -0.0008    0.0000
       47 FE2    4f2+      -0.0015    0.0000    0.0000    0.0000    0.0005   -0.0000    0.0002   -0.0000    0.0000    0.0004
       48 FE2    4f3+      -0.0000   -0.0000   -0.0000    0.0000   -0.0000   -0.0000    0.0000    0.0000    0.0000   -0.0000
 
          Orbital           21        22        23        24        25        26        27        28        29        30    
          Energy            0.4083    1.4379    2.7229    0.8531    1.0055    0.2651    1.9216    1.8687    1.0491    0.0292
          Occ. No.          0.0013    0.0003    0.0003    0.0002    0.0001    0.0000    0.0000    0.0000    0.0000    0.0000
 
        1 O1     1s         0.0000    0.0011   -0.0000   -0.0023    0.0000    0.0148   -0.0189    0.0000   -0.0000    0.0141
        2 O1     2s         0.0000    0.0340   -0.0000   -0.0429    0.0000    0.1529   -0.1890    0.0000   -0.0000    0.1349
        3 O1     3s         0.0000    0.0086    0.0000   -0.0043    0.0000    0.0674   -0.2336    0.0000   -0.0000    0.1584
        4 O1     2px       -0.0026   -0.0000   -0.0005    0.0000    0.0049   -0.0000    0.0000   -0.0016   -0.0739   -0.0000
        5 O1     3px       -0.0012    0.0000   -0.0003   -0.0000   -0.0046    0.0000    0.0000   -0.0040   -0.1877   -0.0000
        6 O1     2py       -0.0714    0.0000   -0.0127   -0.0000   -0.0002    0.0000   -0.0000   -0.0448    0.0027    0.0000
        7 O1     3py       -0.0336   -0.0000   -0.0079    0.0000    0.0002   -0.0000   -0.0000   -0.1104    0.0069   -0.0000
        8 O1     2pz       -0.0000   -0.1478    0.0000    0.1400   -0.0000   -0.1082    0.1029   -0.0000    0.0000   -0.0239
        9 O1     3pz        0.0000   -0.0027   -0.0000   -0.0382    0.0000    0.1424    0.1148   -0.0000    0.0000    0.1062
       10 O1     3d2-       0.0000    0.0000    0.0000    0.0005   -0.0000    0.0010   -0.0000    0.0000    0.0000   -0.0007
       11 O1     3d1-       0.0007    0.0000    0.0050   -0.0000    0.0001    0.0000   -0.0000    0.0115   -0.0012    0.0000
       12 O1     3d0       -0.0000    0.0058   -0.0000   -0.0022    0.0000   -0.0316   -0.0062    0.0000   -0.0000   -0.0616
       13 O1     3d1+       0.0000    0.0000    0.0002   -0.0000   -0.0040    0.0000   -0.0000    0.0004    0.0321   -0.0000
       14 O1     3d2+      -0.0000   -0.0003   -0.0000   -0.0059    0.0000   -0.0126    0.0005   -0.0000   -0.0000    0.0078
       15 FE2    1s         0.0000   -0.0000    0.0000   -0.0000    0.0000    0.0002    0.0003   -0.0000    0.0000    0.0002
       16 FE2    2s         0.0000   -0.0004    0.0000   -0.0001    0.0000    0.0018    0.0023   -0.0000    0.0000    0.0010
       17 FE2    3s         0.0000   -0.0012    0.0000   -0.0022    0.0000    0.0094    0.0118   -0.0000    0.0000    0.0037
       18 FE2    4s        -0.0000   -0.4698    0.0000    0.6907   -0.0000   -0.1325    0.1603   -0.0000   -0.0000   -0.0919
       19 FE2    5s         0.0000    0.1990   -0.0000   -0.3002    0.0000   -0.4234    0.0556    0.0000   -0.0000   -0.7890
       20 FE2    2px        0.0000   -0.0000   -0.0000    0.0000   -0.0002   -0.0000   -0.0000   -0.0000    0.0001    0.0000
       21 FE2    3px        0.0000   -0.0000   -0.0001    0.0000   -0.0047   -0.0000   -0.0000    0.0000    0.0077    0.0000
       22 FE2    4px       -0.0001    0.0000    0.0123   -0.0000   -0.6288    0.0000   -0.0000   -0.0011    0.6481    0.0000
       23 FE2    5px        0.0001   -0.0000   -0.0132    0.0000    0.7441    0.0000   -0.0000    0.0338    0.6695    0.0000
       24 FE2    2py        0.0000   -0.0000   -0.0003   -0.0000    0.0000    0.0000   -0.0000   -0.0001   -0.0000    0.0000
       25 FE2    3py        0.0006    0.0000   -0.0032   -0.0000    0.0002    0.0000   -0.0000    0.0004   -0.0003    0.0000
       26 FE2    4py       -0.0023    0.0000    0.3357   -0.0000    0.0230   -0.0000    0.0000   -0.0294   -0.0237    0.0000
       27 FE2    5py        0.0017   -0.0000   -0.3616    0.0000   -0.0272    0.0000    0.0000    0.9240   -0.0245    0.0000
       28 FE2    2pz       -0.0000    0.0002    0.0000    0.0002    0.0000    0.0002    0.0002   -0.0000    0.0000    0.0001
       29 FE2    3pz       -0.0000   -0.0002    0.0000    0.0033   -0.0000    0.0022    0.0085   -0.0000    0.0000    0.0011
       30 FE2    4pz       -0.0000   -0.4523    0.0000    0.0421   -0.0000   -0.3203    0.1247   -0.0000    0.0000   -0.2893
       31 FE2    5pz       -0.0000    0.3003   -0.0000    0.2088   -0.0000   -0.0294    0.9666   -0.0000    0.0000   -0.0573
       32 FE2    3d2-       0.0000    0.0002   -0.0000   -0.0003   -0.0000   -0.0043    0.0001    0.0000    0.0000    0.0027
       33 FE2    4d2-       0.0000    0.0028   -0.0000   -0.0043    0.0000   -0.0585    0.0015   -0.0000    0.0000    0.0354
       34 FE2    3d1-       0.0304    0.0000    0.0020   -0.0000    0.0000    0.0000    0.0000    0.0053   -0.0004   -0.0000
       35 FE2    4d1-       1.0075    0.0000    0.0071   -0.0000    0.0000    0.0000    0.0000    0.0249   -0.0017   -0.0000
       36 FE2    3d0       -0.0000    0.0002   -0.0000   -0.0073    0.0000   -0.0156    0.0234   -0.0000    0.0000    0.0202
       37 FE2    4d0       -0.0000    0.1219   -0.0000   -0.2154    0.0000   -0.1705    0.0992   -0.0000    0.0000    0.2652
       38 FE2    3d1+       0.0011    0.0000    0.0001   -0.0000   -0.0010   -0.0000   -0.0000    0.0002    0.0101    0.0000
       39 FE2    4d1+       0.0369    0.0000    0.0003   -0.0000   -0.0005   -0.0000   -0.0000    0.0009    0.0465    0.0000
       40 FE2    3d2+      -0.0000   -0.0021    0.0000    0.0040   -0.0000    0.0583   -0.0019   -0.0000    0.0000   -0.0368
       41 FE2    4d2+      -0.0000   -0.0390    0.0000    0.0594   -0.0000    0.7975   -0.0209   -0.0000    0.0000   -0.4819
       42 FE2    4f3-      -0.0001   -0.0000   -0.1089    0.0000   -0.0193   -0.0000   -0.0000   -0.0912    0.0373   -0.0000
       43 FE2    4f2-       0.0000   -0.0415    0.0000   -0.0356   -0.0000    0.0076    0.0256    0.0000   -0.0000    0.0058
       44 FE2    4f1-      -0.0025    0.0000    0.8626   -0.0000    0.0049   -0.0000    0.0000    0.3929   -0.0098   -0.0000
       45 FE2    4f0        0.0000    0.3343   -0.0000    0.2892   -0.0000   -0.0705   -0.1477   -0.0000    0.0000   -0.0431
       46 FE2    4f1+      -0.0001    0.0000    0.0315   -0.0000   -0.1348   -0.0000   -0.0000    0.0144    0.2666   -0.0000
       47 FE2    4f2+       0.0000    0.5669   -0.0000    0.4863   -0.0000   -0.1034   -0.3498   -0.0000    0.0000   -0.0795
       48 FE2    4f3+      -0.0000    0.0000   -0.0120    0.0000    0.1756    0.0000   -0.0000   -0.0100   -0.3387    0.0000
 
          Orbital           31        32        33        34        35        36        37        38        39        40    
          Energy            0.6199   -0.1111   -0.0416    2.1204    0.3092    0.4361    0.7763    0.6744    0.4111    0.6253
          Occ. No.          0.0000    0.0000    0.0000    0.0000    0.0000    0.0000    0.0000    0.0000    0.0000    0.0000
 
        1 O1     1s         0.0117    0.0009    0.0000   -0.0000   -0.0000    0.0000    0.0260    0.0045   -0.0003    0.0000
        2 O1     2s         0.1228    0.0218    0.0000   -0.0000   -0.0000    0.0000    0.2783    0.0571   -0.0026    0.0000
        3 O1     3s        -0.2265   -0.0908    0.0000    0.0000   -0.0000    0.0002    0.6177    0.9258   -0.0148    0.0004
        4 O1     2px       -0.0000   -0.0000   -0.0020    0.0046    0.0027   -0.0063   -0.0000   -0.0000   -0.0058   -0.0981
        5 O1     3px       -0.0000   -0.0000   -0.0000   -0.3262    0.0502   -0.7392   -0.0002    0.0000   -0.0392   -0.6398
        6 O1     2py       -0.0000   -0.0000   -0.0545   -0.0001    0.0703    0.0014    0.0000    0.0000    0.0002    0.0037
        7 O1     3py       -0.0000   -0.0000    0.0064    0.0121    1.0427    0.0441    0.0000   -0.0000    0.0005    0.0235
        8 O1     2pz       -0.1347   -0.0686   -0.0000    0.0000    0.0000   -0.0000   -0.2362   -0.0163    0.0009   -0.0000
        9 O1     3pz        0.2129    0.0952    0.0000    0.0001    0.0000    0.0001   -1.0818    0.3676    0.0265   -0.0013
       10 O1     3d2-      -0.0004    0.0000    0.0000    0.0000    0.0000    0.0001   -0.0001   -0.0027   -0.0165   -0.0360
       11 O1     3d1-       0.0000    0.0000   -0.0057   -0.0021   -0.0166   -0.0004   -0.0000    0.0000    0.0024    0.0061
       12 O1     3d0        0.0915    0.0404    0.0000    0.0001   -0.0001    0.0006   -0.0002   -0.0317   -0.0176   -0.0006
       13 O1     3d1+       0.0000   -0.0000   -0.0002    0.0513   -0.0007    0.0009   -0.0000   -0.0001    0.0002   -0.0186
       14 O1     3d2+       0.0050    0.0001    0.0000   -0.0000    0.0000    0.0000    0.0015    0.0026   -0.0013   -0.0029
       15 FE2    1s         0.0004    0.0002   -0.0000    0.0000    0.0000    0.0000   -0.0023    0.0004    0.0001   -0.0000
       16 FE2    2s         0.0030    0.0013   -0.0000    0.0000    0.0000    0.0000   -0.0165    0.0032    0.0004   -0.0000
       17 FE2    3s         0.0159    0.0058   -0.0000    0.0000    0.0000    0.0000   -0.0849    0.0142    0.0021   -0.0001
       18 FE2    4s        -0.1015    0.5069   -0.0000    0.0000    0.0000   -0.0000   -0.5649   -0.0065    0.0123   -0.0005
       19 FE2    5s        -0.0396    0.3439   -0.0000   -0.0000    0.0000   -0.0000   -0.1270    0.0058    0.0038   -0.0001
       20 FE2    2px        0.0000    0.0000    0.0000    0.0003   -0.0000    0.0004    0.0000   -0.0000    0.0000    0.0003
       21 FE2    3px        0.0000    0.0000    0.0002    0.0053   -0.0006    0.0082    0.0000   -0.0000    0.0005    0.0073
       22 FE2    4px        0.0000    0.0000    0.0343   -0.4148   -0.0109    0.1866    0.0000    0.0000    0.0092    0.1490
       23 FE2    5px        0.0000    0.0000    0.0066   -0.1244   -0.0026    0.0495    0.0000    0.0000    0.0023    0.0378
       24 FE2    2py        0.0000    0.0000    0.0001   -0.0000   -0.0006   -0.0000   -0.0000    0.0000    0.0000   -0.0000
       25 FE2    3py        0.0000    0.0000    0.0046   -0.0002   -0.0133   -0.0005   -0.0000    0.0000    0.0000   -0.0002
       26 FE2    4py        0.0000    0.0000    0.9406    0.0147   -0.2153   -0.0104   -0.0000    0.0000    0.0001   -0.0052
       27 FE2    5py        0.0000    0.0000    0.1811    0.0045   -0.0490   -0.0026   -0.0000   -0.0000   -0.0001   -0.0018
       28 FE2    2pz        0.0005    0.0001   -0.0000    0.0000    0.0000   -0.0000   -0.0027    0.0003    0.0001   -0.0000
       29 FE2    3pz        0.0103    0.0007   -0.0000    0.0000    0.0000   -0.0000   -0.0587    0.0040    0.0014   -0.0001
       30 FE2    4pz       -0.0068   -0.7097   -0.0000    0.0000    0.0000   -0.0000   -0.7065   -0.0751    0.0108   -0.0003
       31 FE2    5pz       -0.0059   -0.1343    0.0000   -0.0000   -0.0000    0.0000   -0.1105   -0.0252    0.0023   -0.0001
       32 FE2    3d2-       0.0024    0.0008    0.0000   -0.0000   -0.0001    0.0001   -0.0010    0.0001   -0.0722    0.0045
       33 FE2    4d2-       0.0366    0.0099    0.0001   -0.0000   -0.0010    0.0014   -0.0122    0.0023   -0.9914    0.0604
       34 FE2    3d1-       0.0000    0.0000    0.0020   -0.0005   -0.0394    0.0000   -0.0000    0.0000   -0.0001   -0.0029
       35 FE2    4d1-       0.0000    0.0000    0.0111   -0.0019   -0.1675    0.0160   -0.0000   -0.0000   -0.0016   -0.0317
       36 FE2    3d0       -0.0459    0.0097   -0.0000    0.0000    0.0000   -0.0000   -0.1071   -0.0258    0.0014   -0.0000
       37 FE2    4d0       -0.7787    0.0907   -0.0000    0.0000    0.0000   -0.0001   -0.5294   -0.2073   -0.0065    0.0005
       38 FE2    3d1+      -0.0000    0.0000    0.0001    0.0125   -0.0011   -0.0186    0.0000    0.0000    0.0049    0.0815
       39 FE2    4d1+      -0.0000    0.0000    0.0004    0.0510    0.0023   -0.5114    0.0001    0.0002    0.0516    0.8756
       40 FE2    3d2+      -0.0188   -0.0075    0.0000    0.0000   -0.0000    0.0000   -0.0026   -0.0017   -0.0057    0.0003
       41 FE2    4d2+      -0.3032   -0.0881    0.0000    0.0000   -0.0001    0.0001   -0.0495   -0.0296   -0.0793    0.0048
       42 FE2    4f3-      -0.0000   -0.0000    0.0366    0.0697   -0.0003   -0.0218    0.0000   -0.0000   -0.0040   -0.0307
       43 FE2    4f2-       0.0151    0.0175   -0.0000    0.0000    0.0000   -0.0000    0.0029    0.0102   -0.0003   -0.0002
       44 FE2    4f1-      -0.0000   -0.0000   -0.2830   -0.0180    0.0265    0.0064    0.0000    0.0000   -0.0001    0.0032
       45 FE2    4f0        0.2285   -0.0654   -0.0000    0.0001    0.0001   -0.0004   -0.1622    0.1296   -0.0102    0.0005
       46 FE2    4f1+      -0.0000   -0.0000   -0.0102    0.4942    0.0035   -0.1613   -0.0000   -0.0000   -0.0101   -0.1414
       47 FE2    4f2+      -0.1677   -0.2295    0.0000   -0.0001   -0.0001    0.0002   -0.0767   -0.1054    0.0069   -0.0003
       48 FE2    4f3+       0.0000    0.0000    0.0038   -0.6327   -0.0032    0.2001    0.0000    0.0001    0.0083    0.1545
 
          Orbital           41        42        43        44        45        46    
          Energy            2.5597    2.1775    2.1110    3.0955    2.6565    3.3243
          Occ. No.          0.0000    0.0000    0.0000    0.0000    0.0000    0.0000
 
        1 O1     1s         0.0004   -0.0043    0.0000    0.0000   -0.0001    0.0000
        2 O1     2s         0.0100   -0.0490    0.0000    0.0000   -0.0009    0.0002
        3 O1     3s        -0.0233   -0.1336   -0.0000   -0.0000   -0.0032   -0.0001
        4 O1     2px        0.0001    0.0007   -0.0042    0.0057   -0.0053   -0.0000
        5 O1     3px        0.0010    0.0005   -0.0109    0.0157   -0.0057   -0.0000
        6 O1     2py       -0.0000    0.0000    0.0049   -0.0006   -0.0029    0.0000
        7 O1     3py        0.0000   -0.0001   -0.0045   -0.0105   -0.0044    0.0000
        8 O1     2pz       -0.0328    0.0306   -0.0000   -0.0000    0.0007   -0.0001
        9 O1     3pz        0.2312   -0.0348   -0.0000   -0.0000   -0.0026   -0.0048
       10 O1     3d2-      -0.0092   -0.0327   -0.0098   -0.0023   -0.5590   -0.0088
       11 O1     3d1-      -0.0001    0.0045    0.8833    0.3989   -0.2089   -0.0000
       12 O1     3d0       -0.4897   -0.8698    0.0000   -0.0000   -0.0108   -0.0014
       13 O1     3d1+      -0.0032    0.0789    0.0036   -0.0154   -0.2520   -0.0000
       14 O1     3d2+       0.0012    0.0004   -0.0008   -0.0002   -0.0443   -0.0007
       15 FE2    1s         0.0005    0.0001   -0.0000   -0.0000   -0.0000   -0.0000
       16 FE2    2s         0.0036    0.0006   -0.0000   -0.0000   -0.0000   -0.0001
       17 FE2    3s         0.0186    0.0043   -0.0000   -0.0000   -0.0001   -0.0003
       18 FE2    4s         0.0945    0.0682   -0.0000   -0.0000    0.0005   -0.0015
       19 FE2    5s         0.0391    0.0254   -0.0000   -0.0000    0.0002   -0.0005
       20 FE2    2px       -0.0000    0.0000    0.0000   -0.0000   -0.0000    0.0000
       21 FE2    3px       -0.0000    0.0001    0.0002   -0.0004   -0.0004    0.0000
       22 FE2    4px       -0.0004    0.0033    0.0027   -0.0044   -0.0095    0.0000
       23 FE2    5px       -0.0001    0.0010    0.0004    0.0001   -0.0023    0.0000
       24 FE2    2py       -0.0000    0.0000    0.0001   -0.0001   -0.0001   -0.0000
       25 FE2    3py       -0.0000    0.0001    0.0021   -0.0021   -0.0028   -0.0000
       26 FE2    4py       -0.0000    0.0003    0.0403    0.0179   -0.0101   -0.0000
       27 FE2    5py       -0.0000   -0.0004    0.0105    0.0331    0.0187    0.0000
       28 FE2    2pz        0.0005    0.0003   -0.0000   -0.0000    0.0000   -0.0000
       29 FE2    3pz        0.0094    0.0093   -0.0000   -0.0000    0.0001   -0.0002
       30 FE2    4pz        0.0540    0.1033   -0.0000   -0.0000    0.0014   -0.0011
       31 FE2    5pz        0.0409   -0.0004   -0.0000   -0.0000   -0.0002   -0.0002
       32 FE2    3d2-       0.0025    0.0005    0.0001    0.0000    0.0019    0.0005
       33 FE2    4d2-       0.0349    0.0055    0.0015    0.0003    0.0132    0.0002
       34 FE2    3d1-      -0.0000    0.0001    0.0130    0.0063   -0.0028   -0.0000
       35 FE2    4d1-       0.0000    0.0003    0.0511    0.0251   -0.0105   -0.0000
       36 FE2    3d0        0.0046    0.0291   -0.0000   -0.0000    0.0005   -0.0001
       37 FE2    4d0       -0.1829    0.1235    0.0000    0.0000    0.0034    0.0015
       38 FE2    3d1+      -0.0002    0.0010    0.0007   -0.0013   -0.0036    0.0000
       39 FE2    4d1+      -0.0013    0.0029    0.0012   -0.0046   -0.0210    0.0000
       40 FE2    3d2+      -0.0065    0.0020    0.0000    0.0000    0.0002    0.0001
       41 FE2    4d2+      -0.1051    0.0306    0.0001    0.0000    0.0022    0.0010
       42 FE2    4f3-       0.0001   -0.0115   -0.1256    0.7136    0.5249    0.0000
       43 FE2    4f2-      -0.0275    0.0145   -0.0001   -0.0000   -0.0027    0.9973
       44 FE2    4f1-      -0.0000   -0.0013   -0.0246    0.1162    0.0654    0.0000
       45 FE2    4f0       -0.6971    0.4379    0.0000   -0.0000    0.0110   -0.0000
       46 FE2    4f1+       0.0004   -0.0115    0.3656   -0.4785    0.4087   -0.0000
       47 FE2    4f2+       0.3852   -0.2254   -0.0000   -0.0000   -0.0060    0.0730
       48 FE2    4f3+      -0.0005   -0.0056    0.2709   -0.3016    0.3583   -0.0000
--
 
 
++    Molecular properties:
      ---------------------
 
      Charge (e):
                      =    2.0000
      Dipole Moment (Debye):
      Origin of the operator (Ang)=    0.0000    0.0000    0.0000
                   X= -1.7085E-12               Y=  5.7340E-14               Z= -5.7342E+00           Total=  5.7342E+00
      Center of Charge (Ang)
                     X=   -0.00000000               Y=    0.00000000               Z=   -0.59690900
      Quadrupole Moment (Debye*Ang):
      Origin of the operator (Ang)=    0.0000    0.0000   -0.0330
                  XX= -1.1672E+01              XY= -2.4919E-02              XZ= -1.0045E-10              YY= -1.2352E+01
                  YZ=  2.0737E-11              ZZ= -5.9209E+00
      In traceless form (Debye*Ang)
                  XX= -2.5356E+00              XY= -3.7378E-02              XZ= -1.5067E-10              YY= -3.5558E+00
                  YZ=  3.1105E-11              ZZ=  6.0914E+00
--
 
 
  Input file to MOLDEN was generated!
 
 ###############################################################################
 ###############################################################################
 ###                                                                         ###
 ###                                                                         ###
 ###    RunFile label nBas                                                   ###
 ###    was used       86 times                                              ###
 ###                                                                         ###
 ###                                                                         ###
 ###############################################################################
 ###############################################################################
--- Stop Module: scf at Sun Dec 22 22:06:46 2024 /rc=_RC_ALL_IS_WELL_ ---
*** files: 3.00.LprOrb 3.00.LoProp.molden 3.00.scf.molden 3.00.scf.h5 3.00.UhfOrb 3.00.UnaOrb xmldump
    saved to directory /home/grierjones/DDCASPT2/iron_oxo_DDCASPT2/cluster/3.00

>>> COPY /tmp/3.00/3.00.scf.h5 /home/grierjones/DDCASPT2/iron_oxo_DDCASPT2/cluster/3.00/

*** symbolic link created: INPORB -> 3.00.UnaOrb
--- Start Module: rasscf at Sun Dec 22 22:06:46 2024 ---
 
()()()()()()()()()()()()()()()()()()()()()()()()()()()()()()()()()()()()()()()()()()()()()()()()()()

                                              &RASSCF

                                   only a single process is used
                       available to each process: 2.0 GB of memory, 1 thread?
()()()()()()()()()()()()()()()()()()()()()()()()()()()()()()()()()()()()()()()()()()()()()()()()()()
 
 ###############################################################################
 ###############################################################################
 ###                                                                         ###
 ###                                                                         ###
 ###    LUMORB input error.                                                  ###
 ###                                                                         ###
 ###                                                                         ###
 ###############################################################################
 ###############################################################################
  Keyword LUMORB used with file name StartOrbFile=
 /home/grierjones/DDCASPT2/iron_oxo_DDCASPT2/cluster/2.99/2.99.RasOrb           
                                                  
  but that file cannot be used. Perhaps it does
  not exist?
 
 *************** WARNING ****************
 ###############################################################################
 ###############################################################################
 ###                                                                         ###
 ###                                                                         ###
 ###    Too many macro-iterations.                                           ###
 ###                                                                         ###
 ###                                                                         ###
 ###############################################################################
 ###############################################################################
 Too many macro-iterations requested.
 Reset to maximum, new MAXIT=     200
 ****************************************
 
 *************** WARNING ****************
 ###############################################################################
 ###############################################################################
 ###                                                                         ###
 ###                                                                         ###
 ###    Too many SX-iterations.                                              ###
 ###                                                                         ###
 ###                                                                         ###
 ###############################################################################
 ###############################################################################
 Too many SX-iterations requested.
 Reset to maximum, new ITMAX=     100
 ****************************************
 
      Header of the ONEINT file:
      --------------------------
      
      Integrals generated by seward 4.2.0  , Sun Dec 22 22:06:44 2024
 
 
      OrdInt status: non-squared
 
 
      Cartesian coordinates in Angstrom:
      -----------------------------------------------------
      No.  Label        X            Y            Z        
      -----------------------------------------------------
       1   O1         0.00000000   0.00000000   2.30020000
       2   FE2        0.00000000   0.00000000  -0.70020000
      -----------------------------------------------------
      Nuclear repulsion energy =   36.68472864
 
++    Wave function specifications:
      -----------------------------
 
      Number of closed shell electrons          22
      Number of electrons in active shells      10
      Max number of holes in RAS1 space          0
      Max nr of electrons in RAS3 space          0
      Number of inactive orbitals               11
      Number of active orbitals                 14
      Number of secondary orbitals              23
      Spin quantum number                      2.0
      State symmetry                             1
--
 
++    Orbital specifications:
      -----------------------
 
      Symmetry species                           1
                                                 a
      Frozen orbitals                            0
      Inactive orbitals                         11
      Active orbitals                           14
      RAS1 orbitals                              0
      RAS2 orbitals                             14
      RAS3 orbitals                              0
      Secondary orbitals                        23
      Deleted orbitals                           0
      Number of basis functions                 48
--
 
++    CI expansion specifications:
      ----------------------------
 
      Number of CSFs                        975975
      Number of determinants               1249248
      Number of root(s) required                 1
      Root chosen for geometry opt.              1
      CI root used                               1
         
      highest root included in the CI            1
      max. size of the explicit Hamiltonian    200
--
 
++    Optimization specifications:
      ----------------------------
 
      RASSCF algorithm: Conventional
      Maximum number of macro iterations       200
      Maximum number of SX iterations          100
      Threshold for RASSCF energy            0.100E-07
      Threshold for max MO rotation          0.100E+00
      Threshold for max BLB element          0.100E-03
      Level shift parameter                  0.500E+00
      Make Quasi-Newton update
--
 
 ###############################################################################
 ###############################################################################
 ###                                                                         ###
 ###                                                                         ###
 ###    Location: rdVec_                                                     ###
 ###    File: /home/grierjones/DDCASPT2/iron_oxo_DDCASPT2/cluster/2.99/2.99.RasOrb\n\n\n
 ###    ile: /home/grierjones/DDCASPT2/iron_oxo_DDCASPT2/cluster/2.99/2.99.RasOrb\n\n\n
 ###    le: /home/grierjones/DDCASPT2/iron_oxo_DDCASPT2/cluster/2.99/2.99.RasOrb\n\n\n
 ###    e: /home/grierjones/DDCASPT2/iron_oxo_DDCASPT2/cluster/2.99/2.99.RasOrb\n\n\n
 ###    : /home/grierjones/DDCASPT2/iron_oxo_DDCASPT2/cluster/2.99/2.99.RasOrb\n\n\n
 ###     /home/grierjones/DDCASPT2/iron_oxo_DDCASPT2/cluster/2.99/2.99.RasOrb\n\n\n
 ###    /home/grierjones/DDCASPT2/iron_oxo_DDCASPT2/cluster/2.99/2.99.RasOrb\n\n\n
 ###    home/grierjones/DDCASPT2/iron_oxo_DDCASPT2/cluster/2.99/2.99.RasOrb\n\n\n
 ###    ome/grierjones/DDCASPT2/iron_oxo_DDCASPT2/cluster/2.99/2.99.RasOrb\n\n\n
 ###    me/grierjones/DDCASPT2/iron_oxo_DDCASPT2/cluster/2.99/2.99.RasOrb\n\n\n
 ###    e/grierjones/DDCASPT2/iron_oxo_DDCASPT2/cluster/2.99/2.99.RasOrb\n\n\n
 ###    /grierjones/DDCASPT2/iron_oxo_DDCASPT2/cluster/2.99/2.99.RasOrb\n\n\n
 ###    grierjones/DDCASPT2/iron_oxo_DDCASPT2/cluster/2.99/2.99.RasOrb\n\n\n
 ###    rierjones/DDCASPT2/iron_oxo_DDCASPT2/cluster/2.99/2.99.RasOrb\n\n\n  ###
 ###    ierjones/DDCASPT2/iron_oxo_DDCASPT2/cluster/2.99/2.99.RasOrb\n\n\n   ###
 ###    erjones/DDCASPT2/iron_oxo_DDCASPT2/cluster/2.99/2.99.RasOrb          ###
 ###                                                                         ###
 ###                                                                         ###
 ###    Error during reading INPORB                                          ###
 ###     not defined yet                                                     ###
 ###                                                                         ###
 ###                                                                         ###
 ###############################################################################
 ###############################################################################
[ process      0]: xquit (rc =    128): _INTERNAL_ERROR_
abort: 
--- Stop Module: rasscf at Sun Dec 22 22:06:46 2024 /rc=_RC_FLOATING_EXCEPTION_ ---
*** files: xmldump
    saved to directory /home/grierjones/DDCASPT2/iron_oxo_DDCASPT2/cluster/3.00

.########################.
.# Non-zero return code #.
.########################.

    Timing: Wall=1.90 User=1.61 System=0.29
************************************
*** WorkDir at /tmp/3.00 cleaned ***
************************************
