[Molden Format]
[N_Atoms]
                     2
[Atoms] (AU)
BE1         1      4           0.00000000      0.00000000      0.00000000
H2          2      1           0.00000000      0.00000000      1.13383567
[Charge] (Mulliken)
  0.557136383756843     
 -0.557136383756853     
[GTO] (AU)
   1
   s  14
  2.262859900E+04  8.443999941E-05
  3.372318100E+03  4.601499968E-04
  7.603504000E+02  2.285389984E-03
  2.117404800E+02  9.648129932E-03
  6.722346800E+01  3.494469975E-02
  2.337217700E+01  1.061099893E-01
  8.721373000E+00  2.458240383E-01
  3.468091000E+00  3.862428773E-01
  1.452144000E+00  3.105526078E-01
  6.086150000E-01  6.415933955E-02
  2.576860000E-01 -2.265049984E-03
  1.041760000E-01 -5.217499963E-04
  4.242700000E-02 -8.757499938E-04
  1.484900000E-02  1.242199991E-04
   s  14
  2.262859900E+04 -1.586999994E-05
  3.372318100E+03 -8.656999968E-05
  7.603504000E+02 -4.302199984E-04
  2.117404800E+02 -1.825079993E-03
  6.722346800E+01 -6.682749976E-03
  2.337217700E+01 -2.095119992E-02
  8.721373000E+00 -5.200308981E-02
  3.468091000E+00 -9.849176964E-02
  1.452144000E+00 -1.355800695E-01
  6.086150000E-01 -6.429875976E-02
  2.576860000E-01  3.125414989E-01
  1.041760000E-01  6.270468577E-01
  4.242700000E-02  2.110231492E-01
  1.484900000E-02 -4.104669985E-03
   p   9
  3.371018400E+01  1.069960000E-03
  8.057649500E+00  6.828550001E-03
  2.836471400E+00  2.119065000E-02
  1.099965700E+00  5.843696001E-02
  4.433964000E-01  2.020920800E-01
  1.822264000E-01  4.582953101E-01
  7.572410000E-02  3.691239601E-01
  3.168540000E-02  6.611471001E-02
  1.108990000E-02  1.405160000E-03
 
   2
   s   8
  1.886144500E+02  9.638500027E-04
  2.827659600E+01  7.491960021E-03
  6.424830000E+00  3.759541011E-02
  1.815041000E+00  1.433949804E-01
  5.910630000E-01  3.486363010E-01
  2.121490000E-01  4.382973612E-01
  7.989100000E-02  1.651066105E-01
  2.796200000E-02  2.102287006E-02
 
[MO]
Sym=     1a  
Ene=    -4.8659
Spin= Alpha
Occup=    1.00000
   1         0.98614110
   2        -0.02241125
   3         0.00000000
   4         0.00000000
   5        -0.01005406
   6         0.04078553
Sym=     1a  
Ene=    -4.8523
Spin= Beta
Occup=    1.00000
   1         0.98731726
   2        -0.02152259
   3         0.00000000
   4        -0.00000000
   5        -0.00762098
   6         0.03734453
Sym=     2a  
Ene=    -0.5572
Spin= Alpha
Occup=    1.00000
   1        -0.29971613
   2         0.14175287
   3         0.00000000
   4        -0.00000000
   5         0.17693083
   6         0.84795223
Sym=     2a  
Ene=    -0.5338
Spin= Beta
Occup=    1.00000
   1        -0.28813774
   2         0.13854653
   3         0.00000000
   4        -0.00000000
   5         0.23038184
   6         0.81671457
Sym=     3a  
Ene=    -0.3264
Spin= Alpha
Occup=    1.00000
   1        -0.09671428
   2        -0.83256484
   3         0.00000000
   4        -0.00000000
   5         0.63506222
   6         0.27551342
Sym=     3a  
Ene=     0.0888
Spin= Beta
Occup=    0.00000
   1        -0.12164797
   2        -0.92333069
   3         0.00000000
   4        -0.00000000
   5         0.56144185
   6         0.34604654
Sym=     4a  
Ene=     0.0655
Spin= Alpha
Occup=    0.00000
   1         0.00000000
   2         0.00000000
   3         0.99977388
   4         0.02126451
   5        -0.00000000
   6        -0.00000000
Sym=     4a  
Ene=     0.1106
Spin= Beta
Occup=    0.00000
   1         0.00000000
   2         0.00000000
   3         0.99977419
   4         0.02125017
   5        -0.00000000
   6        -0.00000000
Sym=     5a  
Ene=     0.0655
Spin= Alpha
Occup=    0.00000
   1        -0.00000000
   2        -0.00000000
   3        -0.02126451
   4         0.99977388
   5         0.00000000
   6         0.00000000
Sym=     5a  
Ene=     0.1106
Spin= Beta
Occup=    0.00000
   1        -0.00000000
   2        -0.00000000
   3        -0.02125017
   4         0.99977419
   5         0.00000000
   6         0.00000000
Sym=     6a  
Ene=     0.6766
Spin= Alpha
Occup=    0.00000
   1        -0.77265068
   2        -1.81620070
   3         0.00000000
   4        -0.00000000
   5        -1.35882319
   6         2.27277542
Sym=     6a  
Ene=     0.7090
Spin= Beta
Occup=    0.00000
   1        -0.77202965
   2        -1.77204611
   3         0.00000000
   4        -0.00000000
   5        -1.38302540
   6         2.27462891
