   This run of MOLCAS is using the pymolcas driver

                             OPE
                             OPE          NMOL  CASOP  ENMOLC A   SO
                 OPE        NMOLC        AS  OP EN  MO LC     AS  OP
                OPENM       OL CA        SO  PE NM  OL CA     SOP EN
                OP EN      MO   LC       AS  OP ENMOL  CASO   PENMOL
                OP  EN     MO   LC       AS  OP EN     MO     LC ASO
               OP   E  NMOL  C  AS       OP  EN MO     LC     AS  OP
               OP  E   NMO   LC AS        OPEN  MO     LCASOP EN   M
               O  PEN   MO  LCA  SO
            OPE   NMO   L   CAS    OP
        OPENMOL  CASOP     ENMOL   CASOPE
     OPENMOLCA   SOPENMOLCASOPEN   MOLCASOPE
    OPENMOLCAS   OP           EN   MOL    CAS
    OPENMOLCAS       OP  ENM        O     LCA
    OPENMOLCAS    OPEN  MOLCASO     P  E  NMO
    OPENMOLCAS     OP               E  N  MOL
    OPENMOLCA   SO           PENM   O  L  CAS    OPEN    MO    LCAS
    OPENMOLCA   SOP           ENM   O  L  CAS   OP  EN  MOLC  AS   O
    OPENMOLCA   SOPE           NM      O  LCA   S      OP  EN MO
    OPENMOLC                AS         O  PEN   M      OL  CA  SOPE
    OPENMO        LCASOPE  NMOL        C  ASO   P      ENMOLC     AS
    OPE     NMO      LCA  SO     P     E   NM   OL  CA SO  PE N   MO
          OPENMOLCA            SOPE   NMO        LCAS  O    P  ENMO
     OPENMOLCASOPENMOLCASOPENMOLCASOPENMOLCA
        OPENMOLCASOPENMOLCASOPENMOLCASOPE
            OPENMOLCASOPENMOLCASOPENM
               OPENMOLCASOPENMOLCA        version: ea724fe96-dirty
                   OPENMOLCASO
                       OPE                tag:

 OpenMolcas is free software; you can redistribute it and/or modify it
 under the terms of the GNU Lesser General Public License version 2.1.
 OpenMolcas is distributed in the hope that it will be useful, but it
 is provided "as is" and without any express or implied warranties.
 For more details see the full text of the license in the file
 LICENSE or in <http://www.gnu.org/licenses/>.

                 Copyright (C) The OpenMolcas Authors
           For the author list and the recommended citation,
                   consult the file CONTRIBUTORS.md

           *************************************************
           * pymolcas version py2.28                       *
           *   build c4a6d18ded8cb6cad61d2372a9abd97c      *
           *   (after the EMIL interpreter by V. Veryazov) *
           *************************************************

configuration info
------------------
C Compiler ID: Intel
C flags: -std=gnu99
Fortran Compiler ID: Intel
Fortran flags: -fpp -i8 -r8 -heap-arrays
Definitions: _MOLCAS_;_I8_;_LINUX_
Parallel: OFF (GA=OFF)


   ----------------------------------------------------------------------------------
  |
  |              Project: H10_1.30
  |       Submitted from: /home/grierjones/DDCASPT2/hydrogen_comps/H10_chain/H10_1.30
  |         Scratch area: /tmp/H10_1.30
  |      Save outputs to: /home/grierjones/DDCASPT2/hydrogen_comps/H10_chain/H10_1.30
  |               Molcas: /home/grierjones/Test/build
  |
  | Scratch area is empty
  |
  |       MOLCAS_DRIVER = /usr/local/pymolcas
  | MOLCAS_KEEP_WORKDIR = NO
  |  MOLCAS_NEW_WORKDIR = YES
  |       MOLCAS_NPROCS = 1
  |        MOLCAS_PRINT = NORMAL
  |       MOLCAS_SOURCE = /home/grierjones/Test/build
  |    MOLCAS_STRUCTURE = 0
  |
   ----------------------------------------------------------------------------------

++ ---------   Input file   ---------

&GATEWAY
coord=H10_1.30.xyz
Basis = ANO-RCC-VDZP
Group = nosymm
Expert
End of Input

&SEWARD
End of Input

&SCF

>>> COPY $WorkDir/H10_1.30.scf.h5 $CurrDir/

&RASSCF
Title= RASSCF
FileOrb
/home/grierjones/DDCASPT2/hydrogen_comps/H10_chain/H10_1.28/H10_1.28.RasOrb
NACTEL
10 0 0
Inactive
0
RAS2
10
Symmetry
1
Spin
1
orblisting
all
ITERation
200 100
CIMX
200
SDAV
500

>>> COPY $WorkDir/H10_1.30.rasscf.h5 $CurrDir/

>>> COPY $WorkDir/GMJ_Fock_MO.csv $CurrDir/H10_1.30.GMJ_Fock_MO.csv

>>> COPY $WorkDir/GMJ_PT2_Fock_MO.csv $CurrDir/H10_1.30.GMJ_PT2_Fock_MO.csv

&MOTRA
Frozen=0
LUMORB

>>> COPY $WorkDir/GMJ_one_int_indx.csv $CurrDir/H10_1.30.GMJ_one_int_indx.csv

>>> COPY $WorkDir/GMJ_one_int.csv $CurrDir/H10_1.30.GMJ_one_int.csv

>>> COPY $WorkDir/GMJ_two_int_indx.csv $CurrDir/H10_1.30.GMJ_two_int_indx.csv

>>> COPY $WorkDir/GMJ_two_int.csv $CurrDir/H10_1.30.GMJ_two_int.csv

&CASPT2
Frozen
0

>>> FOREACH i IN (B,E,F,G,H)

  >>> FOREACH j IN (P,M)

    >>> IF (-FILE GMJ_e2_${i}_${j}.csv)

      >>> COPY $WorkDir/GMJ_RHS_${i}_${j}.csv $CurrDir/GMJ_RHS_${i}_${j}.csv

      >>> COPY $WorkDir/GMJ_IVECW_${i}_${j}.csv $CurrDir/GMJ_IVECW_${i}_${j}.csv

      >>> COPY $WorkDir/GMJ_IVECX_${i}_${j}.csv $CurrDir/GMJ_IVECX_${i}_${j}.csv

      >>> COPY $WorkDir/GMJ_IVECC2_${i}_${j}.csv $CurrDir/GMJ_IVECC2_${i}_${j}.csv

      >>> COPY $WorkDir/GMJ_e2_${i}_${j}.csv $CurrDir/GMJ_e2_${i}_${j}.csv

    >>> END IF

  >>> END FOREACH

>>> END FOREACH

>>> FOREACH i IN (A,C,D)

  >>> IF (-FILE GMJ_e2_$i.csv)

    >>> COPY $WorkDir/GMJ_RHS_$i.csv $CurrDir/GMJ_RHS_$i.csv

    >>> COPY $WorkDir/GMJ_IVECW_$i.csv $CurrDir/GMJ_IVECW_$i.csv

    >>> COPY $WorkDir/GMJ_IVECX_$i.csv $CurrDir/GMJ_IVECX_$i.csv

    >>> COPY $WorkDir/GMJ_IVECC2_$i.csv $CurrDir/GMJ_IVECC2_$i.csv

    >>> COPY $WorkDir/GMJ_e2_$i.csv $CurrDir/GMJ_e2_$i.csv

  >>> END IF

>>> END FOREACH

-- ----------------------------------

--- Start Module: gateway at Tue Nov 12 17:32:38 2024 ---
 
()()()()()()()()()()()()()()()()()()()()()()()()()()()()()()()()()()()()()()()()()()()()()()()()()()

                                              &GATEWAY

                                   only a single process is used
                       available to each process: 2.0 GB of memory, 1 thread?
()()()()()()()()()()()()()()()()()()()()()()()()()()()()()()()()()()()()()()()()()()()()()()()()()()
 
 ###############################################################################
 ###############################################################################
 ###                                                                         ###
 ###                                                                         ###
 ###                                                                         ###
 ###    WARNING: EXPERT option is ON!                                        ###
 ###                                                                         ###
 ###                                                                         ###
 ###############################################################################
 ###############################################################################
 
++    Symmetry information:
      ---------------------
 
                    Character Table for C1 
 
                             E  
                    a        1  x, y, xy, Rz, z, xz, Ry, yz, Rx, I
--
 
 
++    Basis set information:
      ----------------------
 
 
      Basis set label: H.ANO-RCC...2S1P.
 
      Electronic valence basis set:
      ------------------
      Associated Effective Charge   1.000000 au
      Associated Actual Charge      1.000000 au
      Nuclear Model: Point charge
 
      Shell  nPrim  nBasis  Cartesian Spherical Contaminant
         s       8       2        X                  
         p       4       1        X                  
--
 
 
++    Molecular structure info:
      -------------------------
 
                    ************************************************ 
                    **** Cartesian Coordinates / Bohr, Angstrom **** 
                    ************************************************ 
 
     Center  Label                x              y              z                     x              y              z
        1      H1               0.000000       0.000000       0.000000              0.000000       0.000000       0.000000
        2      H2               0.000000       0.000000       2.462370              0.000000       0.000000       1.303030
        3      H3               0.000000       0.000000       4.924742              0.000000       0.000000       2.606061
        4      H4               0.000000       0.000000       7.387111              0.000000       0.000000       3.909091
        5      H5               0.000000       0.000000       9.849481              0.000000       0.000000       5.212121
        6      H6               0.000000       0.000000      12.311853              0.000000       0.000000       6.515152
        7      H7               0.000000       0.000000      14.774223              0.000000       0.000000       7.818182
        8      H8               0.000000       0.000000      17.236593              0.000000       0.000000       9.121212
        9      H9               0.000000       0.000000      19.698962              0.000000       0.000000      10.424242
       10      H10              0.000000       0.000000      22.161334              0.000000       0.000000      11.727273
 
                    *************************************** 
                    *    InterNuclear Distances / Bohr    * 
                    *************************************** 
 
               1 H1            2 H2            3 H3            4 H4            5 H5            6 H6    
    1 H1       0.000000
    2 H2       2.462370        0.000000
    3 H3       4.924742        2.462372        0.000000
    4 H4       7.387111        4.924742        2.462370        0.000000
    5 H5       9.849481        7.387111        4.924740        2.462370        0.000000
    6 H6      12.311853        9.849483        7.387111        4.924742        2.462372        0.000000
    7 H7      14.774223       12.311853        9.849481        7.387111        4.924742        2.462370
    8 H8      17.236593       14.774223       12.311851        9.849481        7.387111        4.924740
    9 H9      19.698962       17.236593       14.774221       12.311851        9.849481        7.387109
   10 H10     22.161334       19.698964       17.236593       14.774223       12.311853        9.849481
 
               7 H7            8 H8            9 H9           10 H10   
    7 H7       0.000000
    8 H8       2.462370        0.000000
    9 H9       4.924740        2.462370        0.000000
   10 H10      7.387111        4.924742        2.462372        0.000000
 
                    ******************************************* 
                    *    InterNuclear Distances / Angstrom    * 
                    ******************************************* 
 
               1 H1            2 H2            3 H3            4 H4            5 H5            6 H6    
    1 H1       0.000000
    2 H2       1.303030        0.000000
    3 H3       2.606061        1.303031        0.000000
    4 H4       3.909091        2.606061        1.303030        0.000000
    5 H5       5.212121        3.909091        2.606060        1.303030        0.000000
    6 H6       6.515152        5.212122        3.909091        2.606061        1.303031        0.000000
    7 H7       7.818182        6.515152        5.212121        3.909091        2.606061        1.303030
    8 H8       9.121212        7.818182        6.515151        5.212121        3.909091        2.606060
    9 H9      10.424242        9.121212        7.818181        6.515151        5.212121        3.909090
   10 H10     11.727273       10.424243        9.121212        7.818182        6.515152        5.212121
 
               7 H7            8 H8            9 H9           10 H10   
    7 H7       0.000000
    8 H8       1.303030        0.000000
    9 H9       2.606060        1.303030        0.000000
   10 H10      3.909091        2.606061        1.303031        0.000000
 
                    ************************************** 
                    *    Valence Bond Angles / Degree    * 
                    ************************************** 
                          Atom centers                 Phi
                      1 H1       2 H2       3 H3       180.00
                      2 H2       3 H3       4 H4       180.00
                      3 H3       4 H4       5 H5       180.00
                      4 H4       5 H5       6 H6       180.00
                      5 H5       6 H6       7 H7       180.00
                      6 H6       7 H7       8 H8       180.00
                      7 H7       8 H8       9 H9       180.00
                      8 H8       9 H9      10 H10      180.00
--
 
 
            Nuclear Potential Energy              7.83378581 au
 
 ###############################################################################
 ###############################################################################
 ###                                                                         ###
 ###                                                                         ###
 ###    There were warnings during the execution                             ###
 ###    Please, check the output with care!                                  ###
 ###                                                                         ###
 ###                                                                         ###
 ###############################################################################
 ###############################################################################
--- Stop Module: gateway at Tue Nov 12 17:32:39 2024 /rc=_RC_ALL_IS_WELL_ ---
*** files: xmldump
    saved to directory /home/grierjones/DDCASPT2/hydrogen_comps/H10_chain/H10_1.30

--- Start Module: seward at Tue Nov 12 17:32:39 2024 ---
 
()()()()()()()()()()()()()()()()()()()()()()()()()()()()()()()()()()()()()()()()()()()()()()()()()()

                                              &SEWARD

                                   only a single process is used
                       available to each process: 2.0 GB of memory, 1 thread?
()()()()()()()()()()()()()()()()()()()()()()()()()()()()()()()()()()()()()()()()()()()()()()()()()()
 
 ###############################################################################
 ###############################################################################
 ###                                                                         ###
 ###                                                                         ###
 ###                                                                         ###
 ###    WARNING: EXPERT option is ON!                                        ###
 ###                                                                         ###
 ###                                                                         ###
 ###############################################################################
 ###############################################################################
               SEWARD will generate:
                  Multipole Moment integrals up to order  2
                  Kinetic Energy integrals
                  Nuclear Attraction integrals (point charge)
                  One-Electron Hamiltonian integrals
                  Velocity integrals
                  Relativistic Douglas-Kroll-Hess integrals:
                    - Parametrization         : EXP
                    - DKH order of Hamiltonian: 2
                    - DKH order of Properties : 0
                         - multipole moment operators
                         - electric potential operators
                         - contact operators
                  Atomic mean-field integrals
                  Two-Electron Repulsion integrals
 
                   Integrals are discarded if absolute value <: 0.10E-13
                   Integral cutoff threshold is set to       <: 0.10E-15
 
            Nuclear Potential Energy              7.83378581 au
 
 
      Basis set specifications :
      Symmetry species         a  
      Basis functions           50
 
 
  Input file to MOLDEN was generated!
 
 ###############################################################################
 ###############################################################################
 ###                                                                         ###
 ###                                                                         ###
 ###    There were warnings during the execution                             ###
 ###    Please, check the output with care!                                  ###
 ###                                                                         ###
 ###                                                                         ###
 ###############################################################################
 ###############################################################################
--- Stop Module: seward at Tue Nov 12 17:32:39 2024 /rc=_RC_ALL_IS_WELL_ ---
*** files: H10_1.30.GssOrb H10_1.30.guessorb.h5 H10_1.30.guessorb.molden xmldump
    saved to directory /home/grierjones/DDCASPT2/hydrogen_comps/H10_chain/H10_1.30

*** symbolic link created: INPORB -> H10_1.30.GssOrb
--- Start Module: scf at Tue Nov 12 17:32:39 2024 ---
 
()()()()()()()()()()()()()()()()()()()()()()()()()()()()()()()()()()()()()()()()()()()()()()()()()()

                                                &SCF

                                   only a single process is used
                       available to each process: 2.0 GB of memory, 1 thread?
()()()()()()()()()()()()()()()()()()()()()()()()()()()()()()()()()()()()()()()()()()()()()()()()()()
 
++    Input section:
      --------------
 
      Header of the integral files:
      
       Integrals generated by seward 4.2.0  , Tue Nov 12 17:32:39 2024
 
 
      Cartesian coordinates in Angstrom:
      -----------------------------------------------------
      No.  Label        X            Y            Z        
      -----------------------------------------------------
       1   H1         0.00000000   0.00000000   0.00000000
       2   H2         0.00000000   0.00000000   1.30303000
       3   H3         0.00000000   0.00000000   2.60606100
       4   H4         0.00000000   0.00000000   3.90909100
       5   H5         0.00000000   0.00000000   5.21212100
       6   H6         0.00000000   0.00000000   6.51515200
       7   H7         0.00000000   0.00000000   7.81818200
       8   H8         0.00000000   0.00000000   9.12121200
       9   H9         0.00000000   0.00000000  10.42424200
      10   H10        0.00000000   0.00000000  11.72727300
      -----------------------------------------------------
      Nuclear repulsion energy =    7.83378581
--
 
++    Orbital specifications:
      -----------------------
 
      Symmetry species               1
                                     a
      Frozen orbitals                0
      Occupied orbitals              5
      Secondary orbitals            45
      Deleted orbitals               0
      Total number of orbitals      50
      Number of basis functions     50
--
 
      Molecular charge                           0.000
 
++    Optimization specifications:
      ----------------------------
 
      SCF Algorithm: Conventional
      Minimized density differences are used
      Number of density matrices in core                5
      Maximum number of NDDO SCF iterations           400
      Maximum number of HF SCF iterations             400
      Threshold for SCF energy change            0.10E-08
      Threshold for density matrix               0.10E-03
      Threshold for Fock matrix                  0.15E-03
      Threshold for linear dependence            0.10E-08
      Threshold at which DIIS is turned on       0.15E+00
      Threshold at which QNR/C2DIIS is turned on 0.75E-01
      Threshold for Norm(delta) (QNR/C2DIIS)     0.20E-04
      DIIS extrapolation of the SCF procedure
      All orbitals punched on: SCFORB
--
 
      Input vectors read from INPORB
      Orbital file label: *Guess orbitals
 
 
++ Convergence information
                                   SCF        iterations: Energy and convergence statistics
 
Iter     Tot. SCF        One-elec.       Two-elec.     Energy      Max Dij or  Max Fij      DNorm      TNorm      AccCon     Time
         Energy          Energy          Energy        Change      Delta Norm                                                in Sec.
   1    -5.087500508   -21.047000011     8.125713695   0.00E+00    0.22E+00*   0.13E+00*    0.41E+01   0.15E+02   None         0.
   2    -5.181654739   -21.144756642     8.129316095  -0.94E-01*   0.91E-01*   0.18E-01*    0.15E+01   0.15E+02   EDIIS        0.
   3    -5.186505173   -21.101672248     8.081381267  -0.49E-02*   0.41E-01*   0.94E-02*    0.31E+00   0.15E+02   c2DIIS       0.
   4    -5.187604664   -21.103304854     8.081914381  -0.11E-02*   0.10E-01*   0.27E-02*    0.13E+00   0.15E+02   QNRc2DIIS    0.
   5    -5.187750976   -21.100968913     8.079432129  -0.15E-03*   0.11E-01*   0.13E-02*    0.12E-01   0.15E+02   QNRc2DIIS    0.
   6    -5.187804645   -21.100605751     8.079015298  -0.54E-04*   0.45E-03*   0.11E-03     0.72E-02   0.15E+02   QNRc2DIIS    0.
   7    -5.187804829   -21.100541929     8.078951293  -0.18E-06*   0.43E-04*   0.15E-04     0.72E-03   0.15E+02   QNRc2DIIS    0.
   8    -5.187804832   -21.100518106     8.078927467  -0.28E-08*   0.17E-04    0.34E-05     0.12E-03   0.15E+02   QNRc2DIIS    0.
   9    -5.187804832   -21.100517543     8.078926903  -0.25E-09    0.17E-05    0.40E-06     0.24E-04   0.15E+02   QNRc2DIIS    0.
 
       Convergence after  9 Macro Iterations
--
 
 *****************************************************************************************************************************
 *                                                                                                                           *
 *                                             SCF/KS-DFT Program, Final results                                             *
 *                                                                                                                           *
 *                                                                                                                           *
 *                                                                                                                           *
 *                                                       Final Results                                                       *
 *                                                                                                                           *
 *****************************************************************************************************************************
 
::    Total SCF energy                                 -5.1878048318
      One-electron energy                             -21.1005175430
      Two-electron energy                               8.0789269033
      Nuclear repulsion energy                          7.8337858079
      Kinetic energy (interpolated)                     4.1886018413
      Virial theorem                                    1.2385528700
      Total spin, S(S+1)                                0.0000000000
      Total spin, S                                     0.0000000000
      Max non-diagonal density matrix element           0.0000016203
      Max non-diagonal Fock matrix element              0.0000001107
 
 
      All orbitals with orbital energies smaller than  E(LUMO)+0.5 are printed
 
++    Molecular orbitals:
      -------------------
 
      Title: SCF orbitals

      Molecular orbitals for symmetry species 1: a  
 
          Orbital            1         2         3         4         5         6         7         8         9        10    
          Energy           -0.5998   -0.5670   -0.5132   -0.4394   -0.3519   -0.0671    0.0394    0.1509    0.2349    0.2704
          Occ. No.          2.0000    2.0000    2.0000    2.0000    2.0000    0.0000    0.0000    0.0000    0.0000    0.0000
 
        1 H1     1s         0.0949   -0.1859    0.2669   -0.3293    0.3161   -0.4744    0.6734   -0.6755    0.0607    0.4875
        2 H1     2s         0.0023   -0.0033    0.0065   -0.0224    0.0463   -0.1934    0.3688   -0.5167    0.2998    0.5060
        3 H1     2px        0.0000   -0.0000    0.0000   -0.0000    0.0000   -0.0000    0.0000   -0.0000    0.0000    0.0000
        4 H1     2py        0.0000   -0.0000    0.0000   -0.0000   -0.0000    0.0000   -0.0000    0.0000   -0.0000   -0.0000
        5 H1     2pz        0.0084   -0.0146    0.0165   -0.0138    0.0080    0.0024   -0.0130    0.0289   -0.0333   -0.0274
        6 H2     1s         0.1478   -0.2732    0.3475   -0.3402    0.2169    0.1911   -0.6235    1.0011   -0.4078   -0.8399
        7 H2     2s        -0.0095    0.0024    0.0299   -0.0746    0.0786    0.0671   -0.2900    0.5042   -0.0431   -0.5039
        8 H2     2px        0.0000   -0.0000    0.0000   -0.0000    0.0000   -0.0000    0.0000   -0.0000    0.0000    0.0000
        9 H2     2py       -0.0000    0.0000    0.0000   -0.0000    0.0000    0.0000   -0.0000    0.0000   -0.0000   -0.0000
       10 H2     2pz        0.0042   -0.0026   -0.0074    0.0200   -0.0230    0.0222   -0.0136   -0.0170    0.0158    0.0668
       11 H3     1s         0.2400   -0.3023    0.1240    0.2074   -0.4159    0.5216   -0.2145   -0.5604    0.3304    1.0156
       12 H3     2s         0.0016    0.0036   -0.0163    0.0557   -0.1064    0.1970   -0.0826   -0.3109    0.4042    0.4504
       13 H3     2px       -0.0000    0.0000    0.0000   -0.0000    0.0000   -0.0000    0.0000   -0.0000    0.0000    0.0000
       14 H3     2py       -0.0000    0.0000   -0.0000    0.0000    0.0000    0.0000   -0.0000    0.0000   -0.0000    0.0000
       15 H3     2pz        0.0071   -0.0008   -0.0149    0.0216   -0.0123   -0.0145    0.0285   -0.0252   -0.0144    0.0189
       16 H4     1s         0.2721   -0.2637   -0.0377    0.3422   -0.3176   -0.3465    0.6626   -0.1310   -0.5049   -0.7350
       17 H4     2s        -0.0082   -0.0142    0.0215    0.0417   -0.0898   -0.1248    0.2989   -0.0700   -0.0335   -0.5914
       18 H4     2px       -0.0000    0.0000    0.0000   -0.0000   -0.0000    0.0000    0.0000   -0.0000   -0.0000    0.0000
       19 H4     2py        0.0000    0.0000   -0.0000    0.0000    0.0000   -0.0000   -0.0000   -0.0000   -0.0000   -0.0000
       20 H4     2pz        0.0008    0.0111   -0.0181   -0.0006    0.0214   -0.0245    0.0010    0.0284   -0.0112   -0.0014
       21 H5     1s         0.3070   -0.0556   -0.3208    0.1178    0.3943   -0.4727   -0.3321    0.7685    0.0357    0.3838
       22 H5     2s        -0.0041    0.0173   -0.0268   -0.0033    0.1043   -0.1771   -0.1539    0.3806    0.2633   -0.0313
       23 H5     2px       -0.0000    0.0000    0.0000   -0.0000    0.0000    0.0000    0.0000   -0.0000    0.0000    0.0000
       24 H5     2py       -0.0000   -0.0000   -0.0000   -0.0000    0.0000   -0.0000   -0.0000   -0.0000    0.0000   -0.0000
       25 H5     2pz        0.0036    0.0131   -0.0101   -0.0168    0.0184    0.0210   -0.0215   -0.0194    0.0128    0.0398
       26 H6     1s         0.3070    0.0556   -0.3208   -0.1178    0.3943    0.4727   -0.3321   -0.7685    0.0357    0.3838
       27 H6     2s        -0.0041   -0.0173   -0.0268    0.0033    0.1043    0.1771   -0.1539   -0.3806    0.2633   -0.0313
       28 H6     2px       -0.0000   -0.0000   -0.0000    0.0000    0.0000   -0.0000   -0.0000    0.0000    0.0000    0.0000
       29 H6     2py       -0.0000   -0.0000   -0.0000    0.0000    0.0000   -0.0000   -0.0000    0.0000   -0.0000    0.0000
       30 H6     2pz       -0.0036    0.0131    0.0101   -0.0168   -0.0184    0.0210    0.0215   -0.0194   -0.0128   -0.0398
       31 H7     1s         0.2721    0.2637   -0.0377   -0.3422   -0.3176    0.3465    0.6626    0.1310   -0.5049   -0.7350
       32 H7     2s        -0.0082    0.0142    0.0215   -0.0417   -0.0898    0.1248    0.2989    0.0700   -0.0335   -0.5914
       33 H7     2px        0.0000    0.0000    0.0000    0.0000   -0.0000    0.0000    0.0000    0.0000    0.0000    0.0000
       34 H7     2py       -0.0000    0.0000   -0.0000    0.0000   -0.0000   -0.0000    0.0000   -0.0000   -0.0000    0.0000
       35 H7     2pz       -0.0008    0.0111    0.0181   -0.0006   -0.0214   -0.0245   -0.0010    0.0284    0.0112    0.0014
       36 H8     1s         0.2400    0.3023    0.1240   -0.2074   -0.4159   -0.5216   -0.2145    0.5604    0.3304    1.0156
       37 H8     2s         0.0016   -0.0036   -0.0163   -0.0557   -0.1064   -0.1970   -0.0826    0.3109    0.4042    0.4504
       38 H8     2px       -0.0000   -0.0000    0.0000    0.0000   -0.0000   -0.0000    0.0000   -0.0000    0.0000    0.0000
       39 H8     2py       -0.0000    0.0000   -0.0000   -0.0000   -0.0000    0.0000    0.0000   -0.0000   -0.0000    0.0000
       40 H8     2pz       -0.0071   -0.0008    0.0149    0.0216    0.0123   -0.0145   -0.0285   -0.0252    0.0144   -0.0189
       41 H9     1s         0.1478    0.2732    0.3475    0.3402    0.2169   -0.1911   -0.6235   -1.0011   -0.4078   -0.8399
       42 H9     2s        -0.0095   -0.0024    0.0299    0.0746    0.0786   -0.0671   -0.2900   -0.5042   -0.0431   -0.5039
       43 H9     2px       -0.0000    0.0000   -0.0000    0.0000    0.0000   -0.0000   -0.0000   -0.0000    0.0000   -0.0000
       44 H9     2py       -0.0000   -0.0000    0.0000    0.0000    0.0000   -0.0000    0.0000   -0.0000    0.0000    0.0000
       45 H9     2pz       -0.0042   -0.0026    0.0074    0.0200    0.0230    0.0222    0.0136   -0.0170   -0.0158   -0.0668
       46 H10    1s         0.0949    0.1859    0.2669    0.3293    0.3161    0.4744    0.6734    0.6755    0.0607    0.4875
       47 H10    2s         0.0023    0.0033    0.0065    0.0224    0.0463    0.1934    0.3688    0.5167    0.2998    0.5060
       48 H10    2px       -0.0000    0.0000    0.0000    0.0000    0.0000   -0.0000   -0.0000   -0.0000   -0.0000   -0.0000
       49 H10    2py        0.0000    0.0000    0.0000   -0.0000   -0.0000    0.0000   -0.0000   -0.0000    0.0000   -0.0000
       50 H10    2pz       -0.0084   -0.0146   -0.0165   -0.0138   -0.0080    0.0024    0.0130    0.0289    0.0333    0.0274
 
          Orbital           11        12        13    
          Energy            0.2818    0.3768    0.4064
          Occ. No.          0.0000    0.0000    0.0000
 
        1 H1     1s         0.2743   -0.4659   -0.3547
        2 H1     2s        -0.2041    0.1751   -0.5318
        3 H1     2px       -0.0000    0.0000   -0.0000
        4 H1     2py        0.0000    0.0000   -0.0000
        5 H1     2pz        0.0283    0.0029    0.0211
        6 H2     1s        -0.0645    0.6437    0.5365
        7 H2     2s        -0.3223    0.6285    0.4382
        8 H2     2px       -0.0000    0.0000   -0.0000
        9 H2     2py        0.0000   -0.0000   -0.0000
       10 H2     2pz       -0.0211    0.0491   -0.1147
       11 H3     1s         0.0608   -0.6704   -0.8361
       12 H3     2s        -0.2666   -0.2584   -0.2332
       13 H3     2px       -0.0000    0.0000   -0.0000
       14 H3     2py        0.0000   -0.0000   -0.0000
       15 H3     2pz        0.0019    0.0532    0.0194
       16 H4     1s         0.3340    0.4826    1.1263
       17 H4     2s        -0.0227    0.1177    0.8852
       18 H4     2px       -0.0000    0.0000   -0.0000
       19 H4     2py       -0.0000   -0.0000   -0.0000
       20 H4     2pz       -0.0466    0.0846   -0.0026
       21 H5     1s        -0.3999   -0.1430   -1.3034
       22 H5     2s        -0.2932   -0.3908   -0.6136
       23 H5     2px        0.0000   -0.0000   -0.0000
       24 H5     2py        0.0000    0.0000   -0.0000
       25 H5     2pz       -0.0367   -0.0032    0.0652
       26 H6     1s         0.3999   -0.1430    1.3034
       27 H6     2s         0.2932   -0.3908    0.6136
       28 H6     2px        0.0000   -0.0000    0.0000
       29 H6     2py        0.0000    0.0000   -0.0000
       30 H6     2pz       -0.0367    0.0032    0.0652
       31 H7     1s        -0.3340    0.4826   -1.1263
       32 H7     2s         0.0227    0.1177   -0.8852
       33 H7     2px        0.0000   -0.0000    0.0000
       34 H7     2py        0.0000   -0.0000   -0.0000
       35 H7     2pz       -0.0466   -0.0846   -0.0026
       36 H8     1s        -0.0607   -0.6704    0.8361
       37 H8     2s         0.2666   -0.2584    0.2332
       38 H8     2px       -0.0000    0.0000    0.0000
       39 H8     2py       -0.0000    0.0000   -0.0000
       40 H8     2pz        0.0019   -0.0532    0.0194
       41 H9     1s         0.0645    0.6437   -0.5365
       42 H9     2s         0.3223    0.6285   -0.4382
       43 H9     2px        0.0000    0.0000   -0.0000
       44 H9     2py        0.0000    0.0000   -0.0000
       45 H9     2pz       -0.0211   -0.0491   -0.1147
       46 H10    1s        -0.2743   -0.4659    0.3547
       47 H10    2s         0.2041    0.1751    0.5318
       48 H10    2px        0.0000    0.0000   -0.0000
       49 H10    2py        0.0000   -0.0000    0.0000
       50 H10    2pz        0.0283   -0.0029    0.0211
--
 
 
++    Molecular charges:
      ------------------
 
      Mulliken charges per centre and basis function type
      ---------------------------------------------------
 
                H1      H2      H3      H4      H5      H6      H7      H8      H9      H10   
      1s       0.9296  1.0311  1.0016  0.9965  0.9998  0.9998  0.9965  1.0016  1.0311  0.9296
      2s       0.0048 -0.0051 -0.0403 -0.0265 -0.0288 -0.0288 -0.0265 -0.0403 -0.0051  0.0048
      2px      0.0000  0.0000  0.0000  0.0000  0.0000  0.0000  0.0000  0.0000  0.0000  0.0000
      2pz      0.0169  0.0309  0.0296  0.0299  0.0299  0.0299  0.0299  0.0296  0.0309  0.0169
      2py      0.0000  0.0000  0.0000  0.0000  0.0000  0.0000  0.0000  0.0000  0.0000  0.0000
      Total    0.9514  1.0569  0.9909  0.9998  1.0010  1.0010  0.9998  0.9909  1.0569  0.9514
 
      N-E      0.0486 -0.0569  0.0091  0.0002 -0.0010 -0.0010  0.0002  0.0091 -0.0569  0.0486
 
      Total electronic charge=   10.000000
 
      Total            charge=   -0.000000
--
 
 
  Input file to MOLDEN was generated!
 
 
++    Static properties:
      ------------------
 
 
      LoProp Charges per center
 

                   H1       H2       H3       H4       H5       H6       H7       H8       H9       H10   
      Nuclear      1.0000   1.0000   1.0000   1.0000   1.0000   1.0000   1.0000   1.0000   1.0000   1.0000
      Electronic  -0.9906  -1.0095  -0.9973  -1.0021  -1.0005  -1.0005  -1.0021  -0.9973  -1.0095  -0.9906
 
      Total        0.0094  -0.0095   0.0027  -0.0021  -0.0005  -0.0005  -0.0021   0.0027  -0.0095   0.0094
--
 
 
++    Natural Bond Order analysis
      ---------------------------
      Based on LoProp computed density
      -------------------------------------------------------------------------------------
      Atom A       Atom B       Bond Order
      -------------------------------------------------------------------------------------
      NBO located      0.958 non-bonded electrons on atom H1        
      NBO located      1.017 non-bonded electrons on atom H3        
      NBO located      1.012 non-bonded electrons on atom H4        
      NBO located      1.016 non-bonded electrons on atom H5        
      NBO located      1.016 non-bonded electrons on atom H6        
      NBO located      1.012 non-bonded electrons on atom H7        
      NBO located      1.017 non-bonded electrons on atom H8        
      NBO located      0.958 non-bonded electrons on atom H10       
      The remaining    1.995 electrons are to be considered as diffuse
--
 
 
++    Molecular properties:
      ---------------------
 
      Charge (e):
                      =   -0.0000
      Dipole Moment (Debye):
      Origin of the operator (Ang)=    0.0000    0.0000    0.0000
                   X= -6.8904E-14               Y= -5.5818E-14               Z= -2.0654E-06           Total=  2.0654E-06
      Quadrupole Moment (Debye*Ang):
      Origin of the operator (Ang)=    0.0000    0.0000    5.8636
                  XX= -1.4164E+01              XY= -4.2982E-28              XZ=  4.1519E-13              YY= -1.4164E+01
                  YZ=  3.0116E-13              ZZ= -7.1075E+00
      In traceless form (Debye*Ang)
                  XX= -3.5284E+00              XY= -6.4473E-28              XZ=  6.2278E-13              YY= -3.5284E+00
                  YZ=  4.5174E-13              ZZ=  7.0568E+00
--
 
 
  Input file to MOLDEN was generated!
 
 ###############################################################################
 ###############################################################################
 ###                                                                         ###
 ###                                                                         ###
 ###    RunFile label nBas                                                   ###
 ###    was used       78 times                                              ###
 ###                                                                         ###
 ###                                                                         ###
 ###############################################################################
 ###############################################################################
--- Stop Module: scf at Tue Nov 12 17:32:40 2024 /rc=_RC_ALL_IS_WELL_ ---
*** files: H10_1.30.LprOrb H10_1.30.LoProp.molden H10_1.30.scf.molden H10_1.30.ScfOrb H10_1.30.scf.h5 xmldump
    saved to directory /home/grierjones/DDCASPT2/hydrogen_comps/H10_chain/H10_1.30

>>> COPY /tmp/H10_1.30/H10_1.30.scf.h5 /home/grierjones/DDCASPT2/hydrogen_comps/H10_chain/H10_1.30/

*** symbolic link created: INPORB -> H10_1.30.ScfOrb
--- Start Module: rasscf at Tue Nov 12 17:32:40 2024 ---
 
()()()()()()()()()()()()()()()()()()()()()()()()()()()()()()()()()()()()()()()()()()()()()()()()()()

                                              &RASSCF

                                   only a single process is used
                       available to each process: 2.0 GB of memory, 1 thread?
()()()()()()()()()()()()()()()()()()()()()()()()()()()()()()()()()()()()()()()()()()()()()()()()()()
 
 
      Header of the ONEINT file:
      --------------------------
      
      Integrals generated by seward 4.2.0  , Tue Nov 12 17:32:39 2024
 
 
      OrdInt status: non-squared
 
 
      Cartesian coordinates in Angstrom:
      -----------------------------------------------------
      No.  Label        X            Y            Z        
      -----------------------------------------------------
       1   H1         0.00000000   0.00000000   0.00000000
       2   H2         0.00000000   0.00000000   1.30303000
       3   H3         0.00000000   0.00000000   2.60606100
       4   H4         0.00000000   0.00000000   3.90909100
       5   H5         0.00000000   0.00000000   5.21212100
       6   H6         0.00000000   0.00000000   6.51515200
       7   H7         0.00000000   0.00000000   7.81818200
       8   H8         0.00000000   0.00000000   9.12121200
       9   H9         0.00000000   0.00000000  10.42424200
      10   H10        0.00000000   0.00000000  11.72727300
      -----------------------------------------------------
      Nuclear repulsion energy =    7.83378581
 
++    Wave function specifications:
      -----------------------------
 
      Number of closed shell electrons           0
      Number of electrons in active shells      10
      Max number of holes in RAS1 space          0
      Max nr of electrons in RAS3 space          0
      Number of inactive orbitals                0
      Number of active orbitals                 10
      Number of secondary orbitals              40
      Spin quantum number                      0.0
      State symmetry                             1
--
 
++    Orbital specifications:
      -----------------------
 
      Symmetry species                           1
                                                 a
      Frozen orbitals                            0
      Inactive orbitals                          0
      Active orbitals                           10
      RAS1 orbitals                              0
      RAS2 orbitals                             10
      RAS3 orbitals                              0
      Secondary orbitals                        40
      Deleted orbitals                           0
      Number of basis functions                 50
--
 
++    CI expansion specifications:
      ----------------------------
 
      Number of CSFs                         19404
      Number of determinants                 31878
      Number of root(s) required                 1
      Root chosen for geometry opt.              1
      CI root used                               1
         
      highest root included in the CI            1
      max. size of the explicit Hamiltonian    500
--
 
++    Optimization specifications:
      ----------------------------
 
      RASSCF algorithm: Conventional
      Maximum number of macro iterations       200
      Maximum number of SX iterations          100
      Threshold for RASSCF energy            0.100E-07
      Threshold for max MO rotation          0.100E+00
      Threshold for max BLB element          0.100E-03
      Level shift parameter                  0.500E+00
      Make Quasi-Newton update
--
 
      The MO-coefficients are taken from the file:
      /home/grierjones/DDCASPT2/hydrogen_comps/H10_chain/H10_1.28/H10_1.28.RasOrb                                                     
      Title: RASSCF average (pseudo-natural) orbitals                                      
 
      Total molecular charge    0.00
 
      ************************************************************************************************************************
      *                                                                                                                      *
      *                                            Wave function control section                                             *
      *                                                                                                                      *
      ************************************************************************************************************************
 
 
                                         RASSCF iterations: Energy and convergence statistics
                                         ----------------------------------------------------
 
      Iter CI   SX   CI       RASSCF       Energy    max ROT     max BLB   max BLB  Level Ln srch  Step   QN   Walltime
          iter iter root      energy       change     param      element    value   shift minimum  type update hh:mm:ss
 Nr of preliminary CI iterations:   6
        1   1    4    1    -5.38685442    0.00E+00   0.47E-02    1  11 1 -0.75E-02*  0.04   0.00    SX    NO    0:00:00
        2   1    3    1    -5.38696729   -0.11E-03* -0.84E-03    1  11 1 -0.13E-02*  0.04   0.00    SX    NO    0:00:00
        3   2    3    1    -5.38698279   -0.15E-04* -0.31E-03    1  11 1 -0.28E-03*  0.04   0.00    SX    NO    0:00:00
        4   8    3    1    -5.38699432   -0.12E-04* -0.75E-03    9  24 1  0.34E-03*  0.05   0.00    SX    NO    0:00:00
        5   4    3    1    -5.38699537   -0.10E-05* -0.38E-03    9  24 1  0.12E-03*  0.05   1.51    LS   YES    0:00:00
        6   5    3    1    -5.38699553   -0.16E-06* -0.85E-04    4  34 1 -0.22E-04   0.05   1.08    QN   YES    0:00:00
        7   1    3    1    -5.38699554   -0.88E-08   0.24E-04    4  34 1 -0.92E-05   0.05   1.16    QN   YES    0:00:00
      Convergence after  7 iterations
 
  Dmat in MO in SXCTL bf call to SXHAM                                                                                    
  mat. size =    10x   10
 
        1.9382347384742884
       -0.0000000174036027      1.9244913724056087
        0.0000671932789395      0.0000000030142854      1.8977724550350532
       -0.0000000145758750     -0.0001418664297747     -0.0000001123689523      1.8448011422013657
        0.0000558969097531      0.0000000901646056      0.0003159740066051     -0.0000002790060112      1.7252161508282500
        0.0002349527979557     -0.0000000055182299      0.0000472605273151      0.0000002415216149      0.0001657145612304
        0.0664603378949421
       -0.0000000959382271     -0.0009327304606249      0.0000000087993177     -0.0004163727588268      0.0000003660541308
        0.0000000104248082      0.0977735750025224
       -0.0004132913037336     -0.0000002822828269     -0.0023651225899231     -0.0000000140729805      0.0029447663210838
        0.0002801080853055     -0.0000001165246546      0.1600653525252974
       -0.0000001783956209     -0.0010340796181884     -0.0000004276491474      0.0046561923977435      0.0000000221811285
        0.0000001271954776     -0.0008085177606588     -0.0000002849944523      0.2940399871766834
        0.0000000017541427     -0.0000617973371534     -0.0000000931742169     -0.0002883325074907     -0.0000001231192886
        0.0000000079495506      0.0000178849038772      0.0000000145122852     -0.0000463882709191      0.0511448884560355
        8   1    3    1    -5.38699554   -0.56E-09   0.24E-04    4  24 1 -0.17E-05   0.05   1.16    QN   YES    0:00:00
 
      ************************************************************************************************************************
                                                      Wave function printout:
                       occupation of active orbitals, and spin coupling of open shells (u,d: Spin up or down)
      ************************************************************************************************************************
 
      Note: transformation to natural orbitals
      has been made, which may change the order of the CSFs.
 
      printout of CI-coefficients larger than  0.05 for root  1
      energy=      -5.386996
      conf/sym  1111111111     Coeff  Weight
             1  2222200000   0.83595 0.69881
            32  2222000200  -0.05708 0.00326
            36  2222000020  -0.23525 0.05534
            50  222ud00ud0  -0.18795 0.03533
            64  22u2d0u0d0  -0.12891 0.01662
            78  2u22du00d0  -0.10400 0.01082
           100  u222d000ud   0.10230 0.01046
           107  2220200200  -0.09172 0.00841
           111  2220200020  -0.06937 0.00481
           121  22ud20ud00  -0.09382 0.00880
           125  22ud200ud0  -0.05752 0.00331
           135  2u2d2u0d00  -0.07782 0.00606
           159  u22d200u0d   0.05866 0.00344
           164  2202202000  -0.05446 0.00297
           178  2ud22ud000  -0.05534 0.00306
           257  222uu00dd0  -0.08033 0.00645
           266  22u2u0d0d0  -0.05904 0.00349
          1971  2220000220   0.05027 0.00253
 
      Natural orbitals and occupation numbers for root  1
      sym 1:   1.938235   1.924493   1.897776   1.844815   1.725221   0.066459   0.097770   0.160057   0.294029   0.051145

 
      ************************************************************************************************************************
      *                                                                                                                      *
      *                                                    Final results                                                     *
      *                                                                                                                      *
      ************************************************************************************************************************
 
 
++    Wave function specifications:
      -----------------------------
 
      Number of closed shell electrons           0
      Number of electrons in active shells      10
      Max number of holes in RAS1 space          0
      Max nr of electrons in RAS3 space          0
      Number of inactive orbitals                0
      Number of active orbitals                 10
      Number of secondary orbitals              40
      Spin quantum number                      0.0
      State symmetry                             1
--
 
++    Orbital specifications:
      -----------------------
 
      Symmetry species                           1
                                                 a
      Frozen orbitals                            0
      Inactive orbitals                          0
      Active orbitals                           10
      RAS1 orbitals                              0
      RAS2 orbitals                             10
      RAS3 orbitals                              0
      Secondary orbitals                        40
      Deleted orbitals                           0
      Number of basis functions                 50
--
 
++    CI expansion specifications:
      ----------------------------
 
      Number of CSFs                         19404
      Number of determinants                 31878
      Number of root(s) required                 1
      CI root used                               1
      highest root included in the CI            1
      Root passed to geometry opt.               1
--
 
++    Final optimization conditions:
      ------------------------------
 
      Average CI energy                              -5.38699554
      RASSCF energy for state  1                     -5.38699554
      Super-CI energy                                -0.00000000
      RASSCF energy change                            0.00000000
      Max change in MO coefficients              -0.985E-04
      Max non-diagonal density matrix element     0.238E-04
      Maximum BLB matrix element                 -0.170E-05
      (orbital pair   4,  24 in symmetry   1)
      Norm of electronic gradient            0.454E-05
--
 
 
      Final state energy(ies):
      ------------------------
 
::    RASSCF root number  1 Total energy:     -5.38699554
 
++    Molecular orbitals:
      -------------------
 
      Pseudonatural active orbitals and approximate occupation numbers
 
 
 
 
      Molecular orbitals for symmetry species 1: a  
 
 
      Orbital                1         2         3         4         5         6         7         8         9        10
      Energy            0.0000    0.0000    0.0000    0.0000    0.0000    0.0000    0.0000    0.0000    0.0000    0.0000
      Occ. No.          1.9382    1.9245    1.8978    1.8448    1.7252    0.0665    0.0978    0.1601    0.2940    0.0511
 
    1 H1     1s         0.0945    0.1929    0.2816   -0.3380    0.3206    0.4526   -0.5368   -0.5210   -0.3959    0.2656
    2 H1     2s         0.0009    0.0007    0.0025   -0.0131    0.0312    0.0439   -0.0333   -0.0198   -0.0192    0.0346
    3 H1     2px       -0.0000   -0.0000   -0.0000   -0.0000    0.0000    0.0000   -0.0000   -0.0000   -0.0000    0.0000
    4 H1     2py        0.0000    0.0000    0.0000   -0.0000    0.0000    0.0000   -0.0000   -0.0000   -0.0000    0.0000
    5 H1     2pz        0.0061    0.0108    0.0120   -0.0091    0.0043    0.0085   -0.0074   -0.0048   -0.0026    0.0062
    6 H2     1s         0.1499    0.2801    0.3492   -0.3223    0.1943   -0.7786    0.7067    0.4264    0.1171   -0.5283
    7 H2     2s        -0.0101   -0.0073    0.0166   -0.0521    0.0609   -0.1713    0.1178    0.0349   -0.0238   -0.1364
    8 H2     2px        0.0000    0.0000    0.0000   -0.0000   -0.0000    0.0000   -0.0000    0.0000    0.0000   -0.0000
    9 H2     2py       -0.0000   -0.0000   -0.0000    0.0000   -0.0000    0.0000   -0.0000   -0.0000   -0.0000    0.0000
   10 H2     2pz        0.0051    0.0045   -0.0041    0.0158   -0.0199    0.0044    0.0034    0.0149    0.0194    0.0043
   11 H3     1s         0.2366    0.3042    0.1291    0.1969   -0.4165    0.8634   -0.3590    0.2419    0.4865    0.7683
   12 H3     2s        -0.0039   -0.0084   -0.0146    0.0391   -0.0810    0.2004   -0.0860    0.0149    0.0661    0.1970
   13 H3     2px        0.0000   -0.0000    0.0000    0.0000    0.0000   -0.0000    0.0000    0.0000   -0.0000    0.0000
   14 H3     2py       -0.0000   -0.0000   -0.0000   -0.0000    0.0000   -0.0000    0.0000    0.0000   -0.0000   -0.0000
   15 H3     2pz        0.0044   -0.0017   -0.0143    0.0184   -0.0088    0.0096   -0.0148   -0.0143   -0.0073    0.0038
   16 H4     1s         0.2766    0.2556   -0.0574    0.3475   -0.3029   -0.6671   -0.2002   -0.6001   -0.3063   -0.9224
   17 H4     2s        -0.0109    0.0047    0.0134    0.0280   -0.0672   -0.1450   -0.0590   -0.1067   -0.0240   -0.2447
   18 H4     2px       -0.0000    0.0000   -0.0000   -0.0000    0.0000    0.0000    0.0000    0.0000   -0.0000   -0.0000
   19 H4     2py        0.0000    0.0000   -0.0000    0.0000   -0.0000   -0.0000   -0.0000   -0.0000   -0.0000   -0.0000
   20 H4     2pz        0.0028   -0.0079   -0.0157    0.0011    0.0182   -0.0025    0.0144    0.0031   -0.0161    0.0078
   21 H5     1s         0.3120    0.0657   -0.3059    0.1320    0.3905    0.2337    0.6678    0.2934   -0.4307    1.0101
   22 H5     2s        -0.0084   -0.0120   -0.0125   -0.0025    0.0787    0.0635    0.1259    0.0731   -0.0478    0.2666
   23 H5     2px        0.0000    0.0000   -0.0000   -0.0000   -0.0000    0.0000   -0.0000    0.0000   -0.0000   -0.0000
   24 H5     2py       -0.0000   -0.0000    0.0000   -0.0000    0.0000    0.0000   -0.0000    0.0000    0.0000    0.0000
   25 H5     2pz        0.0011   -0.0116   -0.0067   -0.0158    0.0150    0.0114   -0.0018    0.0143    0.0126    0.0059
   26 H6     1s         0.3120   -0.0657   -0.3059   -0.1320    0.3905    0.2337   -0.6678    0.2934    0.4307   -1.0101
   27 H6     2s        -0.0084    0.0120   -0.0125    0.0025    0.0787    0.0635   -0.1259    0.0731    0.0478   -0.2666
   28 H6     2px       -0.0000    0.0000    0.0000    0.0000    0.0000   -0.0000   -0.0000   -0.0000    0.0000   -0.0000
   29 H6     2py       -0.0000    0.0000   -0.0000    0.0000   -0.0000   -0.0000    0.0000   -0.0000   -0.0000   -0.0000
   30 H6     2pz       -0.0011   -0.0116    0.0067   -0.0158   -0.0150   -0.0114   -0.0018   -0.0143    0.0126    0.0059
   31 H7     1s         0.2766   -0.2556   -0.0574   -0.3475   -0.3029   -0.6671    0.2002   -0.6001    0.3063    0.9224
   32 H7     2s        -0.0109   -0.0047    0.0134   -0.0280   -0.0672   -0.1450    0.0590   -0.1067    0.0240    0.2447
   33 H7     2px        0.0000   -0.0000   -0.0000   -0.0000    0.0000    0.0000    0.0000    0.0000    0.0000    0.0000
   34 H7     2py       -0.0000   -0.0000    0.0000   -0.0000   -0.0000   -0.0000   -0.0000   -0.0000    0.0000    0.0000
   35 H7     2pz       -0.0028   -0.0079    0.0157    0.0011   -0.0182    0.0025    0.0144   -0.0031   -0.0161    0.0078
   36 H8     1s         0.2366   -0.3042    0.1291   -0.1969   -0.4165    0.8634    0.3590    0.2419   -0.4865   -0.7683
   37 H8     2s        -0.0039    0.0084   -0.0146   -0.0391   -0.0810    0.2004    0.0860    0.0149   -0.0661   -0.1970
   38 H8     2px       -0.0000   -0.0000   -0.0000    0.0000   -0.0000   -0.0000   -0.0000    0.0000    0.0000    0.0000
   39 H8     2py       -0.0000    0.0000   -0.0000    0.0000    0.0000   -0.0000    0.0000   -0.0000    0.0000   -0.0000
   40 H8     2pz       -0.0044   -0.0017    0.0143    0.0184    0.0088   -0.0096   -0.0148    0.0143   -0.0073    0.0038
   41 H9     1s         0.1499   -0.2801    0.3492    0.3223    0.1943   -0.7786   -0.7067    0.4264   -0.1171    0.5283
   42 H9     2s        -0.0101    0.0073    0.0166    0.0521    0.0609   -0.1713   -0.1178    0.0349    0.0238    0.1364
   43 H9     2px        0.0000    0.0000    0.0000   -0.0000   -0.0000    0.0000    0.0000   -0.0000   -0.0000    0.0000
   44 H9     2py        0.0000    0.0000    0.0000   -0.0000    0.0000    0.0000   -0.0000   -0.0000   -0.0000    0.0000
   45 H9     2pz       -0.0051    0.0045    0.0041    0.0158    0.0199   -0.0044    0.0034   -0.0149    0.0194    0.0043
   46 H10    1s         0.0945   -0.1929    0.2816    0.3380    0.3206    0.4526    0.5368   -0.5210    0.3959   -0.2656
   47 H10    2s         0.0009   -0.0007    0.0025    0.0131    0.0312    0.0439    0.0333   -0.0198    0.0192   -0.0346
   48 H10    2px        0.0000   -0.0000   -0.0000    0.0000   -0.0000   -0.0000   -0.0000   -0.0000    0.0000   -0.0000
   49 H10    2py       -0.0000    0.0000   -0.0000   -0.0000   -0.0000   -0.0000   -0.0000    0.0000   -0.0000    0.0000
   50 H10    2pz       -0.0061    0.0108   -0.0120   -0.0091   -0.0043   -0.0085   -0.0074    0.0048   -0.0026    0.0062
 
 
      Orbital               11        12        13        14        15        16        17        18        19        20
      Energy            0.2410    0.2746    0.3324    0.4297    0.5862    0.5916    0.5916    0.6348    0.6348    0.7067
      Occ. No.          0.0000    0.0000    0.0000    0.0000    0.0000    0.0000    0.0000    0.0000    0.0000    0.0000
 
    1 H1     1s        -0.0698    0.0477   -0.1014    0.3497   -0.6150    0.0000   -0.0000   -0.0000    0.0000    0.0000
    2 H1     2s         0.1774   -0.3917   -0.6129    0.7918   -0.8930    0.0000   -0.0000   -0.0000    0.0000    0.0000
    3 H1     2px        0.0000   -0.0000   -0.0000   -0.0000    0.0000   -0.0002    0.0978    0.0473    0.1891    0.0955
    4 H1     2py       -0.0000    0.0000    0.0000   -0.0000    0.0000    0.0978    0.0002   -0.1891    0.0473   -0.2706
    5 H1     2pz       -0.0223    0.0311    0.0197    0.0046   -0.0172   -0.0000   -0.0000    0.0000   -0.0000   -0.0000
    6 H2     1s        -0.1065    0.1670    0.1785   -0.2196    0.4466   -0.0000    0.0000   -0.0000   -0.0000   -0.0000
    7 H2     2s         0.1342   -0.1801   -0.0593   -0.2686    0.8002   -0.0000    0.0000    0.0000   -0.0000   -0.0000
    8 H2     2px        0.0000   -0.0000   -0.0000    0.0000    0.0000   -0.0004    0.1768    0.0745    0.2976    0.1155
    9 H2     2py       -0.0000    0.0000    0.0000   -0.0000    0.0000    0.1768    0.0004   -0.2976    0.0745   -0.3272
   10 H2     2pz       -0.0025   -0.0278   -0.0879    0.1432   -0.1568    0.0000   -0.0000   -0.0000    0.0000   -0.0000
   11 H3     1s        -0.1047    0.0541   -0.0655    0.0439    0.1266    0.0000    0.0000   -0.0000    0.0000    0.0000
   12 H3     2s         0.1926   -0.2518   -0.0707   -0.2977    0.5472   -0.0000    0.0000    0.0000    0.0000    0.0000
   13 H3     2px       -0.0000   -0.0000   -0.0000    0.0000   -0.0000   -0.0005    0.2457    0.0801    0.3202    0.0603
   14 H3     2py        0.0000   -0.0000   -0.0000   -0.0000    0.0000    0.2457    0.0005   -0.3202    0.0801   -0.1709
   15 H3     2pz       -0.0140   -0.0115   -0.0495    0.0324    0.0777   -0.0000    0.0000    0.0000   -0.0000   -0.0000
   16 H4     1s        -0.1219    0.0936   -0.0015   -0.0210   -0.0123   -0.0000   -0.0000    0.0000   -0.0000    0.0000
   17 H4     2s         0.2033   -0.1241    0.2053   -0.4358    0.0537   -0.0000    0.0000    0.0000   -0.0000    0.0000
   18 H4     2px       -0.0000   -0.0000   -0.0000    0.0000   -0.0000   -0.0006    0.2943    0.0608    0.2428   -0.0351
   19 H4     2py       -0.0000    0.0000   -0.0000   -0.0000    0.0000    0.2943    0.0006   -0.2428    0.0608    0.0996
   20 H4     2pz       -0.0051   -0.0348   -0.0549   -0.0191    0.1137   -0.0000    0.0000    0.0000   -0.0000   -0.0000
   21 H5     1s        -0.1302   -0.0068   -0.0625   -0.0439   -0.1463    0.0000   -0.0000   -0.0000    0.0000    0.0000
   22 H5     2s         0.2180   -0.0728    0.2842   -0.1952   -0.5585    0.0000   -0.0000   -0.0000    0.0000    0.0000
   23 H5     2px       -0.0000    0.0000   -0.0000    0.0000   -0.0000   -0.0007    0.3202    0.0225    0.0901   -0.1074
   24 H5     2py        0.0000    0.0000   -0.0000   -0.0000    0.0000    0.3202    0.0007   -0.0901    0.0225    0.3044
   25 H5     2pz       -0.0037   -0.0378   -0.0165   -0.0838    0.0768   -0.0000    0.0000    0.0000   -0.0000    0.0000
   26 H6     1s        -0.1302    0.0068   -0.0625    0.0439   -0.1463    0.0000   -0.0000    0.0000   -0.0000   -0.0000
   27 H6     2s         0.2180    0.0728    0.2842    0.1952   -0.5585    0.0000   -0.0000    0.0000    0.0000   -0.0000
   28 H6     2px        0.0000    0.0000   -0.0000   -0.0000   -0.0000   -0.0007    0.3202   -0.0225   -0.0901   -0.1074
   29 H6     2py        0.0000    0.0000   -0.0000   -0.0000    0.0000    0.3202    0.0007    0.0901   -0.0225    0.3044
   30 H6     2pz        0.0037   -0.0378    0.0165   -0.0838   -0.0768    0.0000   -0.0000   -0.0000    0.0000    0.0000
   31 H7     1s        -0.1219   -0.0936   -0.0015    0.0210   -0.0123   -0.0000    0.0000   -0.0000    0.0000   -0.0000
   32 H7     2s         0.2033    0.1241    0.2053    0.4358    0.0537    0.0000    0.0000   -0.0000    0.0000   -0.0000
   33 H7     2px       -0.0000    0.0000   -0.0000   -0.0000   -0.0000   -0.0006    0.2943   -0.0608   -0.2428   -0.0351
   34 H7     2py        0.0000    0.0000   -0.0000   -0.0000    0.0000    0.2943    0.0006    0.2428   -0.0608    0.0996
   35 H7     2pz        0.0051   -0.0348    0.0549   -0.0191   -0.1137    0.0000   -0.0000   -0.0000    0.0000   -0.0000
   36 H8     1s        -0.1047   -0.0541   -0.0655   -0.0439    0.1266    0.0000   -0.0000    0.0000   -0.0000   -0.0000
   37 H8     2s         0.1926    0.2518   -0.0707    0.2977    0.5472   -0.0000   -0.0000    0.0000   -0.0000    0.0000
   38 H8     2px        0.0000    0.0000   -0.0000    0.0000   -0.0000   -0.0005    0.2457   -0.0801   -0.3202    0.0603
   39 H8     2py        0.0000    0.0000   -0.0000   -0.0000    0.0000    0.2457    0.0005    0.3202   -0.0801   -0.1709
   40 H8     2pz        0.0140   -0.0115    0.0495    0.0324   -0.0777    0.0000   -0.0000   -0.0000    0.0000   -0.0000
   41 H9     1s        -0.1065   -0.1670    0.1785    0.2196    0.4466   -0.0000    0.0000   -0.0000    0.0000    0.0000
   42 H9     2s         0.1342    0.1801   -0.0593    0.2686    0.8002   -0.0000    0.0000    0.0000   -0.0000    0.0000
   43 H9     2px       -0.0000    0.0000    0.0000    0.0000   -0.0000   -0.0004    0.1768   -0.0745   -0.2976    0.1155
   44 H9     2py        0.0000    0.0000   -0.0000   -0.0000    0.0000    0.1768    0.0004    0.2976   -0.0745   -0.3272
   45 H9     2pz        0.0025   -0.0278    0.0879    0.1432    0.1568   -0.0000    0.0000    0.0000   -0.0000    0.0000
   46 H10    1s        -0.0698   -0.0477   -0.1014   -0.3497   -0.6150    0.0000   -0.0000   -0.0000    0.0000   -0.0000
   47 H10    2s         0.1774    0.3917   -0.6129   -0.7918   -0.8930    0.0000   -0.0000   -0.0000    0.0000   -0.0000
   48 H10    2px       -0.0000   -0.0000   -0.0000    0.0000   -0.0000   -0.0002    0.0978   -0.0473   -0.1891    0.0955
   49 H10    2py        0.0000    0.0000   -0.0000   -0.0000    0.0000    0.0978    0.0002    0.1891   -0.0473   -0.2706
   50 H10    2pz        0.0223    0.0311   -0.0197    0.0046    0.0172   -0.0000   -0.0000    0.0000   -0.0000   -0.0000
 
 
      Orbital               21        22        23        24        25        26        27        28        29        30
      Energy            0.7067    0.7999    0.8081    0.8081    0.9396    0.9396    1.0061    1.0855    1.1036    1.1036
      Occ. No.          0.0000    0.0000    0.0000    0.0000    0.0000    0.0000    0.0000    0.0000    0.0000    0.0000
 
    1 H1     1s         0.0000    0.7788   -0.0000   -0.0000   -0.0000   -0.0000    0.5112   -0.5673   -0.0000   -0.0000
    2 H1     2s         0.0000    0.8542   -0.0000   -0.0000    0.0000    0.0000    0.3042   -0.6736   -0.0000   -0.0000
    3 H1     2px       -0.2706   -0.0000   -0.1554   -0.3317   -0.2128    0.3657    0.0000    0.0000    0.2796   -0.3562
    4 H1     2py       -0.0955    0.0000    0.3317   -0.1554    0.3657    0.2128    0.0000    0.0000   -0.3562   -0.2796
    5 H1     2pz       -0.0000   -0.0156    0.0000   -0.0000    0.0000    0.0000   -0.2258   -0.1135   -0.0000   -0.0000
    6 H2     1s        -0.0000   -0.8611    0.0000    0.0000    0.0000    0.0000   -0.8442    0.9770    0.0000    0.0000
    7 H2     2s        -0.0000   -1.3771    0.0000    0.0000    0.0000    0.0000   -1.1057    1.4272    0.0000    0.0000
    8 H2     2px       -0.3272   -0.0000   -0.1152   -0.2459   -0.0435    0.0747    0.0000   -0.0000   -0.1040    0.1325
    9 H2     2py       -0.1155    0.0000    0.2459   -0.1152    0.0747    0.0435    0.0000   -0.0000    0.1325    0.1040
   10 H2     2pz       -0.0000    0.1173   -0.0000   -0.0000   -0.0000    0.0000    0.1656    0.1310    0.0000    0.0000
   11 H3     1s         0.0000   -0.0956   -0.0000    0.0000   -0.0000   -0.0000    0.4789   -0.3336    0.0000   -0.0000
   12 H3     2s         0.0000   -0.2088   -0.0000    0.0000   -0.0000   -0.0000    0.6899   -0.5944    0.0000   -0.0000
   13 H3     2px       -0.1709    0.0000    0.0536    0.1144    0.1973   -0.3390   -0.0000   -0.0000   -0.2547    0.3245
   14 H3     2py       -0.0603    0.0000   -0.1144    0.0536   -0.3390   -0.1973    0.0000   -0.0000    0.3245    0.2547
   15 H3     2pz       -0.0000   -0.2060    0.0000    0.0000    0.0000    0.0000   -0.3147   -0.0694   -0.0000   -0.0000
   16 H4     1s        -0.0000    0.4567    0.0000   -0.0000    0.0000    0.0000    0.4375   -0.6820   -0.0000   -0.0000
   17 H4     2s         0.0000    0.8721   -0.0000   -0.0000    0.0000    0.0000    0.7053   -0.9283   -0.0000   -0.0000
   18 H4     2px        0.0996    0.0000    0.1610    0.3437    0.1086   -0.1866   -0.0000    0.0000    0.1648   -0.2100
   19 H4     2py        0.0351    0.0000   -0.3437    0.1610   -0.1866   -0.1086   -0.0000    0.0000   -0.2100   -0.1648
   20 H4     2pz        0.0000   -0.0578    0.0000    0.0000   -0.0000   -0.0000    0.2830    0.1736    0.0000    0.0000
   21 H5     1s         0.0000    0.3445   -0.0000   -0.0000   -0.0000    0.0000   -0.4167    0.5230   -0.0000    0.0000
   22 H5     2s         0.0000    0.6832   -0.0000   -0.0000   -0.0000    0.0000   -0.6681    0.7479    0.0000    0.0000
   23 H5     2px        0.3044    0.0000    0.0861    0.1838   -0.1617    0.2779    0.0000    0.0000    0.2161   -0.2754
   24 H5     2py        0.1074   -0.0000   -0.1838    0.0861    0.2779    0.1617   -0.0000    0.0000   -0.2754   -0.2161
   25 H5     2pz        0.0000    0.1218   -0.0000   -0.0000    0.0000   -0.0000   -0.1059   -0.3729   -0.0000   -0.0000
   26 H6     1s        -0.0000   -0.3445    0.0000    0.0000    0.0000   -0.0000   -0.4167    0.5230    0.0000    0.0000
   27 H6     2s        -0.0000   -0.6832    0.0000    0.0000   -0.0000   -0.0000   -0.6681    0.7479    0.0000    0.0000
   28 H6     2px        0.3044   -0.0000   -0.0861   -0.1838   -0.1617    0.2779    0.0000   -0.0000   -0.2161    0.2754
   29 H6     2py        0.1074   -0.0000    0.1838   -0.0861    0.2779    0.1617    0.0000   -0.0000    0.2754    0.2161
   30 H6     2pz       -0.0000    0.1218   -0.0000   -0.0000    0.0000    0.0000    0.1059    0.3729    0.0000    0.0000
   31 H7     1s        -0.0000   -0.4567   -0.0000    0.0000   -0.0000   -0.0000    0.4375   -0.6820   -0.0000   -0.0000
   32 H7     2s        -0.0000   -0.8721    0.0000    0.0000   -0.0000   -0.0000    0.7053   -0.9283   -0.0000   -0.0000
   33 H7     2px        0.0996   -0.0000   -0.1610   -0.3437    0.1086   -0.1866   -0.0000   -0.0000   -0.1648    0.2100
   34 H7     2py        0.0351   -0.0000    0.3437   -0.1610   -0.1866   -0.1086    0.0000   -0.0000    0.2100    0.1648
   35 H7     2pz       -0.0000   -0.0578    0.0000    0.0000   -0.0000    0.0000   -0.2830   -0.1736   -0.0000   -0.0000
   36 H8     1s         0.0000    0.0956   -0.0000   -0.0000    0.0000   -0.0000    0.4789   -0.3336   -0.0000   -0.0000
   37 H8     2s         0.0000    0.2088   -0.0000   -0.0000    0.0000   -0.0000    0.6899   -0.5944   -0.0000   -0.0000
   38 H8     2px       -0.1709   -0.0000   -0.0536   -0.1144    0.1973   -0.3390   -0.0000    0.0000    0.2547   -0.3245
   39 H8     2py       -0.0603    0.0000    0.1144   -0.0536   -0.3390   -0.1973   -0.0000    0.0000   -0.3245   -0.2547
   40 H8     2pz       -0.0000   -0.2060    0.0000    0.0000   -0.0000   -0.0000    0.3147    0.0694   -0.0000   -0.0000
   41 H9     1s         0.0000    0.8611   -0.0000   -0.0000    0.0000    0.0000   -0.8442    0.9770    0.0000    0.0000
   42 H9     2s         0.0000    1.3771   -0.0000   -0.0000    0.0000    0.0000   -1.1057    1.4272    0.0000    0.0000
   43 H9     2px       -0.3272    0.0000    0.1152    0.2459   -0.0435    0.0747   -0.0000    0.0000    0.1040   -0.1325
   44 H9     2py       -0.1155    0.0000   -0.2459    0.1152    0.0747    0.0435   -0.0000    0.0000   -0.1325   -0.1040
   45 H9     2pz        0.0000    0.1173   -0.0000   -0.0000    0.0000    0.0000   -0.1656   -0.1310    0.0000   -0.0000
   46 H10    1s        -0.0000   -0.7788    0.0000    0.0000    0.0000   -0.0000    0.5111   -0.5673   -0.0000   -0.0000
   47 H10    2s        -0.0000   -0.8542    0.0000    0.0000   -0.0000   -0.0000    0.3042   -0.6736   -0.0000   -0.0000
   48 H10    2px       -0.2706    0.0000    0.1554    0.3317   -0.2128    0.3657    0.0000   -0.0000   -0.2796    0.3562
   49 H10    2py       -0.0955    0.0000   -0.3317    0.1554    0.3657    0.2128    0.0000   -0.0000    0.3562    0.2796
   50 H10    2pz        0.0000   -0.0156    0.0000    0.0000    0.0000   -0.0000    0.2258    0.1135   -0.0000    0.0000
 
 
      Orbital               31        32        33        34        35        36        37        38        39        40
      Energy            1.1242    1.2837    1.2855    1.2922    1.2922    1.4950    1.4950    1.6873    1.6873    1.6878
      Occ. No.          0.0000    0.0000    0.0000    0.0000    0.0000    0.0000    0.0000    0.0000    0.0000    0.0000
 
    1 H1     1s         0.0723    0.1188    0.5540    0.0000    0.0000    0.0000    0.0000    0.0000    0.0000   -0.8013
    2 H1     2s        -0.2366    0.3150    0.5534    0.0000    0.0000    0.0000   -0.0000    0.0000    0.0000   -0.7710
    3 H1     2px       -0.0000    0.0000   -0.0000    0.3569    0.2718   -0.2114   -0.3396   -0.0609    0.2980    0.0000
    4 H1     2py        0.0000   -0.0000    0.0000   -0.2718    0.3569    0.3396   -0.2114   -0.2980   -0.0609   -0.0000
    5 H1     2pz       -0.4086    0.4093    0.0041   -0.0000    0.0000    0.0000   -0.0000    0.0000    0.0000   -0.6055
    6 H2     1s        -0.2004   -0.1643   -1.3082   -0.0000   -0.0000   -0.0000    0.0000   -0.0000   -0.0000    1.8989
    7 H2     2s        -0.2282   -0.0532   -1.6900   -0.0000   -0.0000   -0.0000    0.0000   -0.0000   -0.0000    1.5692
    8 H2     2px        0.0000   -0.0000    0.0000   -0.3313   -0.2523    0.3009    0.4832    0.1104   -0.5399   -0.0000
    9 H2     2py       -0.0000    0.0000   -0.0000    0.2523   -0.3313   -0.4832    0.3009    0.5399    0.1104    0.0000
   10 H2     2pz        0.2516   -0.1787   -0.1583    0.0000   -0.0000   -0.0000   -0.0000   -0.0000   -0.0000    0.1443
   11 H3     1s         0.5587   -0.4724    1.3494    0.0000   -0.0000    0.0000   -0.0000    0.0000    0.0000   -1.4083
   12 H3     2s         0.8701   -0.8777    1.7532    0.0000   -0.0000    0.0000    0.0000    0.0000    0.0000   -1.1667
   13 H3     2px       -0.0000   -0.0000    0.0000   -0.0952   -0.0725   -0.1739   -0.2794   -0.1231    0.6022    0.0000
   14 H3     2py       -0.0000    0.0000   -0.0000    0.0725   -0.0952    0.2794   -0.1739   -0.6022   -0.1231   -0.0000
   15 H3     2pz       -0.2589   -0.0115    0.1300    0.0000   -0.0000    0.0000    0.0000   -0.0000   -0.0000    0.3909
   16 H4     1s        -0.2283    0.8638   -0.1126   -0.0000    0.0000   -0.0000    0.0000    0.0000    0.0000   -0.3367
   17 H4     2s        -0.5135    1.3782   -0.0406   -0.0000    0.0000   -0.0000   -0.0000    0.0000    0.0000   -0.3113
   18 H4     2px       -0.0000    0.0000   -0.0000    0.4060    0.3091   -0.0773   -0.1242    0.0952   -0.4655   -0.0000
   19 H4     2py        0.0000   -0.0000    0.0000   -0.3091    0.4060    0.1242   -0.0773    0.4655    0.0952    0.0000
   20 H4     2pz        0.2454    0.1703   -0.0472   -0.0000    0.0000    0.0000   -0.0000    0.0000    0.0000   -0.6088
   21 H5     1s        -0.4273   -0.4372   -1.2515   -0.0000   -0.0000    0.0000   -0.0000   -0.0000   -0.0000    1.8858
   22 H5     2s        -0.3693   -0.6755   -1.8021   -0.0000   -0.0000    0.0000   -0.0000   -0.0000   -0.0000    1.6004
   23 H5     2px        0.0000   -0.0000    0.0000   -0.2261   -0.1722    0.2734    0.4392   -0.0356    0.1743    0.0000
   24 H5     2py        0.0000    0.0000   -0.0000    0.1722   -0.2261   -0.4392    0.2734   -0.1743   -0.0356   -0.0000
   25 H5     2pz       -0.1103   -0.2405    0.0053    0.0000   -0.0000   -0.0000   -0.0000   -0.0000   -0.0000    0.2887
   26 H6     1s         0.4273   -0.4371    1.2516    0.0000   -0.0000   -0.0000    0.0000    0.0000    0.0000   -1.8858
   27 H6     2s         0.3693   -0.6754    1.8022    0.0000   -0.0000   -0.0000    0.0000    0.0000    0.0000   -1.6004
   28 H6     2px       -0.0000   -0.0000    0.0000   -0.2261   -0.1722   -0.2734   -0.4392   -0.0356    0.1743    0.0000
   29 H6     2py       -0.0000    0.0000   -0.0000    0.1722   -0.2261    0.4392   -0.2734   -0.1743   -0.0356   -0.0000
   30 H6     2pz       -0.1103    0.2405    0.0053   -0.0000    0.0000    0.0000    0.0000   -0.0000   -0.0000    0.2887
   31 H7     1s         0.2283    0.8638    0.1126   -0.0000    0.0000    0.0000   -0.0000   -0.0000   -0.0000    0.3367
   32 H7     2s         0.5135    1.3782    0.0405   -0.0000    0.0000    0.0000   -0.0000    0.0000   -0.0000    0.3113
   33 H7     2px       -0.0000    0.0000   -0.0000    0.4060    0.3091    0.0773    0.1242    0.0952   -0.4655   -0.0000
   34 H7     2py       -0.0000   -0.0000    0.0000   -0.3091    0.4060   -0.1242    0.0773    0.4655    0.0952    0.0000
   35 H7     2pz        0.2454   -0.1703   -0.0472    0.0000   -0.0000   -0.0000   -0.0000    0.0000    0.0000   -0.6088
   36 H8     1s        -0.5587   -0.4725   -1.3494   -0.0000   -0.0000   -0.0000   -0.0000   -0.0000   -0.0000    1.4083
   37 H8     2s        -0.8701   -0.8778   -1.7532   -0.0000   -0.0000   -0.0000   -0.0000   -0.0000   -0.0000    1.1667
   38 H8     2px        0.0000   -0.0000    0.0000   -0.0952   -0.0725    0.1739    0.2794   -0.1231    0.6022    0.0000
   39 H8     2py        0.0000    0.0000   -0.0000    0.0725   -0.0952   -0.2794    0.1739   -0.6022   -0.1231   -0.0000
   40 H8     2pz       -0.2589    0.0115    0.1300    0.0000    0.0000    0.0000    0.0000   -0.0000   -0.0000    0.3909
   41 H9     1s         0.2004   -0.1643    1.3082    0.0000   -0.0000    0.0000    0.0000    0.0000    0.0000   -1.8989
   42 H9     2s         0.2282   -0.0531    1.6900    0.0000   -0.0000    0.0000    0.0000    0.0000    0.0000   -1.5692
   43 H9     2px        0.0000   -0.0000    0.0000   -0.3313   -0.2523   -0.3009   -0.4832    0.1104   -0.5399   -0.0000
   44 H9     2py        0.0000    0.0000   -0.0000    0.2523   -0.3313    0.4832   -0.3009    0.5399    0.1104    0.0000
   45 H9     2pz        0.2516    0.1787   -0.1583   -0.0000    0.0000   -0.0000   -0.0000   -0.0000   -0.0000    0.1443
   46 H10    1s        -0.0723    0.1188   -0.5541   -0.0000    0.0000   -0.0000    0.0000   -0.0000   -0.0000    0.8013
   47 H10    2s         0.2366    0.3150   -0.5535   -0.0000    0.0000    0.0000   -0.0000   -0.0000   -0.0000    0.7710
   48 H10    2px       -0.0000    0.0000   -0.0000    0.3569    0.2718    0.2114    0.3396   -0.0609    0.2980    0.0000
   49 H10    2py       -0.0000   -0.0000    0.0000   -0.2718    0.3569   -0.3396    0.2114   -0.2980   -0.0609   -0.0000
   50 H10    2pz       -0.4086   -0.4093    0.0041    0.0000   -0.0000    0.0000    0.0000    0.0000    0.0000   -0.6055
 
 
      Orbital               41        42        43        44        45        46        47        48        49        50
      Energy            1.7199    1.8303    1.8303    1.9023    1.9329    2.1891    2.5185    2.8892    3.2904    3.6438
      Occ. No.          0.0000    0.0000    0.0000    0.0000    0.0000    0.0000    0.0000    0.0000    0.0000    0.0000
 
    1 H1     1s        -0.7922   -0.0000    0.0000   -0.7876    0.5335    0.7107   -0.6456    0.5790   -0.4661    0.2700
    2 H1     2s        -0.7712   -0.0000    0.0000   -0.6202    0.4966    0.4183   -0.2702    0.1756   -0.1114    0.0569
    3 H1     2px        0.0000    0.0397    0.1605    0.0000    0.0000   -0.0000    0.0000    0.0000    0.0000   -0.0000
    4 H1     2py        0.0000    0.1605   -0.0397    0.0000    0.0000    0.0000    0.0000   -0.0000    0.0000   -0.0000
    5 H1     2pz       -0.3212   -0.0000    0.0000   -0.6628    0.1820    0.6154   -0.5525    0.4757   -0.3659    0.2051
    6 H2     1s         2.3358    0.0000   -0.0000    1.5220   -1.7256   -0.8933    0.3456    0.0295   -0.2312    0.2067
    7 H2     2s         2.3005    0.0000   -0.0000    1.0154   -1.6642   -0.4699    0.1682   -0.0752    0.0515   -0.0329
    8 H2     2px       -0.0000   -0.0819   -0.3306    0.0000   -0.0000    0.0000   -0.0000    0.0000   -0.0000    0.0000
    9 H2     2py       -0.0000   -0.3306    0.0819    0.0000    0.0000   -0.0000    0.0000   -0.0000    0.0000   -0.0000
   10 H2     2pz        0.3289   -0.0000    0.0000   -0.1706   -0.2420    0.5344   -0.8248    0.9698   -0.9006    0.5583
   11 H3     1s        -3.3883   -0.0000    0.0000   -0.4505    3.0293   -0.4476    0.7154   -0.3967   -0.0482    0.2212
   12 H3     2s        -3.3421   -0.0000    0.0000   -0.4408    2.9505   -0.0266    0.0952    0.0141   -0.0494    0.0349
   13 H3     2px        0.0000    0.1169    0.4722   -0.0000    0.0000   -0.0000    0.0000   -0.0000    0.0000   -0.0000
   14 H3     2py        0.0000    0.4722   -0.1169   -0.0000   -0.0000    0.0000   -0.0000    0.0000   -0.0000    0.0000
   15 H3     2pz       -0.1206    0.0000   -0.0000    0.6563    0.1709   -0.5225   -0.0128    0.7011   -1.1140    0.8676
   16 H4     1s         3.0181    0.0000    0.0000   -0.7982   -3.9337    0.4687    0.3247   -0.7182    0.3130    0.1179
   17 H4     2s         2.9440    0.0000    0.0000   -0.3234   -3.8745    0.0642    0.1197   -0.1385    0.0424   -0.0073
   18 H4     2px       -0.0000   -0.1421   -0.5739    0.0000   -0.0000   -0.0000   -0.0000    0.0000   -0.0000    0.0000
   19 H4     2py       -0.0000   -0.5739    0.1421    0.0000   -0.0000   -0.0000    0.0000   -0.0000   -0.0000    0.0000
   20 H4     2pz       -0.2078   -0.0000    0.0000   -0.2378   -0.0576   -0.5186    0.7988   -0.1397   -0.9120    1.1003
   21 H5     1s        -1.2013   -0.0000   -0.0000    0.5838    4.3362    0.8456   -0.6761   -0.2672    0.4763    0.0456
   22 H5     2s        -1.1667   -0.0000   -0.0000    0.2842    4.3174    0.4273   -0.1759   -0.0072    0.0281    0.0080
   23 H5     2px        0.0000    0.1552    0.6268   -0.0000    0.0000    0.0000   -0.0000   -0.0000    0.0000    0.0000
   24 H5     2py        0.0000    0.6268   -0.1552   -0.0000    0.0000    0.0000   -0.0000    0.0000    0.0000   -0.0000
   25 H5     2pz        0.4473   -0.0000   -0.0000   -0.4896    0.0051    0.5190    0.5068   -0.8728   -0.3464    1.2189
   26 H6     1s        -1.2013    0.0000    0.0000    0.5838   -4.3362   -0.8456   -0.6761    0.2672    0.4763   -0.0456
   27 H6     2s        -1.1667    0.0000    0.0000    0.2842   -4.3174   -0.4273   -0.1759    0.0072    0.0281   -0.0080
   28 H6     2px        0.0000   -0.1552   -0.6268    0.0000   -0.0000   -0.0000    0.0000   -0.0000   -0.0000    0.0000
   29 H6     2py        0.0000   -0.6268    0.1552    0.0000   -0.0000   -0.0000   -0.0000   -0.0000   -0.0000    0.0000
   30 H6     2pz       -0.4473    0.0000    0.0000    0.4896    0.0051    0.5190   -0.5068   -0.8728    0.3464    1.2189
[...]
   35 H7     2pz        0.2078    0.0000    0.0000    0.2378   -0.0576   -0.5186   -0.7988   -0.1397    0.9120    1.1003
   36 H8     1s        -3.3883    0.0000    0.0000   -0.4505   -3.0293    0.4476    0.7154    0.3967   -0.0482   -0.2212
   37 H8     2s        -3.3421    0.0000    0.0000   -0.4408   -2.9506    0.0266    0.0952   -0.0141   -0.0494   -0.0349
   38 H8     2px        0.0000   -0.1169   -0.4722    0.0000   -0.0000    0.0000   -0.0000   -0.0000   -0.0000    0.0000
   39 H8     2py        0.0000   -0.4722    0.1169    0.0000   -0.0000    0.0000    0.0000    0.0000   -0.0000    0.0000
   40 H8     2pz        0.1206   -0.0000   -0.0000   -0.6563    0.1709   -0.5225    0.0128    0.7011    1.1140    0.8676
   41 H9     1s         2.3358   -0.0000   -0.0000    1.5220    1.7256    0.8933    0.3456   -0.0295   -0.2312   -0.2068
   42 H9     2s         2.3005   -0.0000   -0.0000    1.0154    1.6642    0.4699    0.1682    0.0752    0.0515    0.0329
   43 H9     2px       -0.0000    0.0819    0.3306   -0.0000    0.0000   -0.0000    0.0000    0.0000    0.0000   -0.0000
   44 H9     2py       -0.0000    0.3306   -0.0819   -0.0000    0.0000   -0.0000    0.0000   -0.0000    0.0000   -0.0000
   45 H9     2pz       -0.3289    0.0000    0.0000    0.1706   -0.2420    0.5344    0.8248    0.9698    0.9006    0.5583
   46 H10    1s        -0.7922    0.0000    0.0000   -0.7876   -0.5335   -0.7107   -0.6456   -0.5790   -0.4661   -0.2700
   47 H10    2s        -0.7712    0.0000    0.0000   -0.6202   -0.4966   -0.4183   -0.2702   -0.1756   -0.1114   -0.0569
   48 H10    2px        0.0000   -0.0397   -0.1605    0.0000   -0.0000    0.0000   -0.0000   -0.0000   -0.0000    0.0000
   49 H10    2py        0.0000   -0.1605    0.0397    0.0000   -0.0000   -0.0000   -0.0000   -0.0000   -0.0000   -0.0000
   50 H10    2pz        0.3212   -0.0000   -0.0000    0.6628    0.1820    0.6154    0.5525    0.4757    0.3659    0.2051
--
 
      Von Neumann Entropy (Root  1) =  1.67005
 

      Mulliken population analysis for root number:  1
      -----------------------------------------------
 
 
++    Molecular charges:
      ------------------
 
      Mulliken charges per centre and basis function type
      ---------------------------------------------------
 
                H1      H2      H3      H4      H5      H6      H7      H8      H9      H10   
      1s       0.9696  1.0165  1.0132  1.0042  1.0081  1.0081  1.0042  1.0132  1.0165  0.9696
      2s      -0.0016 -0.0161 -0.0415 -0.0307 -0.0330 -0.0330 -0.0307 -0.0415 -0.0161 -0.0016
      2px      0.0000  0.0000  0.0000  0.0000  0.0000  0.0000  0.0000  0.0000  0.0000  0.0000
      2pz      0.0105  0.0261  0.0248  0.0250  0.0250  0.0250  0.0250  0.0248  0.0261  0.0105
      2py      0.0000  0.0000  0.0000  0.0000  0.0000  0.0000  0.0000  0.0000  0.0000  0.0000
      Total    0.9785  1.0265  0.9965  0.9984  1.0001  1.0001  0.9984  0.9965  1.0265  0.9785
 
      N-E      0.0215 -0.0265  0.0035  0.0016 -0.0001 -0.0001  0.0016  0.0035 -0.0265  0.0215
 
      Total electronic charge=   10.000000
 
      Total            charge=   -0.000000
--
 
 

      Expectation values of various properties for root number:  1
      -----------------------------------------------------------
 
 
++    Molecular properties:
      ---------------------
 
      Charge (e):
                      =   -0.0000
      Dipole Moment (Debye):
      Origin of the operator (Ang)=    0.0000    0.0000    0.0000
                   X= -1.1112E-13               Y=  1.0952E-12               Z= -4.4429E-07           Total=  4.4429E-07
      Quadrupole Moment (Debye*Ang):
      Origin of the operator (Ang)=    0.0000    0.0000    5.8636
                  XX= -1.2990E+01              XY=  2.6576E-26              XZ=  2.0821E-12              YY= -1.2990E+01
                  YZ=  6.2151E-12              ZZ= -9.2938E+00
      In traceless form (Debye*Ang)
                  XX= -1.8481E+00              XY=  3.9864E-26              XZ=  3.1232E-12              YY= -1.8481E+00
                  YZ=  9.3226E-12              ZZ=  3.6963E+00
--
 

      LoProp population analysis for root number:  1
      -----------------------------------------------
 
 
++    LoProp analysis:
      ----------------
 
 
 
  Input file to MOLDEN was generated!
 
 
++    Static properties:
      ------------------
 
 
      LoProp Charges per center
 

                   H1       H2       H3       H4       H5       H6       H7       H8       H9       H10   
      Nuclear      1.0000   1.0000   1.0000   1.0000   1.0000   1.0000   1.0000   1.0000   1.0000   1.0000
      Electronic  -1.0033  -0.9981  -0.9990  -0.9997  -0.9998  -0.9998  -0.9997  -0.9990  -0.9981  -1.0033
 
      Total       -0.0033   0.0019   0.0010   0.0003   0.0002   0.0002   0.0003   0.0010   0.0019  -0.0033
--
 
 
      Natural Bond Order analysis for root number:  1
 
++    Natural Bond Order analysis
      ---------------------------
      Based on LoProp computed density
      -------------------------------------------------------------------------------------
      Atom A       Atom B       Bond Order
      -------------------------------------------------------------------------------------
      NBO located      0.982 non-bonded electrons on atom H1        
      NBO located      1.019 non-bonded electrons on atom H3        
      NBO located      1.010 non-bonded electrons on atom H4        
      NBO located      1.014 non-bonded electrons on atom H5        
      NBO located      1.014 non-bonded electrons on atom H6        
      NBO located      1.010 non-bonded electrons on atom H7        
      NBO located      1.019 non-bonded electrons on atom H8        
      NBO located      0.982 non-bonded electrons on atom H10       
      The remaining    1.952 electrons are to be considered as diffuse
--
 
--
 
 
  Input file to MOLDEN was generated!
 
      Average orbitals are written to the RASORB file
      Natural orbitals for root   1 are written to the RASORB.1 file
      Spin density orbitals for root   1 are written to the SPDORB.1 file
 
--- Stop Module: rasscf at Tue Nov 12 17:32:42 2024 /rc=_RC_ALL_IS_WELL_ ---
*** files: H10_1.30.LprOrb H10_1.30.rasscf.molden H10_1.30.LoProp.molden H10_1.30.RasOrb H10_1.30.RasOrb.1 H10_1.30.rasscf.h5 H10_1.30.SpdOrb.1 xmldump
    saved to directory /home/grierjones/DDCASPT2/hydrogen_comps/H10_chain/H10_1.30
--- Module rasscf spent 2 seconds ---

>>> COPY /tmp/H10_1.30/H10_1.30.rasscf.h5 /home/grierjones/DDCASPT2/hydrogen_comps/H10_chain/H10_1.30/

>>> COPY /tmp/H10_1.30/GMJ_Fock_MO.csv /home/grierjones/DDCASPT2/hydrogen_comps/H10_chain/H10_1.30/H10_1.30.GMJ_Fock_MO.csv

>>> COPY /tmp/H10_1.30/GMJ_PT2_Fock_MO.csv /home/grierjones/DDCASPT2/hydrogen_comps/H10_chain/H10_1.30/H10_1.30.GMJ_PT2_Fock_MO.csv

*** symbolic link created: INPORB -> H10_1.30.RasOrb
--- Start Module: motra at Tue Nov 12 17:32:42 2024 ---
 
()()()()()()()()()()()()()()()()()()()()()()()()()()()()()()()()()()()()()()()()()()()()()()()()()()

                                               &MOTRA

                                   only a single process is used
                       available to each process: 2.0 GB of memory, 1 thread?
()()()()()()()()()()()()()()()()()()()()()()()()()()()()()()()()()()()()()()()()()()()()()()()()()()
 
 
      *** WARNING: Default frozen orbitals is overwritten by user input.
      *** Default values:   0
 
      Header of the integral files:
      
       Integrals generated by seward 4.2.0  , Tue Nov 12 17:32:39 2024
 
 
      Header of MO coefficients source file:
      * RASSCF average (pseudo-natural) orbitals                                      
 
 
      Cartesian coordinates in Angstrom:
      -----------------------------------------------------
      No.  Label        X            Y            Z        
      -----------------------------------------------------
       1   H1         0.00000000   0.00000000   0.00000000
       2   H2         0.00000000   0.00000000   1.30303000
       3   H3         0.00000000   0.00000000   2.60606100
       4   H4         0.00000000   0.00000000   3.90909100
       5   H5         0.00000000   0.00000000   5.21212100
       6   H6         0.00000000   0.00000000   6.51515200
       7   H7         0.00000000   0.00000000   7.81818200
       8   H8         0.00000000   0.00000000   9.12121200
       9   H9         0.00000000   0.00000000  10.42424200
      10   H10        0.00000000   0.00000000  11.72727300
      -----------------------------------------------------
      Nuclear repulsion energy =    7.83378581
 
      Orbital specifications:
      -----------------------
 
      Symmetry species:              1
      Number of basis functions:    50
      Frozen orbitals:               0
      Deleted orbitals:              0
      Number of orbitals used:      50

       SYMMETRY  BASIS FUNCTIONS       ORBITALS      INTEGRALS   CPU(SEC)  I/O(SEC)
 
        1 1 1 1   50  50  50  50    50  50  50  50      813450       0.00      0.00

       TOTAL CPU TIME(SEC)    0.38TOTAL I/O TIME(SEC)    1.07
 
--- Stop Module: motra at Tue Nov 12 17:32:43 2024 /rc=_RC_ALL_IS_WELL_ ---
*** files: xmldump
    saved to directory /home/grierjones/DDCASPT2/hydrogen_comps/H10_chain/H10_1.30
--- Module motra spent 1 second ---

>>> COPY /tmp/H10_1.30/GMJ_one_int_indx.csv /home/grierjones/DDCASPT2/hydrogen_comps/H10_chain/H10_1.30/H10_1.30.GMJ_one_int_indx.csv

>>> COPY /tmp/H10_1.30/GMJ_one_int.csv /home/grierjones/DDCASPT2/hydrogen_comps/H10_chain/H10_1.30/H10_1.30.GMJ_one_int.csv

>>> COPY /tmp/H10_1.30/GMJ_two_int_indx.csv /home/grierjones/DDCASPT2/hydrogen_comps/H10_chain/H10_1.30/H10_1.30.GMJ_two_int_indx.csv

>>> COPY /tmp/H10_1.30/GMJ_two_int.csv /home/grierjones/DDCASPT2/hydrogen_comps/H10_chain/H10_1.30/H10_1.30.GMJ_two_int.csv

*** symbolic link created: INPORB -> H10_1.30.RasOrb
--- Start Module: caspt2 at Tue Nov 12 17:32:43 2024 ---
 
()()()()()()()()()()()()()()()()()()()()()()()()()()()()()()()()()()()()()()()()()()()()()()()()()()

                                              &CASPT2

                                   only a single process is used
                       available to each process: 2.0 GB of memory, 1 thread?
()()()()()()()()()()()()()()()()()()()()()()()()()()()()()()()()()()()()()()()()()()()()()()()()()()
 
 Cholesky algorithm in CASPT2 =    1
 
 ###############################################################################
 ###############################################################################
 ###                                                                         ###
 ###                                                                         ###
 ###    User changed nr of frozen orbitals.                                  ###
 ###                                                                         ###
 ###                                                                         ###
 ###############################################################################
 ###############################################################################
 
++    Wave function specifications:
      -----------------------------
 
      Number of closed shell electrons           0
      Number of electrons in active shells      10
      Max number of holes in RAS1 space          0
      Max number of electrons in RAS3 space      0
      Number of inactive orbitals                0
      Number of active orbitals                 10
      Number of secondary orbitals              40
      Spin quantum number                      0.0
      State symmetry                             1
      Number of CSFs                         19404
      Number of root(s) available                1
      Root passed to geometry opt.               1
      A file JOBMIX will be created.
      This is a CASSCF or RASSCF reference function
--
 
++    Orbital specifications:
      -----------------------
 
      Symmetry species                           1
                                                 a
      Frozen orbitals                            0
      Inactive orbitals                          0
      Active orbitals                           10
      Secondary orbitals                        40
      Deleted orbitals                           0
      Number of basis functions                 50
--
 
      Type of Fock operator: STANDARD
      Type of 0-order Hamiltonian: STANDARD WITH DEFAULT IPEA
        "IP-EA" denominator shift =      0.25
      The input orbitals and the CI vector will be transformed.
 
--------------------------------------------------------------------------------
 Estimated memory requirements:
  POLY3 :                  3551880
  RHS:                      835500
  SIGMA :                   430400
  PRPCTL:                        0
 Available workspace:    230354915
 
++ CASPT2 computation for group   1
 
********************************************************************************
 Multi-State initialization phase begins for group   1
--------------------------------------------------------------------------------
********************************************************************************
 Compute H0 matrices for state    1
--------------------------------------------------------------------------------
--------------------------------------------------------------------------------
 H0 matrices have been computed.
 
********************************************************************************
  CASPT2 EQUATION SOLUTION
--------------------------------------------------------------------------------
 
  Total nr of CASPT2 parameters:
   Before reduction:      120200
   After  reduction:      119800
 
 The contributions to the second order correlation energy in atomic units.
-----------------------------------------------------------------------------------------------------------------------------
  IT.      VJTU        VJTI        ATVX        AIVX        VJAI        BVAT        BJAT        BJAI        TOTAL       RNORM  
-----------------------------------------------------------------------------------------------------------------------------
   1     0.000000    0.000000   -0.018394    0.000000    0.000000   -0.041055    0.000000    0.000000   -0.059449    0.002510
   2     0.000000    0.000000   -0.018584    0.000000    0.000000   -0.041096    0.000000    0.000000   -0.059681    0.000205
   3     0.000000    0.000000   -0.018586    0.000000    0.000000   -0.041097    0.000000    0.000000   -0.059683    0.000028
   4     0.000000    0.000000   -0.018585    0.000000    0.000000   -0.041097    0.000000    0.000000   -0.059682    0.000003
-------------------------------------------------------------------------------------------------------------------
 
  FINAL CASPT2 RESULT:
 
  Correlation energy /Case, /Symm, and sums:
 VJTU      0.00000000  0.00000000
 VJTIP     0.00000000  0.00000000
 VJTIM     0.00000000  0.00000000
 ATVX     -0.01858509 -0.01858509
 AIVX      0.00000000  0.00000000
 VJAIP     0.00000000  0.00000000
 VJAIM     0.00000000  0.00000000
 BVATP    -0.03882065 -0.03882065
 BVATM    -0.00227599 -0.00227599
 BJATP     0.00000000  0.00000000
 BJATM     0.00000000  0.00000000
 BJAIP     0.00000000  0.00000000
 BJAIM     0.00000000  0.00000000
 Summed:  -0.05968174 -0.05968174
 
      Reference energy:          -5.3869955377
      E2 (Non-variational):      -0.0596817355
      E2 (Variational):          -0.0596817434
      Total energy:              -5.4466772812
      Residual norm:              0.0000003010
      Reference weight:           0.97393
 
      Contributions to the CASPT2 correlation energy
      Active & Virtual Only:         -0.0596817355
      One Inactive Excited:           0.0000000000
      Two Inactive Excited:           0.0000000000
 
 
++ Denominators, etc.
----------------------------------------------------------------------------------------------------
 Report on small energy denominators, large coefficients, and large energy contributions.
CASE  SYMM ACTIVE-MIX  NON-ACTIVE INDICES          DENOMINATOR     RHS VALUE       COEFFICIENT     CONTRIBUTION
ATVX     1  Mu1.0001  Se1.011                       0.26859195      0.00021751     -0.00064569     -0.00000014
--
 
   (Skipping property calculation,
    use PROP keyword to activate)
--
 
  Total CASPT2 energies:
::    CASPT2 Root  1     Total energy:     -5.44667728
 
  A NEW JOBIPH FILE NAMED 'JOBMIX' IS PREPARED.
********************************************************************************
--- Stop Module: caspt2 at Tue Nov 12 17:32:45 2024 /rc=_RC_ALL_IS_WELL_ ---
*** files: xmldump
    saved to directory /home/grierjones/DDCASPT2/hydrogen_comps/H10_chain/H10_1.30
--- Module caspt2 spent 2 seconds ---

>>> EXPORT i = B

>>> EXPORT j = P

>>> IF (-FILE GMJ_e2_${i}_${j}.csv)
(Skipped)

>>> END FOREACH

>>> EXPORT j = M

>>> IF (-FILE GMJ_e2_${i}_${j}.csv)
(Skipped)

>>> END FOREACH

>>> END FOREACH

>>> EXPORT i = E

>>> EXPORT j = P

>>> IF (-FILE GMJ_e2_${i}_${j}.csv)
(Skipped)

>>> END FOREACH

>>> EXPORT j = M

>>> IF (-FILE GMJ_e2_${i}_${j}.csv)
(Skipped)

>>> END FOREACH

>>> END FOREACH

>>> EXPORT i = F

>>> EXPORT j = P

>>> IF (-FILE GMJ_e2_${i}_${j}.csv)

>>> COPY /tmp/H10_1.30/GMJ_RHS_F_P.csv /home/grierjones/DDCASPT2/hydrogen_comps/H10_chain/H10_1.30/GMJ_RHS_F_P.csv

>>> COPY /tmp/H10_1.30/GMJ_IVECW_F_P.csv /home/grierjones/DDCASPT2/hydrogen_comps/H10_chain/H10_1.30/GMJ_IVECW_F_P.csv

>>> COPY /tmp/H10_1.30/GMJ_IVECX_F_P.csv /home/grierjones/DDCASPT2/hydrogen_comps/H10_chain/H10_1.30/GMJ_IVECX_F_P.csv

>>> COPY /tmp/H10_1.30/GMJ_IVECC2_F_P.csv /home/grierjones/DDCASPT2/hydrogen_comps/H10_chain/H10_1.30/GMJ_IVECC2_F_P.csv

>>> COPY /tmp/H10_1.30/GMJ_e2_F_P.csv /home/grierjones/DDCASPT2/hydrogen_comps/H10_chain/H10_1.30/GMJ_e2_F_P.csv

>>> END FOREACH

>>> EXPORT j = M

>>> IF (-FILE GMJ_e2_${i}_${j}.csv)

>>> COPY /tmp/H10_1.30/GMJ_RHS_F_M.csv /home/grierjones/DDCASPT2/hydrogen_comps/H10_chain/H10_1.30/GMJ_RHS_F_M.csv

>>> COPY /tmp/H10_1.30/GMJ_IVECW_F_M.csv /home/grierjones/DDCASPT2/hydrogen_comps/H10_chain/H10_1.30/GMJ_IVECW_F_M.csv

>>> COPY /tmp/H10_1.30/GMJ_IVECX_F_M.csv /home/grierjones/DDCASPT2/hydrogen_comps/H10_chain/H10_1.30/GMJ_IVECX_F_M.csv

>>> COPY /tmp/H10_1.30/GMJ_IVECC2_F_M.csv /home/grierjones/DDCASPT2/hydrogen_comps/H10_chain/H10_1.30/GMJ_IVECC2_F_M.csv

>>> COPY /tmp/H10_1.30/GMJ_e2_F_M.csv /home/grierjones/DDCASPT2/hydrogen_comps/H10_chain/H10_1.30/GMJ_e2_F_M.csv

>>> END FOREACH

>>> END FOREACH

>>> EXPORT i = G

>>> EXPORT j = P

>>> IF (-FILE GMJ_e2_${i}_${j}.csv)
(Skipped)

>>> END FOREACH

>>> EXPORT j = M

>>> IF (-FILE GMJ_e2_${i}_${j}.csv)
(Skipped)

>>> END FOREACH

>>> END FOREACH

>>> EXPORT i = H

>>> EXPORT j = P

>>> IF (-FILE GMJ_e2_${i}_${j}.csv)
(Skipped)

>>> END FOREACH

>>> EXPORT j = M

>>> IF (-FILE GMJ_e2_${i}_${j}.csv)
(Skipped)

>>> END FOREACH

>>> END FOREACH

>>> EXPORT i = A

>>> IF (-FILE GMJ_e2_$i.csv)
(Skipped)

>>> END FOREACH

>>> EXPORT i = C

>>> IF (-FILE GMJ_e2_$i.csv)

>>> COPY /tmp/H10_1.30/GMJ_RHS_C.csv /home/grierjones/DDCASPT2/hydrogen_comps/H10_chain/H10_1.30/GMJ_RHS_C.csv

>>> COPY /tmp/H10_1.30/GMJ_IVECW_C.csv /home/grierjones/DDCASPT2/hydrogen_comps/H10_chain/H10_1.30/GMJ_IVECW_C.csv

>>> COPY /tmp/H10_1.30/GMJ_IVECX_C.csv /home/grierjones/DDCASPT2/hydrogen_comps/H10_chain/H10_1.30/GMJ_IVECX_C.csv

>>> COPY /tmp/H10_1.30/GMJ_IVECC2_C.csv /home/grierjones/DDCASPT2/hydrogen_comps/H10_chain/H10_1.30/GMJ_IVECC2_C.csv

>>> COPY /tmp/H10_1.30/GMJ_e2_C.csv /home/grierjones/DDCASPT2/hydrogen_comps/H10_chain/H10_1.30/GMJ_e2_C.csv

>>> END FOREACH

>>> EXPORT i = D

>>> IF (-FILE GMJ_e2_$i.csv)
(Skipped)

>>> END FOREACH

.########################.
.# Non-zero return code #.
.########################.

    Timing: Wall=6.92 User=5.73 System=1.18
****************************************
*** WorkDir at /tmp/H10_1.30 cleaned ***
****************************************
