[Molden Format]
[N_Atoms]
                     2
[Atoms] (AU)
F1          1      9           0.00000000      0.00000000      0.00000000
O2          2      8           0.00000000      0.00000000      1.70075351
[Charge] (Mulliken)
  1.132733564582722E-002
 -1.132733564585386E-002
[GTO] (AU)
   1
   s  14
  1.031094600E+05  1.713099991E-04
  1.528100700E+04  7.123999962E-04
  3.441539200E+03  2.990479984E-03
  9.670948300E+02  1.164036994E-02
  3.140353400E+02  3.968642979E-02
  1.134423000E+02  1.128546094E-01
  4.464472700E+01  2.473650687E-01
  1.894287400E+01  3.672702681E-01
  8.532743000E+00  2.896286985E-01
  3.919401000E+00  7.786681959E-02
  1.568157000E+00  4.562139976E-03
  6.232900000E-01  2.468879987E-03
  2.408610000E-01  1.106309994E-03
  8.430100000E-02  1.739699991E-04
   s  14
  1.031094600E+05 -4.044999995E-05
  1.528100700E+04 -1.682299998E-04
  3.441539200E+03 -7.084299991E-04
  9.670948300E+02 -2.767999996E-03
  3.140353400E+02 -9.611379987E-03
  1.134423000E+02 -2.833957996E-02
  4.464472700E+01 -6.839343991E-02
  1.894287400E+01 -1.237379298E-01
  8.532743000E+00 -1.512859698E-01
  3.919401000E+00 -9.099909988E-03
  1.568157000E+00  3.716257695E-01
  6.232900000E-01  5.500214393E-01
  2.408610000E-01  2.092318697E-01
  8.430100000E-02  8.074639989E-03
   p   9
  2.453302900E+02  1.024860004E-03
  5.691900500E+01  8.344290032E-03
  1.760456800E+01  4.078927016E-02
  6.274995000E+00  1.351370605E-01
  2.447030000E+00  2.798830811E-01
  9.950600000E-01  3.597966414E-01
  4.039730000E-01  3.055347412E-01
  1.548100000E-01  1.354703905E-01
  5.418400000E-02  2.804449011E-02
 
   2
   s  14
  1.053749500E+05  1.238600013E-04
  1.567924000E+04  5.120100053E-04
  3.534544700E+03  2.152910022E-03
  9.873651600E+02  8.528440089E-03
  3.159787500E+02  3.018049031E-02
  1.116542800E+02  9.099702095E-02
  4.269945100E+01  2.177936423E-01
  1.739559600E+01  3.686245738E-01
  7.438309000E+00  3.366707335E-01
  3.222862000E+00  9.657630101E-02
  1.253877000E+00  2.144520022E-03
  4.951550000E-01  1.194350012E-03
  1.916650000E-01  5.390200056E-04
  6.708300000E-02  2.103400022E-04
   s  14
  1.053749500E+05 -2.815000008E-05
  1.567924000E+04 -1.163000003E-04
  3.534544700E+03 -4.909200013E-04
  9.873651600E+02 -1.946160005E-03
  3.159787500E+02 -7.005300019E-03
  1.116542800E+02 -2.167814006E-02
  4.269945100E+01 -5.641213015E-02
  1.739559600E+01 -1.127053003E-01
  7.438309000E+00 -1.589119704E-01
  3.222862000E+00 -3.355083009E-02
  1.253877000E+00  3.531902810E-01
  4.951550000E-01  5.534199315E-01
  1.916650000E-01  2.301839106E-01
  6.708300000E-02  1.127267003E-02
   p   9
  2.000000000E+02  9.173000030E-04
  4.653336700E+01  7.377140024E-03
  1.462180900E+01  3.483515011E-02
  5.313064000E+00  1.144397004E-01
  2.102525000E+00  2.554966408E-01
  8.502230000E-01  3.722557412E-01
  3.375970000E-01  3.323314911E-01
  1.288920000E-01  1.400847905E-01
  4.511200000E-02  2.395784008E-02
 
[MO]
Sym=     1a  
Ene=   -26.7000
Spin= Alpha
Occup=    1.00000
   1         1.00026628
   2        -0.00042131
   3         0.00000000
   4         0.00000000
   5         0.00380891
   6        -0.00049417
   7        -0.00271642
   8        -0.00000000
   9         0.00000000
  10         0.00125034
Sym=     1a  
Ene=   -26.6800
Spin= Beta
Occup=    1.00000
   1         1.00020759
   2        -0.00139206
   3         0.00000000
   4        -0.00000000
   5         0.00362911
   6        -0.00035073
   7        -0.00223570
   8        -0.00000000
   9        -0.00000000
  10         0.00093439
Sym=     2a  
Ene=   -20.9070
Spin= Alpha
Occup=    1.00000
   1        -0.00113565
   2        -0.00355893
   3        -0.00000000
   4         0.00000000
   5        -0.00098004
   6         1.00028878
   7         0.00363759
   8         0.00000000
   9         0.00000000
  10        -0.00525781
Sym=     2a  
Ene=   -20.8730
Spin= Beta
Occup=    1.00000
   1        -0.00103946
   2        -0.00255942
   3        -0.00000000
   4         0.00000000
   5        -0.00045574
   6         1.00018188
   7         0.00143382
   8         0.00000000
   9         0.00000000
  10        -0.00478366
Sym=     3a  
Ene=    -2.3732
Spin= Alpha
Occup=    1.00000
   1        -0.03877471
   2         0.59773211
   3        -0.00000000
   4        -0.00000000
   5         0.29715405
   6        -0.06558808
   7         0.30722259
   8        -0.00000000
   9        -0.00000000
  10        -0.23660934
Sym=     3a  
Ene=    -2.3265
Spin= Beta
Occup=    1.00000
   1        -0.03781785
   2         0.60520324
   3        -0.00000000
   4        -0.00000000
   5         0.30935053
   6        -0.06655110
   7         0.28339240
   8        -0.00000000
   9        -0.00000000
  10        -0.24433278
Sym=     4a  
Ene=    -1.2878
Spin= Alpha
Occup=    1.00000
   1        -0.03579876
   2        -0.75932478
   3         0.00000000
   4        -0.00000000
   5         0.47417110
   6        -0.00712800
   7         0.59463375
   8         0.00000000
   9        -0.00000000
  10        -0.00196606
Sym=     4a  
Ene=    -1.2108
Spin= Beta
Occup=    1.00000
   1        -0.03439015
   2        -0.74012003
   3         0.00000000
   4        -0.00000000
   5         0.55778250
   6        -0.01592565
   7         0.49273490
   8         0.00000000
   9        -0.00000000
  10        -0.03968151
Sym=     5a  
Ene=    -1.1625
Spin= Alpha
Occup=    1.00000
   1         0.00000000
   2         0.00000000
   3         0.74506767
   4         0.00978968
   5        -0.00000000
   6        -0.00000000
   7        -0.00000000
   8         0.45308806
   9         0.00595327
  10        -0.00000000
Sym=     5a  
Ene=    -1.1025
Spin= Beta
Occup=    1.00000
   1        -0.00000000
   2        -0.00000000
   3        -0.01011311
   4         0.76968290
   5         0.00000000
   6        -0.00000000
   7         0.00000000
   8        -0.00553513
   9         0.42126496
  10        -0.00000000
Sym=     6a  
Ene=    -1.1203
Spin= Alpha
Occup=    1.00000
   1        -0.00000000
   2        -0.00000000
   3        -0.01000140
   4         0.76118151
   5         0.00000000
   6        -0.00000000
   7         0.00000000
   8        -0.00568179
   9         0.43242686
  10         0.00000000
Sym=     6a  
Ene=    -0.9879
Spin= Beta
Occup=    1.00000
   1         0.00000000
   2         0.00000000
   3         0.80095357
   4         0.01052398
   5        -0.00000000
   6        -0.00000000
   7        -0.00000000
   8         0.37852767
   9         0.00497359
  10        -0.00000000
Sym=     7a  
Ene=    -0.9220
Spin= Alpha
Occup=    1.00000
   1         0.01933952
   2         0.14144664
   3         0.00000000
   4        -0.00000000
   5        -0.58937887
   6         0.05373538
   7         0.71744791
   8         0.00000000
   9        -0.00000000
  10         0.60092057
Sym=     7a  
Ene=    -0.8629
Spin= Beta
Occup=    1.00000
   1         0.01711603
   2         0.09033516
   3         0.00000000
   4         0.00000000
   5        -0.51591192
   6         0.04994714
   7         0.76641499
   8         0.00000000
   9         0.00000000
  10         0.60877743
Sym=     8a  
Ene=    -0.5685
Spin= Alpha
Occup=    1.00000
   1         0.00000000
   2        -0.00000000
   3        -0.76713945
   4        -0.01007969
   5         0.00000000
   6        -0.00000000
   7        -0.00000000
   8         0.96867950
   9         0.01272779
  10         0.00000000
Sym=     8a  
Ene=    -0.4769
Spin= Beta
Occup=    1.00000
   1        -0.00000000
   2        -0.00000000
   3         0.00975515
   4        -0.74243990
   5        -0.00000000
   6         0.00000000
   7         0.00000000
   8        -0.01291512
   9         0.98293672
  10        -0.00000000
Sym=     9a  
Ene=    -0.5091
Spin= Alpha
Occup=    1.00000
   1        -0.00000000
   2        -0.00000000
   3         0.00986964
   4        -0.75115343
   5        -0.00000000
   6         0.00000000
   7         0.00000000
   8        -0.01285127
   9         0.97807759
  10        -0.00000000
Sym=     9a  
Ene=     0.1723
Spin= Beta
Occup=    0.00000
   1         0.00000000
   2        -0.00000000
   3        -0.70859167
   4        -0.00931041
   5         0.00000000
   6        -0.00000000
   7        -0.00000000
   8         1.00017277
   9         0.01314159
  10         0.00000000
Sym=    10a  
Ene=     1.0788
Spin= Alpha
Occup=    0.00000
   1         0.17304989
   2         1.15907145
   3         0.00000000
   4        -0.00000000
   5         1.00859463
   6        -0.16397279
   7        -1.10053712
   8        -0.00000000
   9         0.00000000
  10         1.17601519
Sym=    10a  
Ene=     1.1333
Spin= Beta
Occup=    0.00000
   1         0.17411807
   2         1.17264951
   3         0.00000000
   4        -0.00000000
   5         1.00239076
   6        -0.16481432
   7        -1.12401564
   8        -0.00000000
   9         0.00000000
  10         1.16971255
