[Molden Format]
[N_Atoms]
                     2
[Atoms] (AU)
N1          1      7           0.00000000      0.00000000      0.00000000
N2          2      7           0.00000000      0.00000000      2.83458919
[Charge] (Mulliken)
 -2.001954158004082E-012
  1.990407838547981E-012
[GTO] (AU)
   1
   s  14
  7.476171500E+04  1.182599996E-04
  1.112365400E+04  5.172899983E-04
  2.512685700E+03  2.266659992E-03
  7.037772900E+02  9.145289970E-03
  2.254787900E+02  3.239342989E-02
  7.961581000E+01  9.770792967E-02
  3.023728300E+01  2.317036792E-01
  1.226362200E+01  3.768898887E-01
  5.265086000E+00  3.177420689E-01
  2.333471000E+00  8.211308973E-02
  9.018560000E-01  3.312089989E-03
  3.583360000E-01  3.720819988E-03
  1.410930000E-01  3.165419989E-03
  4.938300000E-02  4.595799985E-04
   s  14
  7.476171500E+04 -2.707000010E-05
  1.112365400E+04 -1.183700004E-04
  2.512685700E+03 -5.203800020E-04
  7.037772900E+02 -2.102930008E-03
  2.254787900E+02 -7.568200028E-03
  7.961581000E+01 -2.346767009E-02
  3.023728300E+01 -6.042901023E-02
  1.226362200E+01 -1.170549104E-01
  5.265086000E+00 -1.555321506E-01
  2.333471000E+00 -2.468935009E-02
  9.018560000E-01  3.625054514E-01
  3.583360000E-01  5.550845021E-01
  1.410930000E-01  2.148376908E-01
  4.938300000E-02  8.983850034E-03
   p   9
  1.266665700E+02  1.233630000E-03
  2.983738900E+01  9.493409996E-03
  9.394038000E+00  4.293961998E-02
  3.405104000E+00  1.362925399E-01
  1.350000000E+00  2.921362499E-01
  5.576960000E-01  3.887887598E-01
  2.324490000E-01  2.946801399E-01
  9.426400000E-02  8.012875997E-02
  3.299200000E-02  5.405199998E-04
 
   2
   s  14
  7.476171500E+04  1.182599996E-04
  1.112365400E+04  5.172899983E-04
  2.512685700E+03  2.266659992E-03
  7.037772900E+02  9.145289970E-03
  2.254787900E+02  3.239342989E-02
  7.961581000E+01  9.770792967E-02
  3.023728300E+01  2.317036792E-01
  1.226362200E+01  3.768898887E-01
  5.265086000E+00  3.177420689E-01
  2.333471000E+00  8.211308973E-02
  9.018560000E-01  3.312089989E-03
  3.583360000E-01  3.720819988E-03
  1.410930000E-01  3.165419989E-03
  4.938300000E-02  4.595799985E-04
   s  14
  7.476171500E+04 -2.707000010E-05
  1.112365400E+04 -1.183700004E-04
  2.512685700E+03 -5.203800020E-04
  7.037772900E+02 -2.102930008E-03
  2.254787900E+02 -7.568200028E-03
  7.961581000E+01 -2.346767009E-02
  3.023728300E+01 -6.042901023E-02
  1.226362200E+01 -1.170549104E-01
  5.265086000E+00 -1.555321506E-01
  2.333471000E+00 -2.468935009E-02
  9.018560000E-01  3.625054514E-01
  3.583360000E-01  5.550845021E-01
  1.410930000E-01  2.148376908E-01
  4.938300000E-02  8.983850034E-03
   p   9
  1.266665700E+02  1.233630000E-03
  2.983738900E+01  9.493409996E-03
  9.394038000E+00  4.293961998E-02
  3.405104000E+00  1.362925399E-01
  1.350000000E+00  2.921362499E-01
  5.576960000E-01  3.887887598E-01
  2.324490000E-01  2.946801399E-01
  9.426400000E-02  8.012875997E-02
  3.299200000E-02  5.405199998E-04
 
[MO]
Sym=     1a  
Ene=   -15.7120
Spin= Alpha
Occup=    1.00000
   1         0.70698247
   2        -0.00469722
   3        -0.00000000
   4         0.00000000
   5         0.00094220
   6         0.70698246
   7        -0.00469722
   8         0.00000000
   9         0.00000000
  10        -0.00094220
Sym=     1a  
Ene=   -15.7120
Spin= Beta
Occup=    1.00000
   1         0.70698247
   2        -0.00469722
   3        -0.00000000
   4         0.00000000
   5         0.00094220
   6         0.70698246
   7        -0.00469722
   8         0.00000000
   9         0.00000000
  10        -0.00094220
Sym=     2a  
Ene=   -15.7110
Spin= Alpha
Occup=    1.00000
   1        -0.70726582
   2         0.00320890
   3        -0.00000000
   4         0.00000000
   5        -0.00160555
   6         0.70726583
   7        -0.00320890
   8         0.00000000
   9        -0.00000000
  10        -0.00160555
Sym=     2a  
Ene=   -15.7110
Spin= Beta
Occup=    1.00000
   1        -0.70726582
   2         0.00320890
   3        -0.00000000
   4         0.00000000
   5        -0.00160555
   6         0.70726583
   7        -0.00320890
   8         0.00000000
   9        -0.00000000
  10        -0.00160555
Sym=     3a  
Ene=    -1.2171
Spin= Alpha
Occup=    1.00000
   1        -0.01502709
   2         0.57141363
   3         0.00000000
   4        -0.00000000
   5         0.15671451
   6        -0.01502709
   7         0.57141363
   8         0.00000000
   9         0.00000000
  10        -0.15671451
Sym=     3a  
Ene=    -1.2171
Spin= Beta
Occup=    1.00000
   1        -0.01502709
   2         0.57141363
   3         0.00000000
   4        -0.00000000
   5         0.15671451
   6        -0.01502709
   7         0.57141363
   8         0.00000000
   9         0.00000000
  10        -0.15671451
Sym=     4a  
Ene=    -0.8537
Spin= Alpha
Occup=    1.00000
   1        -0.01329906
   2        -0.74046870
   3         0.00000000
   4        -0.00000000
   5         0.16163734
   6         0.01329906
   7         0.74046870
   8         0.00000000
   9        -0.00000000
  10         0.16163734
Sym=     4a  
Ene=    -0.8537
Spin= Beta
Occup=    1.00000
   1        -0.01329906
   2        -0.74046870
   3         0.00000000
   4        -0.00000000
   5         0.16163734
   6         0.01329906
   7         0.74046870
   8         0.00000000
   9        -0.00000000
  10         0.16163734
Sym=     5a  
Ene=    -0.5288
Spin= Alpha
Occup=    1.00000
   1         0.02236032
   2         0.31085603
   3        -0.00000000
   4         0.00000000
   5        -0.63203253
   6         0.02236032
   7         0.31085603
   8        -0.00000000
   9         0.00000000
  10         0.63203253
Sym=     5a  
Ene=    -0.5288
Spin= Beta
Occup=    1.00000
   1         0.02236032
   2         0.31085603
   3        -0.00000000
   4         0.00000000
   5        -0.63203253
   6         0.02236032
   7         0.31085603
   8        -0.00000000
   9         0.00000000
  10         0.63203253
Sym=     6a  
Ene=    -0.4667
Spin= Alpha
Occup=    1.00000
   1        -0.00000000
   2        -0.00000000
   3         0.04549983
   4         0.65231401
   5         0.00000000
   6        -0.00000000
   7        -0.00000000
   8         0.04549983
   9         0.65231401
  10        -0.00000000
Sym=     6a  
Ene=    -0.4667
Spin= Beta
Occup=    1.00000
   1        -0.00000000
   2        -0.00000000
   3         0.04549983
   4         0.65231401
   5         0.00000000
   6        -0.00000000
   7        -0.00000000
   8         0.04549983
   9         0.65231401
  10        -0.00000000
Sym=     7a  
Ene=    -0.4667
Spin= Alpha
Occup=    1.00000
   1         0.00000000
   2         0.00000000
   3         0.65231401
   4        -0.04549983
   5        -0.00000000
   6         0.00000000
   7         0.00000000
   8         0.65231401
   9        -0.04549983
  10         0.00000000
Sym=     7a  
Ene=    -0.4667
Spin= Beta
Occup=    1.00000
   1         0.00000000
   2         0.00000000
   3         0.65231401
   4        -0.04549983
   5        -0.00000000
   6         0.00000000
   7         0.00000000
   8         0.65231401
   9        -0.04549983
  10         0.00000000
Sym=     8a  
Ene=     0.0455
Spin= Alpha
Occup=    0.00000
   1         0.00000000
   2         0.00000000
   3        -0.58147652
   4         0.51364537
   5         0.00000000
   6        -0.00000000
   7         0.00000000
   8         0.58147652
   9        -0.51364537
  10         0.00000000
Sym=     8a  
Ene=     0.0455
Spin= Beta
Occup=    0.00000
   1         0.00000000
   2         0.00000000
   3        -0.58147652
   4         0.51364537
   5         0.00000000
   6        -0.00000000
   7         0.00000000
   8         0.58147652
   9        -0.51364537
  10         0.00000000
Sym=     9a  
Ene=     0.0455
Spin= Alpha
Occup=    0.00000
   1         0.00000000
   2         0.00000000
   3        -0.51364537
   4        -0.58147652
   5        -0.00000000
   6         0.00000000
   7         0.00000000
   8         0.51364537
   9         0.58147652
  10         0.00000000
Sym=     9a  
Ene=     0.0455
Spin= Beta
Occup=    0.00000
   1         0.00000000
   2         0.00000000
   3        -0.51364537
   4        -0.58147652
   5        -0.00000000
   6         0.00000000
   7         0.00000000
   8         0.51364537
   9         0.58147652
  10         0.00000000
Sym=    10a  
Ene=     0.3717
Spin= Alpha
Occup=    0.00000
   1         0.05025033
   2         0.53664034
   3         0.00000000
   4        -0.00000000
   5         0.90016790
   6        -0.05025033
   7        -0.53664034
   8        -0.00000000
   9         0.00000000
  10         0.90016790
Sym=    10a  
Ene=     0.3717
Spin= Beta
Occup=    0.00000
   1         0.05025033
   2         0.53664034
   3         0.00000000
   4        -0.00000000
   5         0.90016790
   6        -0.05025033
   7        -0.53664034
   8        -0.00000000
   9         0.00000000
  10         0.90016790
