[Molden Format]
[N_Atoms]
                     2
[Atoms] (AU)
B1          1      5           0.00000000      0.00000000      0.00000000
C2          2      6           0.00000000      0.00000000      1.88972612
[Charge] (Mulliken)
  0.368769719013668     
 -0.368769719013695     
[GTO] (AU)
   1
   s  14
  3.336021700E+04  1.039699991E-04
  4.972095200E+03  5.254399956E-04
  1.125641700E+03  2.509059979E-03
  3.164913600E+02  1.031887991E-02
  1.020072600E+02  3.636632969E-02
  3.629587300E+01  1.064607991E-01
  1.397141000E+01  2.403999880E-01
  5.741156000E+00  3.748581168E-01
  2.494268000E+00  3.100066974E-01
  1.114202000E+00  7.922455933E-02
  4.215490000E-01 -4.947589958E-03
  1.696330000E-01 -7.737119935E-03
  6.853500000E-02 -1.501079987E-03
  2.398700000E-02 -1.333299989E-04
   s  14
  3.336021700E+04 -2.030000008E-05
  4.972095200E+03 -1.025700004E-04
  1.125641700E+03 -4.911300020E-04
  3.164913600E+02 -2.026570008E-03
  1.020072600E+02 -7.261010030E-03
  3.629587300E+01 -2.197722009E-02
  1.397141000E+01 -5.408428022E-02
  5.741156000E+00 -1.022402604E-01
  2.494268000E+00 -1.423595206E-01
  1.114202000E+00 -4.658690019E-02
  4.215490000E-01  3.799402916E-01
  1.696330000E-01  5.890463624E-01
  6.853500000E-02  1.749075107E-01
  2.398700000E-02 -1.142030005E-03
   p   9
  5.500000000E+01  1.229800005E-03
  1.336610100E+01  8.827380035E-03
  4.135394000E+00  3.843340015E-02
  1.481256000E+00  1.150031805E-01
  6.021360000E-01  2.733674011E-01
  2.556360000E-01  4.061972116E-01
  1.111510000E-01  3.014967912E-01
  4.764800000E-02  7.684809030E-02
  1.667700000E-02 -8.170000032E-06
 
   2
   s  14
  5.055750100E+04  1.128874000E-04
  7.524785600E+03  5.295373000E-04
  1.694327600E+03  2.450038300E-03
  4.728227900E+02  1.005398470E-02
  1.517107500E+02  3.545398060E-02
  5.391874600E+01  1.044071086E-01
  2.065931100E+01  2.412894918E-01
  8.383976000E+00  3.834225483E-01
  3.577015000E+00  3.078514393E-01
  1.547118000E+00  6.872442990E-02
  6.130130000E-01  2.224445000E-04
  2.460680000E-01  1.976748900E-03
  9.908700000E-02  2.057859400E-03
  3.468000000E-02  4.182020000E-04
   s  14
  5.055750100E+04 -2.507420000E-05
  7.524785600E+03 -1.175945000E-04
  1.694327600E+03 -5.456275000E-04
  4.728227900E+02 -2.245077100E-03
  1.517107500E+02 -8.043471800E-03
  5.391874600E+01 -2.442588710E-02
  2.065931100E+01 -6.136791180E-02
  8.383976000E+00 -1.177767835E-01
  3.577015000E+00 -1.550487783E-01
  1.547118000E+00 -1.933316860E-02
  6.130130000E-01  3.996930678E-01
  2.460680000E-01  5.589420949E-01
  9.908700000E-02  1.711195023E-01
  3.468000000E-02  7.456244600E-03
   p   9
  8.333315500E+01  1.344656000E-03
  1.955761100E+01  1.023555500E-02
  6.080365000E+00  4.520067100E-02
  2.179317000E+00  1.410756198E-01
  8.651500000E-01  3.047388085E-01
  3.619440000E-01  3.995281011E-01
  1.547400000E-01  2.719163432E-01
  6.542900000E-02  5.857669330E-02
  2.290000000E-02 -1.263813000E-04
 
[MO]
Sym=     1a  
Ene=   -11.3820
Spin= Alpha
Occup=    1.00000
   1        -0.00031445
   2        -0.00711387
   3        -0.00000000
   4        -0.00000000
   5        -0.00270349
   6         1.00126473
   7         0.00687519
   8        -0.00000000
   9         0.00000000
  10        -0.00597832
Sym=     1a  
Ene=   -11.3430
Spin= Beta
Occup=    1.00000
   1         0.00002976
   2        -0.00589447
   3        -0.00000000
   4        -0.00000000
   5        -0.00197505
   6         1.00099777
   7         0.00337808
   8        -0.00000000
   9         0.00000000
  10        -0.00606100
Sym=     2a  
Ene=    -7.8478
Spin= Alpha
Occup=    1.00000
   1         0.99766628
   2         0.01015609
   3        -0.00000000
   4        -0.00000000
   5        -0.00046422
   6        -0.00573886
   7         0.00642484
   8        -0.00000000
   9        -0.00000000
  10        -0.00652456
Sym=     2a  
Ene=    -7.8441
Spin= Beta
Occup=    1.00000
   1         0.99791891
   2         0.01206062
   3        -0.00000000
   4        -0.00000000
   5        -0.00001079
   6        -0.00592572
   7         0.00544332
   8         0.00000000
   9        -0.00000000
  10        -0.00584694
Sym=     3a  
Ene=    -1.0021
Spin= Alpha
Occup=    1.00000
   1        -0.15937892
   2         0.21826333
   3         0.00000000
   4         0.00000000
   5         0.21335538
   6        -0.06245250
   7         0.67317337
   8        -0.00000000
   9        -0.00000000
  10        -0.27841012
Sym=     3a  
Ene=    -0.9420
Spin= Beta
Occup=    1.00000
   1        -0.16550395
   2         0.28331725
   3        -0.00000000
   4         0.00000000
   5         0.23741808
   6        -0.07257585
   7         0.55783604
   8         0.00000000
   9        -0.00000000
  10        -0.37231828
Sym=     4a  
Ene=    -0.5579
Spin= Alpha
Occup=    1.00000
   1         0.12257067
   2        -0.13209226
   3         0.00000000
   4        -0.00000000
   5        -0.11898388
   6         0.03721093
   7         0.51555611
   8         0.00000000
   9         0.00000000
  10         0.87899340
Sym=     4a  
Ene=    -0.4597
Spin= Beta
Occup=    1.00000
   1         0.00000000
   2        -0.00000000
   3         0.63314204
   4         0.03544024
   5        -0.00000000
   6         0.00000000
   7         0.00000000
   8         0.50340686
   9         0.02817829
  10         0.00000000
Sym=     5a  
Ene=    -0.4950
Spin= Alpha
Occup=    1.00000
   1         0.00000000
   2        -0.00000000
   3        -0.34667875
   4        -0.35852171
   5         0.00000000
   6         0.00000000
   7         0.00000000
   8        -0.44434896
   9        -0.45952844
  10         0.00000000
Sym=     5a  
Ene=    -0.4597
Spin= Beta
Occup=    1.00000
   1        -0.00000000
   2        -0.00000000
   3         0.03544024
   4        -0.63314204
   5        -0.00000000
   6         0.00000000
   7         0.00000000
   8         0.02817829
   9        -0.50340686
  10         0.00000000
Sym=     6a  
Ene=    -0.4950
Spin= Alpha
Occup=    1.00000
   1        -0.00000000
   2         0.00000000
   3         0.35852171
   4        -0.34667875
   5        -0.00000000
   6         0.00000000
   7        -0.00000000
   8         0.45952844
   9        -0.44434896
  10        -0.00000000
Sym=     6a  
Ene=    -0.0915
Spin= Beta
Occup=    0.00000
   1        -0.03755199
   2        -0.75342986
   3        -0.00000000
   4         0.00000000
   5         0.69039424
   6        -0.03455037
   7         0.21927064
   8        -0.00000000
   9        -0.00000000
  10        -0.08384913
Sym=     7a  
Ene=    -0.0738
Spin= Alpha
Occup=    0.00000
   1         0.06422945
   2         0.76166852
   3        -0.00000000
   4        -0.00000000
   5        -0.73309896
   6         0.04199030
   7        -0.05442352
   8        -0.00000000
   9         0.00000000
  10         0.30833776
Sym=     7a  
Ene=     0.1541
Spin= Beta
Occup=    0.00000
   1         0.10610878
   2         0.07164961
   3        -0.00000000
   4        -0.00000000
   5        -0.30185356
   6         0.04760863
   7         0.59746003
   8        -0.00000000
   9         0.00000000
  10         0.87076321
Sym=     8a  
Ene=     0.3240
Spin= Alpha
Occup=    0.00000
   1         0.00000000
   2         0.00000000
   3        -1.07583243
   4        -0.00050031
   5         0.00000000
   6        -0.00000000
   7        -0.00000000
   8         0.99876275
   9         0.00046447
  10         0.00000000
Sym=     8a  
Ene=     0.3834
Spin= Beta
Occup=    0.00000
   1        -0.00000000
   2        -0.00000000
   3         0.00088553
   4        -1.00200499
   5         0.00000000
   6        -0.00000000
   7        -0.00000000
   8        -0.00094852
   9         1.07327827
  10        -0.00000000
Sym=     9a  
Ene=     0.3240
Spin= Alpha
Occup=    0.00000
   1         0.00000000
   2         0.00000000
   3        -0.00050031
   4         1.07583243
   5        -0.00000000
   6         0.00000000
   7         0.00000000
   8         0.00046447
   9        -0.99876275
  10         0.00000000
Sym=     9a  
Ene=     0.3834
Spin= Beta
Occup=    0.00000
   1         0.00000000
   2         0.00000000
   3        -1.00200499
   4        -0.00088553
   5         0.00000000
   6        -0.00000000
   7        -0.00000000
   8         1.07327827
   9         0.00094852
  10         0.00000000
Sym=    10a  
Ene=     1.2203
Spin= Alpha
Occup=    0.00000
   1         0.65680838
   2         2.64847169
   3         0.00000000
   4        -0.00000000
   5         1.91268867
   6        -0.62995022
   7        -2.90788182
   8        -0.00000000
   9        -0.00000000
  10         1.36273120
Sym=    10a  
Ene=     1.2394
Spin= Beta
Occup=    0.00000
   1         0.65983562
   2         2.64698756
   3         0.00000000
   4         0.00000000
   5         1.90561439
   6        -0.62903913
   7        -2.90887047
   8        -0.00000000
   9        -0.00000000
  10         1.37781614
