[Molden Format]
[N_Atoms]
                     2
[Atoms] (AU)
B1          1      5           0.00000000      0.00000000      0.00000000
C2          2      6           0.00000000      0.00000000      4.53534270
[Charge] (Mulliken)
  2.834822611407173E-002
 -2.834822611411791E-002
[GTO] (AU)
   1
   s  14
  3.336021700E+04  1.039699991E-04
  4.972095200E+03  5.254399956E-04
  1.125641700E+03  2.509059979E-03
  3.164913600E+02  1.031887991E-02
  1.020072600E+02  3.636632969E-02
  3.629587300E+01  1.064607991E-01
  1.397141000E+01  2.403999880E-01
  5.741156000E+00  3.748581168E-01
  2.494268000E+00  3.100066974E-01
  1.114202000E+00  7.922455933E-02
  4.215490000E-01 -4.947589958E-03
  1.696330000E-01 -7.737119935E-03
  6.853500000E-02 -1.501079987E-03
  2.398700000E-02 -1.333299989E-04
   s  14
  3.336021700E+04 -2.030000008E-05
  4.972095200E+03 -1.025700004E-04
  1.125641700E+03 -4.911300020E-04
  3.164913600E+02 -2.026570008E-03
  1.020072600E+02 -7.261010030E-03
  3.629587300E+01 -2.197722009E-02
  1.397141000E+01 -5.408428022E-02
  5.741156000E+00 -1.022402604E-01
  2.494268000E+00 -1.423595206E-01
  1.114202000E+00 -4.658690019E-02
  4.215490000E-01  3.799402916E-01
  1.696330000E-01  5.890463624E-01
  6.853500000E-02  1.749075107E-01
  2.398700000E-02 -1.142030005E-03
   p   9
  5.500000000E+01  1.229800005E-03
  1.336610100E+01  8.827380035E-03
  4.135394000E+00  3.843340015E-02
  1.481256000E+00  1.150031805E-01
  6.021360000E-01  2.733674011E-01
  2.556360000E-01  4.061972116E-01
  1.111510000E-01  3.014967912E-01
  4.764800000E-02  7.684809030E-02
  1.667700000E-02 -8.170000032E-06
 
   2
   s  14
  5.055750100E+04  1.128874000E-04
  7.524785600E+03  5.295373000E-04
  1.694327600E+03  2.450038300E-03
  4.728227900E+02  1.005398470E-02
  1.517107500E+02  3.545398060E-02
  5.391874600E+01  1.044071086E-01
  2.065931100E+01  2.412894918E-01
  8.383976000E+00  3.834225483E-01
  3.577015000E+00  3.078514393E-01
  1.547118000E+00  6.872442990E-02
  6.130130000E-01  2.224445000E-04
  2.460680000E-01  1.976748900E-03
  9.908700000E-02  2.057859400E-03
  3.468000000E-02  4.182020000E-04
   s  14
  5.055750100E+04 -2.507420000E-05
  7.524785600E+03 -1.175945000E-04
  1.694327600E+03 -5.456275000E-04
  4.728227900E+02 -2.245077100E-03
  1.517107500E+02 -8.043471800E-03
  5.391874600E+01 -2.442588710E-02
  2.065931100E+01 -6.136791180E-02
  8.383976000E+00 -1.177767835E-01
  3.577015000E+00 -1.550487783E-01
  1.547118000E+00 -1.933316860E-02
  6.130130000E-01  3.996930678E-01
  2.460680000E-01  5.589420949E-01
  9.908700000E-02  1.711195023E-01
  3.468000000E-02  7.456244600E-03
   p   9
  8.333315500E+01  1.344656000E-03
  1.955761100E+01  1.023555500E-02
  6.080365000E+00  4.520067100E-02
  2.179317000E+00  1.410756198E-01
  8.651500000E-01  3.047388085E-01
  3.619440000E-01  3.995281011E-01
  1.547400000E-01  2.719163432E-01
  6.542900000E-02  5.857669330E-02
  2.290000000E-02 -1.263813000E-04
 
[MO]
Sym=     1a  
Ene=   -11.2610
Spin= Alpha
Occup=    1.00000
   1        -0.00006932
   2        -0.00075363
   3         0.00000000
   4         0.00000000
   5        -0.00081180
   6         1.00002520
   7         0.00042746
   8         0.00000000
   9        -0.00000000
  10        -0.00028043
Sym=     1a  
Ene=   -11.2110
Spin= Beta
Occup=    1.00000
   1        -0.00004368
   2        -0.00033912
   3         0.00000000
   4         0.00000000
   5        -0.00023291
   6         0.99999668
   7        -0.00475506
   8         0.00000000
   9        -0.00000000
  10        -0.00025144
Sym=     2a  
Ene=    -7.6450
Spin= Alpha
Occup=    1.00000
   1         0.99991680
   2         0.01299305
   3         0.00000000
   4         0.00000000
   5         0.00024689
   6        -0.00002338
   7        -0.00009707
   8        -0.00000000
   9        -0.00000000
  10         0.00003704
Sym=     2a  
Ene=    -7.6640
Spin= Beta
Occup=    1.00000
   1         0.99988372
   2         0.01565688
   3         0.00000000
   4        -0.00000000
   5        -0.00016649
   6        -0.00003550
   7        -0.00024392
   8         0.00000000
   9        -0.00000000
  10         0.00027551
Sym=     3a  
Ene=    -0.8094
Spin= Alpha
Occup=    1.00000
   1        -0.00692682
   2         0.09069362
   3        -0.00000000
   4         0.00000000
   5         0.03827604
   6        -0.00179049
   7         0.97432282
   8        -0.00000000
   9         0.00000000
  10         0.02926389
Sym=     3a  
Ene=    -0.5975
Spin= Beta
Occup=    1.00000
   1        -0.01557121
   2         0.63181923
   3         0.00000000
   4         0.00000000
   5        -0.00197415
   6        -0.00210106
   7         0.67642379
   8        -0.00000000
   9         0.00000000
  10        -0.07815273
Sym=     4a  
Ene=    -0.4343
Spin= Alpha
Occup=    1.00000
   1         0.01376682
   2        -0.94010306
   3         0.00000000
   4        -0.00000000
   5        -0.15210463
   6         0.01168927
   7         0.24666293
   8        -0.00000000
   9         0.00000000
  10         0.18660762
Sym=     4a  
Ene=    -0.4983
Spin= Beta
Occup=    1.00000
   1         0.00713588
   2        -0.76119845
   3        -0.00000000
   4         0.00000000
   5         0.17491566
   6         0.00612760
   7         0.69593614
   8        -0.00000000
   9         0.00000000
  10        -0.01340566
Sym=     5a  
Ene=    -0.4101
Spin= Alpha
Occup=    1.00000
   1         0.00000000
   2        -0.00000000
   3         0.05049955
   4        -0.01067033
   5        -0.00000000
   6         0.00000000
   7         0.00000000
   8         0.97230560
   9        -0.20544388
  10         0.00000000
Sym=     5a  
Ene=    -0.3107
Spin= Beta
Occup=    1.00000
   1        -0.00000000
   2         0.00000000
   3         0.20544437
   4         0.97230795
   5         0.00000000
   6        -0.00000000
   7        -0.00000000
   8         0.01066693
   9         0.05048346
  10        -0.00000000
Sym=     6a  
Ene=    -0.4083
Spin= Alpha
Occup=    1.00000
   1        -0.00000000
   2         0.00000000
   3         0.00849443
   4         0.04020166
   5         0.00000000
   6        -0.00000000
   7        -0.00000000
   8         0.20575074
   9         0.97375791
  10         0.00000000
Sym=     6a  
Ene=     0.0618
Spin= Beta
Occup=    0.00000
   1         0.00648896
   2        -0.01704267
   3         0.00000000
   4         0.00000000
   5        -0.76472341
   6         0.01826233
   7         0.31703450
   8         0.00000000
   9        -0.00000000
  10         0.50433389
Sym=     7a  
Ene=     0.0459
Spin= Alpha
Occup=    0.00000
   1         0.00624868
   2         0.37679251
   3         0.00000000
   4         0.00000000
   5        -0.56992409
   6         0.00926838
   7         0.05971762
   8         0.00000000
   9        -0.00000000
  10         0.68251686
Sym=     7a  
Ene=     0.0878
Spin= Beta
Occup=    0.00000
   1        -0.00000000
   2        -0.00000000
   3         0.94099216
   4        -0.19882749
   5         0.00000000
   6        -0.00000000
   7        -0.00000000
   8         0.19304168
   9        -0.04078885
  10        -0.00000000
Sym=     8a  
Ene=     0.1290
Spin= Alpha
Occup=    0.00000
   1        -0.00000000
   2        -0.00000000
   3         0.98154919
   4        -0.20739701
   5        -0.00000000
   6         0.00000000
   7         0.00000000
   8        -0.14356477
   9         0.03033460
  10        -0.00000000
Sym=     8a  
Ene=     0.2386
Spin= Beta
Occup=    0.00000
   1        -0.00000000
   2        -0.00000000
   3        -0.03033123
   4        -0.14354883
   5        -0.00000000
   6         0.00000000
   7         0.00000000
   8         0.20739718
   9         0.98155002
  10        -0.00000000
Sym=     9a  
Ene=     0.1782
Spin= Alpha
Occup=    0.00000
   1        -0.00000000
   2        -0.00000000
   3         0.20749752
   4         0.98202487
   5        -0.00000000
   6         0.00000000
   7         0.00000000
   8        -0.02817811
   9        -0.13335871
  10        -0.00000000
Sym=     9a  
Ene=     0.2457
Spin= Beta
Occup=    0.00000
   1         0.00000000
   2         0.00000000
   3        -0.28376535
   4         0.05995837
   5         0.00000000
   6        -0.00000000
   7        -0.00000000
   8         0.96370324
   9        -0.20362624
  10         0.00000000
Sym=    10a  
Ene=     0.2513
Spin= Alpha
Occup=    0.00000
   1         0.01213348
   2         0.17751706
   3         0.00000000
   4         0.00000000
   5         0.87769391
   6        -0.02105726
   7        -0.26671818
   8         0.00000000
   9        -0.00000000
  10         0.77370034
Sym=    10a  
Ene=     0.2868
Spin= Beta
Occup=    0.00000
   1         0.01242752
   2         0.29414121
   3         0.00000000
   4        -0.00000000
   5         0.71018329
   6        -0.01872740
   7        -0.20601635
   8        -0.00000000
   9         0.00000000
  10         0.91623140
