   This run of MOLCAS is using the pymolcas driver

                             OPE
                             OPE          NMOL  CASOP  ENMOLC A   SO
                 OPE        NMOLC        AS  OP EN  MO LC     AS  OP
                OPENM       OL CA        SO  PE NM  OL CA     SOP EN
                OP EN      MO   LC       AS  OP ENMOL  CASO   PENMOL
                OP  EN     MO   LC       AS  OP EN     MO     LC ASO
               OP   E  NMOL  C  AS       OP  EN MO     LC     AS  OP
               OP  E   NMO   LC AS        OPEN  MO     LCASOP EN   M
               O  PEN   MO  LCA  SO
            OPE   NMO   L   CAS    OP
        OPENMOL  CASOP     ENMOL   CASOPE
     OPENMOLCA   SOPENMOLCASOPEN   MOLCASOPE
    OPENMOLCAS   OP           EN   MOL    CAS
    OPENMOLCAS       OP  ENM        O     LCA
    OPENMOLCAS    OPEN  MOLCASO     P  E  NMO
    OPENMOLCAS     OP               E  N  MOL
    OPENMOLCA   SO           PENM   O  L  CAS    OPEN    MO    LCAS
    OPENMOLCA   SOP           ENM   O  L  CAS   OP  EN  MOLC  AS   O
    OPENMOLCA   SOPE           NM      O  LCA   S      OP  EN MO
    OPENMOLC                AS         O  PEN   M      OL  CA  SOPE
    OPENMO        LCASOPE  NMOL        C  ASO   P      ENMOLC     AS
    OPE     NMO      LCA  SO     P     E   NM   OL  CA SO  PE N   MO
          OPENMOLCA            SOPE   NMO        LCAS  O    P  ENMO
     OPENMOLCASOPENMOLCASOPENMOLCASOPENMOLCA
        OPENMOLCASOPENMOLCASOPENMOLCASOPE
            OPENMOLCASOPENMOLCASOPENM
               OPENMOLCASOPENMOLCA        version: 24.02
                   OPENMOLCASO
                       OPE                tag: 126-g611b04c8f

 OpenMolcas is free software; you can redistribute it and/or modify it
 under the terms of the GNU Lesser General Public License version 2.1.
 OpenMolcas is distributed in the hope that it will be useful, but it
 is provided "as is" and without any express or implied warranties.
 For more details see the full text of the license in the file
 LICENSE or in <http://www.gnu.org/licenses/>.

                 Copyright (C) The OpenMolcas Authors
           For the author list and the recommended citation,
                   consult the file CONTRIBUTORS.md

           *************************************************
           * pymolcas version py2.28                       *
           *   build c4a6d18ded8cb6cad61d2372a9abd97c      *
           *   (after the EMIL interpreter by V. Veryazov) *
           *************************************************

configuration info
------------------
Host name: debian (Linux)
C Compiler ID: GNU
C flags: -std=gnu99
Fortran Compiler ID: Intel
Fortran flags: -fpp -i8 -heap-arrays
Definitions: _MOLCAS_;_I8_;_LINUX_
Parallel: OFF (GA=OFF)


   -----------------------------------------------------------------
  |
  |              Project: 2.10
  |       Submitted from: /home/grierjones/DDCASPT2/delta_ML/CF/2.10
  |         Scratch area: /tmp/2.10
  |      Save outputs to: /home/grierjones/DDCASPT2/delta_ML/CF/2.10
  |               Molcas: /usr/local
  |
  | Scratch area is empty
  |
  |       MOLCAS_DRIVER = /usr/local/pymolcas
  | MOLCAS_KEEP_WORKDIR = NO
  |  MOLCAS_NEW_WORKDIR = YES
  |       MOLCAS_NPROCS = 1
  |       MOLCAS_SOURCE = /usr/local
  |    MOLCAS_STRUCTURE = 0
  |
   -----------------------------------------------------------------

++ ---------   Input file   ---------

&GATEWAY
coord=2.10.xyz
Basis = ANO-RCC-MB
Group = nosymm
End of Input

&SEWARD
End of Input

&SCF
UHF

&MBPT2
Frozen
0

&RASSCF
Title= RASSCF
FileOrb
/home/grierjones/DDCASPT2/delta_ML/CF/2.00/2.00.RasOrb

NACTEL
1 0 0
Inactive
7
RAS2
2
Symmetry
1
Spin
2
orblisting
all
ITERation
200 100
CIMX
200
SDAV
500

&CASPT2
Imaginary Shift
0.0
Frozen
0

-- ----------------------------------

--- Start Module: gateway at Thu Apr 25 13:48:11 2024 ---
 
()()()()()()()()()()()()()()()()()()()()()()()()()()()()()()()()()()()()()()()()()()()()()()()()()()

                                              &GATEWAY

                                   only a single process is used
                       available to each process: 2.0 GB of memory, 1 thread?
                                            pid: 104178
()()()()()()()()()()()()()()()()()()()()()()()()()()()()()()()()()()()()()()()()()()()()()()()()()()
 
 
++    Symmetry information:
      ---------------------
 
                    Character Table for C1 
 
                             E  
                    a        1  x, y, xy, Rz, z, xz, Ry, yz, Rx, I
--
 
 
++    Basis set information:
      ----------------------
 
 
      Basis set label: C.ANO-RCC...2S1P.
 
      Electronic valence basis set:
      ------------------
      Associated Effective Charge   6.000000 au
      Associated Actual Charge      6.000000 au
      Nuclear Model: Point charge
 
      Shell  nPrim  nBasis  Cartesian Spherical Contaminant
         s      14       2        X                  
         p       9       1        X                  
 
 
      Basis set label: F.ANO-RCC...2S1P.
 
      Electronic valence basis set:
      ------------------
      Associated Effective Charge   9.000000 au
      Associated Actual Charge      9.000000 au
      Nuclear Model: Point charge
 
      Shell  nPrim  nBasis  Cartesian Spherical Contaminant
         s      14       2        X                  
         p       9       1        X                  
--
 
 
++    Molecular structure info:
      -------------------------
 
                    ************************************************ 
                    **** Cartesian Coordinates / Bohr, Angstrom **** 
                    ************************************************ 
 
     Center  Label                x              y              z                     x              y              z
        1      C1               0.000000       0.000000       0.000000              0.000000       0.000000       0.000000
        2      F2               0.000000       0.000000       3.968425              0.000000       0.000000       2.100000
--
 
 
            Nuclear Potential Energy             13.60741399 au
 
--- Stop Module: gateway at Thu Apr 25 13:48:12 2024 /rc=_RC_ALL_IS_WELL_ ---
*** files: xmldump
    saved to directory /home/grierjones/DDCASPT2/delta_ML/CF/2.10

--- Start Module: seward at Thu Apr 25 13:48:12 2024 ---
 
()()()()()()()()()()()()()()()()()()()()()()()()()()()()()()()()()()()()()()()()()()()()()()()()()()

                                              &SEWARD

                                   only a single process is used
                       available to each process: 2.0 GB of memory, 1 thread?
                                            pid: 104181
()()()()()()()()()()()()()()()()()()()()()()()()()()()()()()()()()()()()()()()()()()()()()()()()()()
 
               SEWARD will generate:
                  Multipole Moment integrals up to order  2
                  Kinetic Energy integrals
                  Nuclear Attraction integrals (point charge)
                  One-Electron Hamiltonian integrals
                  Velocity integrals
                  Relativistic Douglas-Kroll-Hess integrals:
                    - Parametrization         : EXP
                    - DKH order of Hamiltonian: 2
                    - DKH order of Properties : 0
                         - multipole moment operators
                         - electric potential operators
                         - contact operators
                  Orbital angular momentum around ( 0.0000  0.0000  2.4322 )
                  Velocity quadrupole around ( 0.0000  0.0000  2.4322 )
                  Atomic mean-field integrals
                  Two-Electron Repulsion integrals
 
                   Integrals are discarded if absolute value <: 1.00E-14
                   Integral cutoff threshold is set to       <: 1.00E-16
 
            Nuclear Potential Energy             13.60741399 au
 
 
      Basis set specifications :
      Symmetry species         a  
      Basis functions           10
 
 
      Input file to MOLDEN was generated!
 
--- Stop Module: seward at Thu Apr 25 13:48:12 2024 /rc=_RC_ALL_IS_WELL_ ---
*** files: 2.10.GssOrb 2.10.guessorb.h5 2.10.guessorb.molden xmldump
    saved to directory /home/grierjones/DDCASPT2/delta_ML/CF/2.10

*** symbolic link created: INPORB -> 2.10.GssOrb
--- Start Module: scf at Thu Apr 25 13:48:12 2024 ---
 
()()()()()()()()()()()()()()()()()()()()()()()()()()()()()()()()()()()()()()()()()()()()()()()()()()

                                                &SCF

                                   only a single process is used
                       available to each process: 2.0 GB of memory, 1 thread?
                                            pid: 104184
()()()()()()()()()()()()()()()()()()()()()()()()()()()()()()()()()()()()()()()()()()()()()()()()()()
 
++    Input section:
      --------------
 
      Header of the integral files:
      
       Integrals generated by Gateway/Seward, Thu Apr 25 13:48:12 2024
 
 
      Cartesian coordinates in Angstrom:
      -----------------------------------------------------
      No.  Label        X            Y            Z        
      -----------------------------------------------------
       1   C1         0.00000000   0.00000000   0.00000000
       2   F2         0.00000000   0.00000000   2.10000000
      -----------------------------------------------------
      Nuclear repulsion energy =   13.60741399
--
 
++    Orbital specifications:
      -----------------------
 
      Symmetry species               1
                                     a
      Frozen orbitals                0
      Occupied orbitals alpha        8
      Occupied orbitals beta         7
      Secondary orbitals alpha       2
      Secondary orbitals beta        3
      Deleted orbitals               0
      Total number of orbitals      10
      Number of basis functions     10
--
 
      Molecular charge                           0.000
 
++    Optimization specifications:
      ----------------------------
 
      SCF Algorithm: Conventional USCF
      D(i)-D(i-1) density differences are used
      Number of density matrices in core                 5
      Maximum number of NDDO SCF iterations            400
      Maximum number of HF SCF iterations              400
      Threshold for SCF energy change             1.00E-09
      Threshold for density matrix                1.00E-04
      Threshold for Fock matrix                   1.50E-04
      Threshold for linear dependence             1.00E-09
      Threshold at which DIIS is turned on        1.50E-01
      Maximum depth in the DIIS procedure                5
      Maximum depth in the BFGS Hessian update          30
      Threshold at which QNR/C2DIIS is turned on  7.50E-02
      Threshold for Norm(delta) (QNR/C2DIIS)      1.00E-03
      All orbitals punched on: UHFORB
--
 
      Input vectors read from INPORB
      Orbital file label: *Guess orbitals
 
 
++ Convergence information
                               UHF SCF        iterations: Energy and convergence statistics
 
Iter     Tot. SCF        One-elec.       Two-elec.     Energy      Max Dij or  Max Fij      DNorm      TNorm      AccCon     Time
         Energy          Energy          Energy        Change      Delta Norm                                                in Sec.
   1  -137.074902247  -219.688976239    69.006659998   0.00E+00    5.42E-01*   8.27E-02*    5.53E+00   2.84E+01   None         0.
   2  -137.104211759  -217.659252013    66.947626259  -2.93E-02*   2.01E-01*   6.40E-02*    1.12E+00   2.79E+01   EDIIS        0.
   3  -137.124325754  -218.832786095    68.101046346  -2.01E-02*   2.22E-01*   4.85E-02*    5.40E-01   2.82E+01   EDIIS        0.
   4  -137.130732821  -218.218036928    67.479890113  -6.41E-03*   9.45E-02*   2.52E-02*    3.19E-01   2.80E+01   EDIIS        0.
   5  -137.134438757  -218.433666839    67.691814088  -3.71E-03*   7.22E-02*   1.16E-02*    1.89E-01   2.81E+01   c2DIIS       0.
   6  -137.136182183  -218.371140507    67.627544329  -1.74E-03*   1.45E-01*   2.87E-02*    1.52E-01   2.81E+01   QNRc2DIIS    0.
 DIIS_X: Resetting kOptim!
         Caused by energies and gradients which are inconsistent with a convex e
 nergy functional.
 kOptim=                     2 -> kOptim=                     1
   7  -137.141797723  -218.253733732    67.504522015  -5.62E-03*   1.78E-01*   3.15E-02*    1.70E-01   2.81E+01   QNRc2DIIS    0.
 DIIS_X: Resetting kOptim!
         Caused by energies and gradients which are inconsistent with a convex e
 nergy functional.
 kOptim=                     2 -> kOptim=                     1
   8  -137.150687330  -218.171210630    67.413109305  -8.89E-03*   2.11E-01*   3.98E-02*    2.15E-01   2.80E+01   QNRc2DIIS    0.
 DIIS_X: Resetting BFGS depth!
         Too large B matrix values.
 DIIS_X: Resetting kOptim!
         Caused by energies and gradients which are inconsistent with a convex e
 nergy functional.
 kOptim=                     2 -> kOptim=                     1
   9  -137.162808622  -218.027308874    67.257086257  -1.21E-02*   2.17E-01*   4.31E-02*    2.55E-01   2.80E+01   QNRc2DIIS    0.
 DIIS_X: Resetting BFGS depth!
         Too large B matrix values.
  10  -137.175385472  -217.868403968    67.085604501  -1.26E-02*   8.49E-02*   4.06E-02*    2.68E-01   2.80E+01   QNRc2DIIS    0.
  11  -137.179855069  -217.799332283    67.012063219  -4.47E-03*   8.15E-01*   3.72E-02*    1.06E-01   2.80E+01   QNRc2DIIS    0.
  12  -137.186646495  -217.322475950    66.528415461  -6.79E-03*   3.45E-01*   3.87E-02*    1.11E+00   2.79E+01   QNRc2DIIS    0.
  13  -137.194193039  -217.461956014    66.660348981  -7.55E-03*   2.35E-02*   7.90E-03*    4.96E-01   2.79E+01   QNRc2DIIS    0.
  14  -137.194316154  -217.464370653    66.662640504  -1.23E-04*   2.05E-02*   2.28E-03*    3.54E-02   2.79E+01   QNRc2DIIS    0.
  15  -137.194278156  -217.481275540    66.679583390   3.80E-05*   3.93E-02*   4.06E-03*    2.81E-02   2.79E+01   QNRc2DIIS    0.
  16  -137.194337387  -217.463274309    66.661522927  -5.92E-05*   8.71E-03*   1.39E-03*    5.57E-02   2.79E+01   QNRc2DIIS    0.
  17  -137.194344854  -217.466878640    66.665119792  -7.47E-06*   1.13E-03*   1.78E-04*    1.24E-02   2.79E+01   QNRc2DIIS    0.
  18  -137.194344965  -217.467200268    66.665441308  -1.12E-07*   4.66E-05    6.35E-06     1.64E-03   2.79E+01   QNRc2DIIS    0.
  19  -137.194344965  -217.467217024    66.665458064  -1.78E-10    1.06E-05    1.85E-06     6.89E-05   2.79E+01   QNRc2DIIS    0.
 
       Convergence after  19 Macro Iterations
--
 
 *****************************************************************************************************************************
 *                                                                                                                           *
 *                                             SCF/KS-DFT Program, Final results                                             *
 *                                                                                                                           *
 *                                                                                                                           *
 *                                                                                                                           *
 *                                                       Final Results                                                       *
 *                                                                                                                           *
 *****************************************************************************************************************************
 
::    Total SCF energy                               -137.1943449655
      One-electron energy                            -217.4672170244
      Two-electron energy                              66.6654580643
      Nuclear repulsion energy                         13.6074139946
      Kinetic energy (interpolated)                   138.3867123474
      Virial theorem                                    0.9913838015
      Total spin, S(S+1)                                1.5342968997
      Total spin, S                                     0.8357757670
      Max non-diagonal density matrix element           0.0000070858
      Max non-diagonal Fock matrix element              0.0000013759
 
 
      All orbitals with orbital energies smaller than  E(LUMO)+0.5 are printed
 
++    Molecular orbitals:
      -------------------
 
      Title: UHF orbitals (alpha)

      Molecular orbitals for symmetry species 1: a  
 
          Orbital            1         2         3         4         5         6         7         8         9        10    
          Energy          -26.3181  -11.3335   -1.4713   -0.8274   -0.6501   -0.6473   -0.4449   -0.4383    0.0699    0.1259
          Occ. No.          1.0000    1.0000    1.0000    1.0000    1.0000    1.0000    1.0000    1.0000    0.0000    0.0000
 
        1 C1     1s        -0.0000    1.0000   -0.0019   -0.0003    0.0000    0.0000    0.0000   -0.0031    0.0000    0.0109
        2 C1     2s        -0.0001   -0.0003    0.0383    0.9885    0.0000    0.0000    0.0000   -0.0580    0.0000    0.2074
        3 C1     2px        0.0000    0.0000   -0.0000   -0.0000    0.0175    0.0235    0.2135    0.0000    0.9785   -0.0000
        4 C1     2py        0.0000   -0.0000    0.0000   -0.0000    0.0800   -0.0052    0.9755    0.0000   -0.2141    0.0000
        5 C1     2pz       -0.0000    0.0003    0.0313   -0.0059   -0.0000   -0.0000   -0.0000    0.9229   -0.0000    0.4385
        6 F2     1s         1.0000   -0.0001    0.0034   -0.0050    0.0000    0.0000    0.0000   -0.0109    0.0000   -0.0062
        7 F2     2s        -0.0040   -0.0005    0.9917   -0.1104   -0.0000    0.0000    0.0000   -0.1492    0.0000   -0.0908
        8 F2     2px        0.0000    0.0000   -0.0000   -0.0000    0.2120    0.9751   -0.0306   -0.0000   -0.0838   -0.0000
        9 F2     2py        0.0000   -0.0000    0.0000   -0.0000    0.9687   -0.2134   -0.1400   -0.0000    0.0183   -0.0000
       10 F2     2pz       -0.0001    0.0002    0.0040   -0.0789    0.0000    0.0000    0.0000   -0.2877    0.0000    0.9772
--
 
 
      Input file to MOLDEN was generated!
 
 
++    Static properties:
      ------------------
 
 
      LoProp Charges per center
 

                   C1       F2    
      Nuclear      6.0000   9.0000
      Electronic  -5.8821  -9.1179
 
      Total        0.1179  -0.1179
--
 
 
      All orbitals with orbital energies smaller than  E(LUMO)+0.5 are printed
 
++    Molecular orbitals:
      -------------------
 
      Title: UHF orbitals (beta)

      Molecular orbitals for symmetry species 1: a  
 
          Orbital            1         2         3         4         5         6         7         8         9        10    
          Energy          -26.3554  -11.2908   -1.6202   -0.7838   -0.6861   -0.6846   -0.5845    0.1258    0.1880    0.2057
          Occ. No.          1.0000    1.0000    1.0000    1.0000    1.0000    1.0000    1.0000    0.0000    0.0000    0.0000
 
        1 C1     1s        -0.0000    1.0000   -0.0020    0.0088    0.0000   -0.0000   -0.0086    0.0000   -0.0000   -0.0023
        2 C1     2s        -0.0001   -0.0050    0.0098   -0.2098    0.0000    0.0000   -0.9893    0.0000   -0.0000   -0.0467
        3 C1     2px        0.0000    0.0000   -0.0000   -0.0000    0.0133    0.0023    0.0000    0.9786    0.2142   -0.0000
        4 C1     2py        0.0000    0.0000    0.0000   -0.0000   -0.0029    0.0103    0.0000   -0.2142    0.9787   -0.0000
        5 C1     2pz       -0.0002    0.0003    0.0065   -0.0343   -0.0000   -0.0000    0.0224   -0.0000   -0.0000   -1.0214
        6 F2     1s         1.0000   -0.0000    0.0023    0.0016   -0.0000   -0.0000    0.0045    0.0000    0.0000    0.0123
        7 F2     2s        -0.0024   -0.0002    0.9980    0.0457    0.0000   -0.0000    0.0754    0.0000    0.0000    0.1492
        8 F2     2px        0.0000   -0.0000   -0.0000    0.0000    0.9760    0.2136    0.0000   -0.0736   -0.0155    0.0000
        9 F2     2py       -0.0000   -0.0000    0.0000    0.0000   -0.2136    0.9762    0.0000    0.0161   -0.0706    0.0000
       10 F2     2pz       -0.0002    0.0001   -0.0214    0.9445    0.0000   -0.0000   -0.3341    0.0000   -0.0000   -0.1993
--
 
 
++    Molecular charges:
      ------------------
 
      Mulliken charges per centre and basis function type
      ---------------------------------------------------
 
                            C1                      F2    
                     alpha        beta       alpha        beta
      1s           1.0000      1.0000      1.0000      1.0000
      2s           0.9854      0.9996      0.9986      0.9992
      2px          0.0477      0.0010      0.9980      0.9990
      2pz          0.8785      0.0087      0.1375      0.9925
      2py          0.9544      0.0008      0.9999      0.9992
      Total        3.8659      2.0101      4.1341      4.9899
      Total              5.8760                  9.1240
 
      Charge            0.1240                 -0.1240
 
      Total electronic charge=   15.000000
 
      Total            charge=   -0.000000
--
 
 
      Input file to MOLDEN was generated!
 
 
++    Static properties:
      ------------------
 
 
      LoProp Charges per center
 

                   C1       F2    
      Nuclear      6.0000   9.0000
      Electronic  -5.8821  -9.1179
 
      Total        0.1179  -0.1179
--
 
 
++    Natural Bond Order analysis
      ---------------------------
      Based on LoProp computed density
      -------------------------------------------------------------------------------------
      Atom A       Atom B       Bond Order
      -------------------------------------------------------------------------------------
      NBO located      1.000 non-bonded electrons on atom C1        
      NBO located      0.990 non-bonded electrons on atom C1        
      The remaining    5.522 electrons are to be considered as diffuse
--
 
 
++    Molecular orbitals:
      -------------------
 
      Title: Natural orbitals

      Molecular orbitals for symmetry species 1: a  
 
          Orbital            1         2         3         4         5         6         7         8         9        10    
          Energy          -26.3367  -11.3120   -1.5445   -0.7228   -0.6668   -0.6667   -0.3916   -0.1289   -0.0382    0.0978
          Occ. No.          2.0000    2.0000    2.0000    2.0000    2.0000    1.9999    1.4587    1.0000    0.5413    0.0001
 
        1 C1     1s        -0.0000    1.0000    0.0018   -0.0003    0.0000   -0.0000    0.0083   -0.0000   -0.0078   -0.0000
        2 C1     2s        -0.0001   -0.0003   -0.0399    0.9886   -0.0000   -0.0000    0.1555   -0.0000   -0.1480    0.0000
        3 C1     2px        0.0000    0.0000    0.0000    0.0000    0.0022    0.0178   -0.0000    0.2142   -0.0000    0.9786
        4 C1     2py        0.0000    0.0000    0.0000    0.0000    0.0099   -0.0039    0.0000    0.9787   -0.0000   -0.2142
        5 C1     2pz       -0.0002    0.0003   -0.0048   -0.0060    0.0000    0.0000   -0.5639   -0.0000   -0.8527   -0.0000
        6 F2     1s         1.0000   -0.0001   -0.0037   -0.0050    0.0000    0.0000    0.0059    0.0000    0.0108    0.0000
        7 F2     2s        -0.0039   -0.0004   -0.9955   -0.1104    0.0000    0.0000    0.0567    0.0000    0.1399    0.0000
        8 F2     2px        0.0000    0.0000    0.0000    0.0000    0.2136    0.9756   -0.0000   -0.0154    0.0000   -0.0781
        9 F2     2py        0.0000    0.0000    0.0000    0.0000    0.9762   -0.2135   -0.0000   -0.0702    0.0000    0.0171
       10 F2     2pz       -0.0001    0.0002   -0.0120   -0.0786    0.0000    0.0000    0.7512   -0.0000   -0.6880   -0.0000
--
 
 
++    Molecular properties:
      ---------------------
 
      Charge (e):
                      =   -0.0000
      Dipole Moment (Debye):
      Origin of the operator (Ang)=    0.0000    0.0000    0.0000
                   X=  2.6240E-13               Y= -6.5081E-15               Z= -1.0135E+00           Total=  1.0135E+00
      Quadrupole Moment (Debye*Ang):
      Origin of the operator (Ang)=    0.0000    0.0000    1.2871
                  XX= -9.6624E+00              XY= -3.6966E-01              XZ= -6.1917E-13              YY= -1.1271E+01
                  YZ=  6.6230E-14              ZZ= -1.0442E+01
      In traceless form (Debye*Ang)
                  XX=  1.1937E+00              XY= -5.5449E-01              XZ= -9.2876E-13              YY= -1.2186E+00
                  YZ=  9.9345E-14              ZZ=  2.4880E-02
--
 
 
      Input file to MOLDEN was generated!
 
 ###############################################################################
 ###############################################################################
 ###                                                                         ###
 ###                                                                         ###
 ###    WARNING: RunFile label nBas                                          ###
 ###    was used       87 times                                              ###
 ###                                                                         ###
 ###                                                                         ###
 ###############################################################################
 ###############################################################################
--- Stop Module: scf at Thu Apr 25 13:48:13 2024 /rc=_RC_ALL_IS_WELL_ ---
*** files: 2.10.LprOrb 2.10.LoProp.molden 2.10.scf.molden 2.10.scf.h5 2.10.UhfOrb 2.10.UnaOrb xmldump
    saved to directory /home/grierjones/DDCASPT2/delta_ML/CF/2.10

*** symbolic link created: INPORB -> 2.10.UnaOrb
--- Start Module: mbpt2 at Thu Apr 25 13:48:13 2024 ---
 
()()()()()()()()()()()()()()()()()()()()()()()()()()()()()()()()()()()()()()()()()()()()()()()()()()

                                               &MBPT2

                                   only a single process is used
                       available to each process: 2.0 GB of memory, 1 thread?
                                            pid: 104189
()()()()()()()()()()()()()()()()()()()()()()()()()()()()()()()()()()()()()()()()()()()()()()()()()()
 
 
 ###############################################################################
 ###############################################################################
 ###                                                                         ###
 ###                                                                         ###
 ###    WARNING: MP2 implementation intended for RHF references only         ###
 ###                                                                         ###
 ###                                                                         ###
 ###############################################################################
 ###############################################################################
MBPT2 WARNING: Reference function according to RunFile:UHF-SCF 
I'll assume you know what you're doing and continue
 
 
WARNING!
Default frozen orbitals as non valence orbitals is overwritten by user input.
Default values:   2
 
 
      Cartesian coordinates in Angstrom:
      -----------------------------------------------------
      No.  Label        X            Y            Z        
      -----------------------------------------------------
       1   C1         0.00000000   0.00000000   0.00000000
       2   F2         0.00000000   0.00000000   2.10000000
      -----------------------------------------------------
      Nuclear repulsion energy =   13.60741399
 
      Contents of RUNFILE file:
      -------------------------
 
      Symmetry species                           1
                                                 a
      Number of basis functions                 10
      Frozen occupied orbitals                   0
      Active occupied orbitals                   8
      Active external orbitals                   2
      Deleted external orbitals                  0
 
 
      Energies of the active occupied orbitals
 
      symmetry species 1                   -26.318116    -11.333483     -1.471329     -0.827383     -0.650062
                                            -0.647309     -0.444852     -0.438348
 
 
      Energies of the active external orbitals
 
      symmetry species 1                     0.069921      0.125853
 
 
      ********************************************************************************************************
      *                                               Results                                                *
      ********************************************************************************************************
 
 Conventional algorithm used...

       SCF energy                           =     -137.1943449655 a.u.
       Second-order correlation energy      =       -0.0313709879 a.u.

       Total energy                         =     -137.2257159533 a.u.
       Reference weight ( Cref**2 )         =        0.98065
 
::    Total MBPT2 energy                             -137.2257159533
 
 
       Zeroth-order energy (E0)             =      -70.6543510912 a.u.
 
       Shanks-type energy S1(E)             =     -137.2257307505 a.u.
 
 


       Data processing and timing information:

       Section                                              time(sec)
                                                          CPU  Elapsed

      Input data processing                              0.03      0.05
      Transformation of integrals                        0.00      0.00
      MBPT2 calculations (BJAI)                          0.00      0.00
      Total MBPT2 calculations                           0.03      0.05
 
 
--- Stop Module: mbpt2 at Thu Apr 25 13:48:13 2024 /rc=_RC_ALL_IS_WELL_ ---
*** files: xmldump
    saved to directory /home/grierjones/DDCASPT2/delta_ML/CF/2.10

*** symbolic link created: INPORB -> 2.10.UnaOrb
--- Start Module: rasscf at Thu Apr 25 13:48:13 2024 ---
 
()()()()()()()()()()()()()()()()()()()()()()()()()()()()()()()()()()()()()()()()()()()()()()()()()()

                                              &RASSCF

                                   only a single process is used
                       available to each process: 2.0 GB of memory, 1 thread?
                                            pid: 104192
()()()()()()()()()()()()()()()()()()()()()()()()()()()()()()()()()()()()()()()()()()()()()()()()()()
 
 
      Header of the ONEINT file:
      --------------------------
      
      Integrals generated by Gateway/Seward, Thu Apr 25 13:48:12 2024
 
 
      OrdInt status: non-squared
 
 
      Cartesian coordinates in Angstrom:
      -----------------------------------------------------
      No.  Label        X            Y            Z        
      -----------------------------------------------------
       1   C1         0.00000000   0.00000000   0.00000000
       2   F2         0.00000000   0.00000000   2.10000000
      -----------------------------------------------------
      Nuclear repulsion energy =   13.60741399
 
++    Wave function specifications:
      -----------------------------
 
      Number of closed shell electrons          14
      Number of electrons in active shells       1
      Max number of holes in RAS1 space          0
      Max nr of electrons in RAS3 space          0
      Number of inactive orbitals                7
      Number of active orbitals                  2
      Number of secondary orbitals               1
      Spin quantum number                      0.5
      State symmetry                             1
--
 
++    Orbital specifications:
      -----------------------
 
      Symmetry species                           1
                                                 a
      Frozen orbitals                            0
      Inactive orbitals                          7
      Active orbitals                            2
      RAS1 orbitals                              0
      RAS2 orbitals                              2
      RAS3 orbitals                              0
      Secondary orbitals                         1
      Deleted orbitals                           0
      Number of basis functions                 10
--
 
++    CI expansion specifications:
      ----------------------------
 
      Number of CSFs                             2
      Number of determinants                     2
      Number of root(s) required                 1
      Root chosen for geometry opt.              1
      CI root used                               1
         
      highest root included in the CI            1
      max. size of the explicit Hamiltonian      2
--
 
++    Optimization specifications:
      ----------------------------
 
      RASSCF algorithm: Conventional
      Maximum number of macro iterations       200
      Maximum number of SX iterations          100
      Threshold for RASSCF energy            1.000E-08
      Threshold for max MO rotation          1.000E-01
      Threshold for max BLB element          1.000E-04
      Level shift parameter                  5.000E-01
      Make Quasi-Newton update
--
 
      The MO-coefficients are taken from the file:
      /home/grierjones/DDCASPT2/delta_ML/CF/2.00/2.00.RasOrb                                                                                                                                                                                                          
      Title: RASSCF average (pseudo-natural) orbitals                                      
 
      Total molecular charge    0.00
 
      ************************************************************************************************************************
      *                                                                                                                      *
      *                                            Wave function control section                                             *
      *                                                                                                                      *
      ************************************************************************************************************************
 
 
                                         RASSCF iterations: Energy and convergence statistics
                                         ----------------------------------------------------
 
      Iter CI   SX   CI       RASSCF       Energy    max ROT     max BLB   max BLB  Level Ln srch  Step   QN   Walltime
          iter iter root      energy       change     param      element    value   shift minimum  type update hh:mm:ss
 Nr of preliminary CI iterations:   1
 ###############################################################################
 ###############################################################################
 ###                                                                         ###
 ###                                                                         ###
 ###    WARNING: Problems in orbital optimization.                           ###
 ###                                                                         ###
 ###                                                                         ###
 ###############################################################################
 ###############################################################################
  Warning: In symmetry  1, orbital p=   9 has diagonal density matrix element D(p,p) close to zero. D(p,p)=  8.946488E-21
        1   1    4    1  -137.13020875    0.00E+00   4.65E-03    4  10 1 -1.26E-02*  0.50   0.00    SX    NO    0:00:00
 ###############################################################################
 ###############################################################################
 ###                                                                         ###
 ###                                                                         ###
 ###    WARNING: Problems in orbital optimization.                           ###
 ###                                                                         ###
 ###                                                                         ###
 ###############################################################################
 ###############################################################################
  Warning: In symmetry  1, orbital p=   9 has diagonal density matrix element D(p,p) close to zero. D(p,p)=  1.019615E-20
        2   1    4    1  -137.13037255   -1.64E-04*  2.68E-03    4  10 1 -7.21E-03*  0.50   0.00    SX    NO    0:00:00
 ###############################################################################
 ###############################################################################
 ###                                                                         ###
 ###                                                                         ###
 ###    WARNING: Problems in orbital optimization.                           ###
 ###                                                                         ###
 ###                                                                         ###
 ###############################################################################
 ###############################################################################
  Warning: In symmetry  1, orbital p=   9 has diagonal density matrix element D(p,p) close to zero. D(p,p)=  1.575081E-20
        3   1    4    1  -137.13042422   -5.17E-05*  1.52E-03    4  10 1 -4.08E-03*  0.50   0.00    SX    NO    0:00:00
 ###############################################################################
 ###############################################################################
 ###                                                                         ###
 ###                                                                         ###
 ###    WARNING: Problems in orbital optimization.                           ###
 ###                                                                         ###
 ###                                                                         ###
 ###############################################################################
 ###############################################################################
  Warning: In symmetry  1, orbital p=   9 has diagonal density matrix element D(p,p) close to zero. D(p,p)=  2.080608E-20
        4   1    4    1  -137.13044406   -1.98E-05*  1.11E-03    4  10 1 -2.30E-03*  0.50   0.00    SX    NO    0:00:00
 ###############################################################################
 ###############################################################################
 ###                                                                         ###
 ###                                                                         ###
 ###    WARNING: Problems in orbital optimization.                           ###
 ###                                                                         ###
 ###                                                                         ###
 ###############################################################################
 ###############################################################################
  Warning: In symmetry  1, orbital p=   9 has diagonal density matrix element D(p,p) close to zero. D(p,p)=  2.745049E-20
        5   1    3    1  -137.13045280   -8.74E-06*  1.66E-03    6   9 1 -1.74E-03*  0.50   2.50    LS   YES    0:00:00
 ###############################################################################
 ###############################################################################
 ###                                                                         ###
 ###                                                                         ###
 ###    WARNING: Problems in orbital optimization.                           ###
 ###                                                                         ###
 ###                                                                         ###
 ###############################################################################
 ###############################################################################
  Warning: In symmetry  1, orbital p=   9 has diagonal density matrix element D(p,p) close to zero. D(p,p)=  3.901292E-20
        6   1    3    1  -137.13045975   -6.95E-06*  7.42E-04    6   9 1 -9.56E-04*  0.50   1.45    LS   YES    0:00:00
 ###############################################################################
 ###############################################################################
 ###                                                                         ###
 ###                                                                         ###
 ###    WARNING: Problems in orbital optimization.                           ###
 ###                                                                         ###
 ###                                                                         ###
 ###############################################################################
 ###############################################################################
  Warning: In symmetry  1, orbital p=   9 has diagonal density matrix element D(p,p) close to zero. D(p,p)=  4.780582E-20
        7   1    3    1  -137.13046049   -7.39E-07* -4.21E-04    4  10 1  8.67E-04*  0.50   1.00    QN   YES    0:00:00
 ###############################################################################
 ###############################################################################
 ###                                                                         ###
 ###                                                                         ###
 ###    WARNING: Problems in orbital optimization.                           ###
 ###                                                                         ###
 ###                                                                         ###
 ###############################################################################
 ###############################################################################
  Warning: In symmetry  1, orbital p=   9 has diagonal density matrix element D(p,p) close to zero. D(p,p)=  5.770691E-20
        8   1    3    1  -137.13046145   -9.63E-07*  6.31E-04    4  10 1  5.88E-04*  0.50   2.50    LS   YES    0:00:00
 ###############################################################################
 ###############################################################################
 ###                                                                         ###
 ###                                                                         ###
 ###    WARNING: Problems in orbital optimization.                           ###
 ###                                                                         ###
 ###                                                                         ###
 ###############################################################################
 ###############################################################################
  Warning: In symmetry  1, orbital p=   9 has diagonal density matrix element D(p,p) close to zero. D(p,p)=  8.410880E-20
        9   1    3    1  -137.13046214   -6.88E-07*  2.01E-04    4  10 1  1.72E-04*  0.50   1.26    QN   YES    0:00:00
 ###############################################################################
 ###############################################################################
 ###                                                                         ###
 ###                                                                         ###
 ###    WARNING: Problems in orbital optimization.                           ###
 ###                                                                         ###
 ###                                                                         ###
 ###############################################################################
 ###############################################################################
  Warning: In symmetry  1, orbital p=   9 has diagonal density matrix element D(p,p) close to zero. D(p,p)=  1.092292E-19
       10   1    3    1  -137.13046219   -5.70E-08*  2.90E-05    3  10 1 -9.60E-05   0.50   1.18    QN   YES    0:00:00
 ###############################################################################
 ###############################################################################
 ###                                                                         ###
 ###                                                                         ###
 ###    WARNING: Problems in orbital optimization.                           ###
 ###                                                                         ###
 ###                                                                         ###
 ###############################################################################
 ###############################################################################
  Warning: In symmetry  1, orbital p=   9 has diagonal density matrix element D(p,p) close to zero. D(p,p)=  1.345039E-19
       11   1    3    1  -137.13046220   -4.78E-09   1.17E-05    3  10 1 -2.87E-05   0.50   1.27    QN   YES    0:00:00
      Convergence after 11 iterations
       12   1    3    1  -137.13046220   -4.43E-10   1.17E-05    4  10 1 -2.48E-06   0.50   1.27    QN   YES    0:00:00
 
      ************************************************************************************************************************
                                                      Wave function printout:
                       occupation of active orbitals, and spin coupling of open shells (u,d: Spin up or down)
      ************************************************************************************************************************
 
      Note: transformation to natural orbitals
      has been made, which may change the order of the CSFs.
 
      printout of CI-coefficients larger than  0.05 for root  1
      energy=    -137.130462
      conf/sym  11     Coeff  Weight
             1  u0   1.00000 1.00000
 
      Natural orbitals and occupation numbers for root  1
      sym 1:   1.000000   0.000000
 
      ************************************************************************************************************************
      *                                                                                                                      *
      *                                                    Final results                                                     *
      *                                                                                                                      *
      ************************************************************************************************************************
 
 
++    Wave function specifications:
      -----------------------------
 
      Number of closed shell electrons          14
      Number of electrons in active shells       1
      Max number of holes in RAS1 space          0
      Max nr of electrons in RAS3 space          0
      Number of inactive orbitals                7
      Number of active orbitals                  2
      Number of secondary orbitals               1
      Spin quantum number                      0.5
      State symmetry                             1
--
 
++    Orbital specifications:
      -----------------------
 
      Symmetry species                           1
                                                 a
      Frozen orbitals                            0
      Inactive orbitals                          7
      Active orbitals                            2
      RAS1 orbitals                              0
      RAS2 orbitals                              2
      RAS3 orbitals                              0
      Secondary orbitals                         1
      Deleted orbitals                           0
      Number of basis functions                 10
--
 
++    CI expansion specifications:
      ----------------------------
 
      Number of CSFs                             2
      Number of determinants                     2
      Number of root(s) required                 1
      CI root used                               1
      highest root included in the CI            1
      Root passed to geometry opt.               1
--
 
++    Final optimization conditions:
      ------------------------------
 
      Average CI energy                            -137.13046220
      RASSCF energy for state  1                   -137.13046220
      Super-CI energy                                -0.00000000
      RASSCF energy change                           -0.00000000
      Max change in MO coefficients              -1.061E-05
      Max non-diagonal density matrix element     1.171E-05
      Maximum BLB matrix element                 -2.483E-06
      (orbital pair   4,  10 in symmetry   1)
      Norm of electronic gradient            4.061E-06
--
 
 
      Final state energy(ies):
      ------------------------
 
::    RASSCF root number  1 Total energy:   -137.13046220
 
++    Molecular orbitals:
      -------------------
 
      Pseudonatural active orbitals and approximate occupation numbers
 
 
 
 
      Molecular orbitals for symmetry species 1: a  
 
 
      Orbital                 1         2         3         4         5         6         7         8         9        10
      Energy           -26.0838  -11.5048   -1.4070   -0.8117   -0.5221   -0.5192   -0.4434   -0.2248   -0.0000    0.0354
      Occ. No.           2.0000    2.0000    2.0000    2.0000    2.0000    2.0000    2.0000    1.0000    0.0000    0.0000
 
     1 C1     1s        -0.0000    1.0000   -0.0019   -0.0021    0.0000   -0.0000   -0.0097    0.0000   -0.0000   -0.0068
     2 C1     2s        -0.0001   -0.0035    0.0481   -0.9722    0.0000   -0.0000   -0.2150   -0.0000   -0.0000   -0.1766
     3 C1     2px       -0.0000    0.0000    0.0000    0.0000    0.0298    0.0516    0.0000   -0.6239   -0.7817    0.0000
     4 C1     2py       -0.0000    0.0000    0.0000    0.0000    0.0374   -0.0411    0.0000   -0.7825    0.6232    0.0000
     5 C1     2pz       -0.0001    0.0007    0.0361    0.0282   -0.0000    0.0000    0.4718   -0.0000   -0.0000   -0.9058
     6 F2     1s         1.0000   -0.0000    0.0021    0.0046    0.0000   -0.0000   -0.0049   -0.0000    0.0000    0.0115
     7 F2     2s        -0.0028   -0.0003    0.9893    0.1210    0.0000    0.0000   -0.0806    0.0000    0.0000    0.1622
     8 F2     2px        0.0000    0.0000   -0.0000    0.0000    0.6209    0.7770    0.0000    0.0682    0.0997   -0.0000
     9 F2     2py        0.0000   -0.0000    0.0000    0.0000    0.7787   -0.6195    0.0000    0.0855   -0.0795    0.0000
    10 F2     2pz       -0.0004    0.0000   -0.0187    0.1427    0.0000   -0.0000   -0.8138   -0.0000   -0.0000   -0.6008
--
 
      Von Neumann Entropy (Root   1) =  0.50000
 

      Mulliken population analysis for root number:  1
      -----------------------------------------------
 
 
++    Molecular charges:
      ------------------
 
      Mulliken charges per centre and basis function type
      ---------------------------------------------------
 
                C1      F2    
      1s       2.0000  2.0000
      2s       1.9702  1.9920
      2px      0.4009  1.9877
      2pz      0.5656  1.4722
      2py      0.6211  1.9903
      Total    5.5578  9.4422
 
      N-E      0.4422 -0.4422
 
      Total electronic charge=   15.000000
 
      Total            charge=   -0.000000
--
 
 

      Expectation values of various properties for root number:  1
      -----------------------------------------------------------
 
 
++    Molecular properties:
      ---------------------
 
      Charge (e):
                      =   -0.0000
      Dipole Moment (Debye):
      Origin of the operator (Ang)=    0.0000    0.0000    0.0000
                   X=  5.4342E-14               Y=  1.6226E-14               Z= -3.7518E+00           Total=  3.7518E+00
      Quadrupole Moment (Debye*Ang):
      Origin of the operator (Ang)=    0.0000    0.0000    1.2871
                  XX= -1.0216E+01              XY= -8.5320E-01              XZ= -8.4990E-14              YY= -1.0606E+01
                  YZ= -4.1658E-14              ZZ= -9.6162E+00
      In traceless form (Debye*Ang)
                  XX= -1.0506E-01              XY= -1.2798E+00              XZ= -1.2749E-13              YY= -6.8990E-01
                  YZ= -6.2486E-14              ZZ=  7.9496E-01
--
 

      Mulliken spin population analysis for root number:  1
      ---------------------------------------------------
 
 
++    Molecular charges:
      ------------------
 
      Mulliken spin population per centre and basis function type
      ---------------------------------------------------
 
                C1      F2    
      1s       0.0000  0.0000
      2s       0.0000  0.0000
      2px      0.3866  0.0020
      2pz      0.0000  0.0000
      2py      0.6082  0.0032
      Total    0.9948  0.0052
 
      Total electronic spin=    1.000000
--
 
 

      LoProp population analysis for root number:  1
      -----------------------------------------------
 
 
++    LoProp analysis:
      ----------------
 
 
 
      Input file to MOLDEN was generated!
 
 
++    Static properties:
      ------------------
 
 
      LoProp Charges per center
 

                   C1       F2    
      Nuclear      6.0000   9.0000
      Electronic  -5.5726  -9.4274
 
      Total        0.4274  -0.4274
--
 
 
      Natural Bond Order analysis for root number:  1
 
++    Natural Bond Order analysis
      ---------------------------
      Based on LoProp computed density
      -------------------------------------------------------------------------------------
      Atom A       Atom B       Bond Order
      -------------------------------------------------------------------------------------
      NBO located      1.000 non-bonded electrons on atom C1        
      The remaining    6.606 electrons are to be considered as diffuse
--
 
--
 
 
      Input file to MOLDEN was generated!
 
 
      Input file to MOLDEN was generated!
 
      Average orbitals are written to the RASORB file
      Natural orbitals for root   1 are written to the RASORB.1 file
      Spin density orbitals for root   1 are written to the SPDORB.1 file
 
--- Stop Module: rasscf at Thu Apr 25 13:48:14 2024 /rc=_RC_ALL_IS_WELL_ ---
*** files: 2.10.LprOrb 2.10.rasscf.molden 2.10.rasscf.molden.1 2.10.LoProp.molden 2.10.RasOrb.1 2.10.RasOrb 2.10.rasscf.h5 2.10.SpdOrb.1 xmldump
    saved to directory /home/grierjones/DDCASPT2/delta_ML/CF/2.10

*** symbolic link created: INPORB -> 2.10.RasOrb
--- Start Module: caspt2 at Thu Apr 25 13:48:14 2024 ---
 
()()()()()()()()()()()()()()()()()()()()()()()()()()()()()()()()()()()()()()()()()()()()()()()()()()

                                              &CASPT2

                                   only a single process is used
                       available to each process: 2.0 GB of memory, 1 thread?
                                            pid: 104195
()()()()()()()()()()()()()()()()()()()()()()()()()()()()()()()()()()()()()()()()()()()()()()()()()()
 
 ###############################################################################
 ###############################################################################
 ###                                                                         ###
 ###                                                                         ###
 ###    WARNING: User changed nr of frozen orbitals.                         ###
 ###                                                                         ###
 ###                                                                         ###
 ###############################################################################
 ###############################################################################
 
++    Wave function specifications:
      -----------------------------
 
      Number of closed shell electrons          14
      Number of electrons in active shells       1
      Max number of holes in RAS1 space          0
      Max number of electrons in RAS3 space      0
      Number of inactive orbitals                7
      Number of active orbitals                  2
      Number of secondary orbitals               1
      Spin quantum number                      0.5
      State symmetry                             1
      Number of CSFs                             2
      Number of CASSCF root(s) available         1
      CASPT2 state passed to geometry opt.       1
      A file JOBMIX will be created
      This is a CASSCF or RASSCF reference function
--
 
++    Orbital specifications:
      -----------------------
 
      Symmetry species                           1
                                                 a
      Frozen orbitals                            0
      Inactive orbitals                          7
      Active orbitals                            2
      Secondary orbitals                         1
      Deleted orbitals                           0
      Number of basis functions                 10
--
 
++    CASPT2 specifications:
      ----------------------
 
      Type of calculation                        SS-CASPT2
      Fock operator                              state-specific
      IPEA shift                                 0.25
      Real shift                                 0.00
      Imaginary shift                            0.00
      The input orbitals will be transformed to quasi-canonical
--
 
--------------------------------------------------------------------------------
 Estimated memory requirements:
  POLY3 :                   250056
  RHS:                      250374
  SIGMA :                   250336
  PRPCTL:                        0
 Available workspace:    230392719
 
++ CASPT2 computation for group   1
 
********************************************************************************
 Multi-State initialization phase begins for group   1
--------------------------------------------------------------------------------
********************************************************************************
 Compute H0 matrices for state    1
--------------------------------------------------------------------------------
--------------------------------------------------------------------------------
 H0 matrices have been computed.
 
********************************************************************************
  CASPT2 EQUATION SOLUTION
--------------------------------------------------------------------------------
 
  Total nr of CASPT2 parameters:
   Before reduction:         368
   After  reduction:         267
 
 Variance of |WF0>:       0.0770189531
 
 The contributions to the second order correlation energy in atomic units.
-----------------------------------------------------------------------------------------------------------------------------
  IT.      VJTU        VJTI        ATVX        AIVX        VJAI        BVAT        BJAT        BJAI        TOTAL       RNORM  
-----------------------------------------------------------------------------------------------------------------------------
   1    -0.000015   -0.009167   -0.000000   -0.000471   -0.007935    0.000000   -0.000000   -0.046748   -0.064336    0.000011
-----------------------------------------------------------------------------------------------------------------------------
 
  FINAL CASPT2 RESULT:
 
      Reference energy:        -137.1304621999
      E2 (Non-variational):      -0.0643368817
      E2 (Variational):          -0.0643368817
      Total energy:            -137.1947990816
      Residual norm:              0.0000000347
      Reference weight:           0.94341
 
      Contributions to the CASPT2 correlation energy
      Active & Virtual Only:         -0.0000000000
      One Inactive Excited:          -0.0004860503
      Two Inactive Excited:          -0.0638508314
 
 
++ Denominators, etc.
--------------------------------------------------------------------------------------------------------------
 Report on small energy denominators, large coefficients, and large energy contributions.
CASE  SYMM ACTIVE-MIX  NON-ACTIVE INDICES          DENOMINATOR     RHS VALUE       COEFFICIENT     CONTRIBUTION
VJTIP    1  Mu1.0002  In1.004 In1.004               1.62493330     -0.11407378      0.07020213     -0.00800822
VJAIP    1  Mu1.0001  Se1.010 In1.007 In1.005       0.90109005      0.02420962     -0.02667243     -0.00064573
VJAIP    1  Mu1.0002  Se1.010 In1.007 In1.006       0.99882126     -0.04165337      0.04170253     -0.00173705
VJAIM    1  Mu1.0001  Se1.010 In1.007 In1.005       0.90109005      0.03639425     -0.04046645     -0.00147275
VJAIM    1  Mu1.0002  Se1.010 In1.007 In1.006       0.99882126     -0.06241904      0.06249270     -0.00390073
BJAIP    1  Se1.010 In1.004 Se1.010 In1.004         1.69412053      0.08490050     -0.05011479     -0.00425477
BJAIP    1  Se1.010 In1.007 Se1.010 In1.007         0.95764087      0.19573131     -0.20438905     -0.04000534
--
 
   (Skipping property calculation,
    use PROP keyword to activate)
--
 
  Total CASPT2 energies:
::    CASPT2 Root  1     Total energy:   -137.19479908
 
  A NEW JOBIPH FILE NAMED 'JOBMIX' IS PREPARED.
********************************************************************************
--- Stop Module: caspt2 at Thu Apr 25 13:48:14 2024 /rc=_RC_ALL_IS_WELL_ ---
*** files: xmldump
    saved to directory /home/grierjones/DDCASPT2/delta_ML/CF/2.10

.##################.
.# Happy landing! #.
.##################.

    Timing: Wall=2.65 User=1.72 System=0.25
************************************
*** WorkDir at /tmp/2.10 removed ***
************************************
