[Molden Format]
[N_Atoms]
                     2
[Atoms] (AU)
C1          1      6           0.00000000      0.00000000      0.00000000
F2          2      9           0.00000000      0.00000000      3.96842486
[Charge] (Mulliken)
  0.124002697305350     
 -0.124002697305386     
[GTO] (AU)
   1
   s  14
  5.055750100E+04  1.128874000E-04
  7.524785600E+03  5.295373000E-04
  1.694327600E+03  2.450038300E-03
  4.728227900E+02  1.005398470E-02
  1.517107500E+02  3.545398060E-02
  5.391874600E+01  1.044071086E-01
  2.065931100E+01  2.412894918E-01
  8.383976000E+00  3.834225483E-01
  3.577015000E+00  3.078514393E-01
  1.547118000E+00  6.872442990E-02
  6.130130000E-01  2.224445000E-04
  2.460680000E-01  1.976748900E-03
  9.908700000E-02  2.057859400E-03
  3.468000000E-02  4.182020000E-04
   s  14
  5.055750100E+04 -2.507420000E-05
  7.524785600E+03 -1.175945000E-04
  1.694327600E+03 -5.456275000E-04
  4.728227900E+02 -2.245077100E-03
  1.517107500E+02 -8.043471800E-03
  5.391874600E+01 -2.442588710E-02
  2.065931100E+01 -6.136791180E-02
  8.383976000E+00 -1.177767835E-01
  3.577015000E+00 -1.550487783E-01
  1.547118000E+00 -1.933316860E-02
  6.130130000E-01  3.996930678E-01
  2.460680000E-01  5.589420949E-01
  9.908700000E-02  1.711195023E-01
  3.468000000E-02  7.456244600E-03
   p   9
  8.333315500E+01  1.344656000E-03
  1.955761100E+01  1.023555500E-02
  6.080365000E+00  4.520067100E-02
  2.179317000E+00  1.410756198E-01
  8.651500000E-01  3.047388085E-01
  3.619440000E-01  3.995281011E-01
  1.547400000E-01  2.719163432E-01
  6.542900000E-02  5.857669330E-02
  2.290000000E-02 -1.263813000E-04
 
   2
   s  14
  1.031094600E+05  1.713099991E-04
  1.528100700E+04  7.123999962E-04
  3.441539200E+03  2.990479984E-03
  9.670948300E+02  1.164036994E-02
  3.140353400E+02  3.968642979E-02
  1.134423000E+02  1.128546094E-01
  4.464472700E+01  2.473650687E-01
  1.894287400E+01  3.672702681E-01
  8.532743000E+00  2.896286985E-01
  3.919401000E+00  7.786681959E-02
  1.568157000E+00  4.562139976E-03
  6.232900000E-01  2.468879987E-03
  2.408610000E-01  1.106309994E-03
  8.430100000E-02  1.739699991E-04
   s  14
  1.031094600E+05 -4.044999995E-05
  1.528100700E+04 -1.682299998E-04
  3.441539200E+03 -7.084299991E-04
  9.670948300E+02 -2.767999996E-03
  3.140353400E+02 -9.611379987E-03
  1.134423000E+02 -2.833957996E-02
  4.464472700E+01 -6.839343991E-02
  1.894287400E+01 -1.237379298E-01
  8.532743000E+00 -1.512859698E-01
  3.919401000E+00 -9.099909988E-03
  1.568157000E+00  3.716257695E-01
  6.232900000E-01  5.500214393E-01
  2.408610000E-01  2.092318697E-01
  8.430100000E-02  8.074639989E-03
   p   9
  2.453302900E+02  1.024860004E-03
  5.691900500E+01  8.344290032E-03
  1.760456800E+01  4.078927016E-02
  6.274995000E+00  1.351370605E-01
  2.447030000E+00  2.798830811E-01
  9.950600000E-01  3.597966414E-01
  4.039730000E-01  3.055347412E-01
  1.548100000E-01  1.354703905E-01
  5.418400000E-02  2.804449011E-02
 
[MO]
Sym=     1a  
Ene=   -26.3180
Spin= Alpha
Occup=    1.00000
   1        -0.00000605
   2        -0.00006209
   3         0.00000000
   4         0.00000000
   5        -0.00004061
   6         0.99999293
   7        -0.00395461
   8         0.00000000
   9         0.00000000
  10        -0.00013654
Sym=     1a  
Ene=   -26.3550
Spin= Beta
Occup=    1.00000
   1        -0.00001169
   2        -0.00014855
   3         0.00000000
   4         0.00000000
   5        -0.00016453
   6         0.99999974
   7        -0.00238989
   8         0.00000000
   9        -0.00000000
  10        -0.00018872
Sym=     2a  
Ene=   -11.3330
Spin= Alpha
Occup=    1.00000
   1         1.00000328
   2        -0.00028792
   3         0.00000000
   4        -0.00000000
   5         0.00034194
   6        -0.00005329
   7        -0.00045665
   8         0.00000000
   9        -0.00000000
  10         0.00021496
Sym=     2a  
Ene=   -11.2910
Spin= Beta
Occup=    1.00000
   1         0.99998860
   2        -0.00500638
   3         0.00000000
   4         0.00000000
   5         0.00031266
   6        -0.00002816
   7        -0.00022106
   8        -0.00000000
   9        -0.00000000
  10         0.00007157
Sym=     3a  
Ene=    -1.4713
Spin= Alpha
Occup=    1.00000
   1        -0.00185207
   2         0.03829235
   3        -0.00000000
   4         0.00000000
   5         0.03127524
   6         0.00339759
   7         0.99166756
   8        -0.00000000
   9         0.00000000
  10         0.00403324
Sym=     3a  
Ene=    -1.6202
Spin= Beta
Occup=    1.00000
   1        -0.00197030
   2         0.00978181
   3        -0.00000000
   4         0.00000000
   5         0.00646411
   6         0.00229564
   7         0.99803560
   8        -0.00000000
   9         0.00000000
  10        -0.02135755
Sym=     4a  
Ene=    -0.8274
Spin= Alpha
Occup=    1.00000
   1        -0.00031087
   2         0.98849696
   3        -0.00000000
   4        -0.00000000
   5        -0.00591131
   6        -0.00498847
   7        -0.11043086
   8        -0.00000000
   9        -0.00000000
  10        -0.07893763
Sym=     4a  
Ene=    -0.7838
Spin= Beta
Occup=    1.00000
   1         0.00883343
   2        -0.20984145
   3        -0.00000000
   4        -0.00000000
   5        -0.03427482
   6         0.00162621
   7         0.04570039
   8         0.00000000
   9         0.00000000
  10         0.94448871
Sym=     5a  
Ene=    -0.6501
Spin= Alpha
Occup=    1.00000
   1         0.00000000
   2         0.00000000
   3         0.01751852
   4         0.08004849
   5        -0.00000000
   6         0.00000000
   7        -0.00000000
   8         0.21199322
   9         0.96867418
  10         0.00000000
Sym=     5a  
Ene=    -0.6861
Spin= Beta
Occup=    1.00000
   1         0.00000000
   2         0.00000000
   3         0.01334389
   4        -0.00292030
   5        -0.00000000
   6        -0.00000000
   7         0.00000000
   8         0.97596675
   9        -0.21358919
  10         0.00000000
Sym=     6a  
Ene=    -0.6473
Spin= Alpha
Occup=    1.00000
   1         0.00000000
   2         0.00000000
   3         0.02353406
   4        -0.00515040
   5        -0.00000000
   6         0.00000000
   7         0.00000000
   8         0.97514714
   9        -0.21340982
  10         0.00000000
Sym=     6a  
Ene=    -0.6846
Spin= Beta
Occup=    1.00000
   1        -0.00000000
   2         0.00000000
   3         0.00225647
   4         0.01031063
   5        -0.00000000
   6        -0.00000000
   7        -0.00000000
   8         0.21363811
   9         0.97619026
  10        -0.00000000
Sym=     7a  
Ene=    -0.4449
Spin= Alpha
Occup=    1.00000
   1         0.00000000
   2         0.00000000
   3         0.21347853
   4         0.97546107
   5        -0.00000000
   6         0.00000000
   7         0.00000000
   8        -0.03064072
   9        -0.14000858
  10         0.00000000
Sym=     7a  
Ene=    -0.5845
Spin= Beta
Occup=    1.00000
   1        -0.00864436
   2        -0.98925176
   3         0.00000000
   4         0.00000000
   5         0.02242710
   6         0.00452664
   7         0.07537812
   8         0.00000000
   9         0.00000000
  10        -0.33412080
Sym=     8a  
Ene=    -0.4384
Spin= Alpha
Occup=    1.00000
   1        -0.00313655
   2        -0.05798959
   3         0.00000000
   4         0.00000000
   5         0.92290020
   6        -0.01087079
   7        -0.14917397
   8        -0.00000000
   9        -0.00000000
  10        -0.28771676
Sym=     8a  
Ene=     0.1258
Spin= Beta
Occup=    0.00000
   1        -0.00000000
   2         0.00000000
   3         0.97864907
   4        -0.21417622
   5        -0.00000000
   6         0.00000000
   7         0.00000000
   8        -0.07362722
   9         0.01611323
  10        -0.00000000
Sym=     9a  
Ene=     0.0699
Spin= Alpha
Occup=    0.00000
   1         0.00000000
   2         0.00000000
   3         0.97845706
   4        -0.21413419
   5        -0.00000000
   6         0.00000000
   7         0.00000000
   8        -0.08378618
   9         0.01833651
  10         0.00000000
Sym=     9a  
Ene=     0.1880
Spin= Beta
Occup=    0.00000
   1        -0.00000000
   2        -0.00000000
   3         0.21418424
   4         0.97868573
   5        -0.00000000
   6         0.00000000
   7         0.00000000
   8        -0.01545116
   9        -0.07060198
  10        -0.00000000
Sym=    10a  
Ene=     0.1258
Spin= Alpha
Occup=    0.00000
   1         0.01092408
   2         0.20736163
   3        -0.00000000
   4         0.00000000
   5         0.43853472
   6        -0.00620425
   7        -0.09078272
   8        -0.00000000
   9        -0.00000000
  10         0.97716278
Sym=    10a  
Ene=     0.2057
Spin= Beta
Occup=    0.00000
   1        -0.00232850
   2        -0.04670140
   3        -0.00000000
   4        -0.00000000
   5        -1.02144556
   6         0.01229081
   7         0.14919297
   8         0.00000000
   9         0.00000000
  10        -0.19930806
