   This run of MOLCAS is using the pymolcas driver

                             OPE
                             OPE          NMOL  CASOP  ENMOLC A   SO
                 OPE        NMOLC        AS  OP EN  MO LC     AS  OP
                OPENM       OL CA        SO  PE NM  OL CA     SOP EN
                OP EN      MO   LC       AS  OP ENMOL  CASO   PENMOL
                OP  EN     MO   LC       AS  OP EN     MO     LC ASO
               OP   E  NMOL  C  AS       OP  EN MO     LC     AS  OP
               OP  E   NMO   LC AS        OPEN  MO     LCASOP EN   M
               O  PEN   MO  LCA  SO
            OPE   NMO   L   CAS    OP
        OPENMOL  CASOP     ENMOL   CASOPE
     OPENMOLCA   SOPENMOLCASOPEN   MOLCASOPE
    OPENMOLCAS   OP           EN   MOL    CAS
    OPENMOLCAS       OP  ENM        O     LCA
    OPENMOLCAS    OPEN  MOLCASO     P  E  NMO
    OPENMOLCAS     OP               E  N  MOL
    OPENMOLCA   SO           PENM   O  L  CAS    OPEN    MO    LCAS
    OPENMOLCA   SOP           ENM   O  L  CAS   OP  EN  MOLC  AS   O
    OPENMOLCA   SOPE           NM      O  LCA   S      OP  EN MO
    OPENMOLC                AS         O  PEN   M      OL  CA  SOPE
    OPENMO        LCASOPE  NMOL        C  ASO   P      ENMOLC     AS
    OPE     NMO      LCA  SO     P     E   NM   OL  CA SO  PE N   MO
          OPENMOLCA            SOPE   NMO        LCAS  O    P  ENMO
     OPENMOLCASOPENMOLCASOPENMOLCASOPENMOLCA
        OPENMOLCASOPENMOLCASOPENMOLCASOPE
            OPENMOLCASOPENMOLCASOPENM
               OPENMOLCASOPENMOLCA        version: 44d3b5344-dirty
                   OPENMOLCASO
                       OPE                tag:

 OpenMolcas is free software; you can redistribute it and/or modify it
 under the terms of the GNU Lesser General Public License version 2.1.
 OpenMolcas is distributed in the hope that it will be useful, but it
 is provided "as is" and without any express or implied warranties.
 For more details see the full text of the license in the file
 LICENSE or in <http://www.gnu.org/licenses/>.

                 Copyright (C) The OpenMolcas Authors
           For the author list and the recommended citation,
                   consult the file CONTRIBUTORS.md

           *************************************************
           * pymolcas version py2.28                       *
           *   build c4a6d18ded8cb6cad61d2372a9abd97c      *
           *   (after the EMIL interpreter by V. Veryazov) *
           *************************************************

configuration info
------------------
C Compiler ID: Intel
C flags: -std=gnu99
Fortran Compiler ID: Intel
Fortran flags: -fpp -i8 -r8 -heap-arrays
Definitions: _MOLCAS_;_I8_;_LINUX_
Parallel: OFF (GA=OFF)


   ------------------------------------------------------------------------------------------------------------
  |
  |              Project: H12_1.28
  |       Submitted from: /home/grierjones/DDCASPT2/hydrogen_comps/minimal_2e_2o/chains/even/H12_chain/H12_1.28
  |         Scratch area: /tmp/H12_1.28
  |      Save outputs to: /home/grierjones/DDCASPT2/hydrogen_comps/minimal_2e_2o/chains/even/H12_chain/H12_1.28
  |               Molcas: /home/grierjones/Test/build
  |
  | Scratch area is empty
  |
  |       MOLCAS_DRIVER = /usr/local/pymolcas
  | MOLCAS_KEEP_WORKDIR = NO
  |  MOLCAS_NEW_WORKDIR = YES
  |       MOLCAS_NPROCS = 1
  |       MOLCAS_SOURCE = /home/grierjones/Test/build
  |    MOLCAS_STRUCTURE = 0
  |
   ------------------------------------------------------------------------------------------------------------

++ ---------   Input file   ---------

&GATEWAY
coord=H12_1.28.xyz
Basis = ANO-RCC-VDZP
Group = nosymm
Expert
End of Input

&SEWARD
End of Input

&MOTRA
Frozen=0

>>> COPY $WorkDir/GMJ_one_int_indx.csv $CurrDir/H12_1.28.GMJ_one_int_indx.csv

>>> COPY $WorkDir/GMJ_one_int.csv $CurrDir/H12_1.28.GMJ_one_int.csv

>>> COPY $WorkDir/GMJ_two_int_indx.csv $CurrDir/H12_1.28.GMJ_two_int_indx.csv

>>> COPY $WorkDir/GMJ_two_int.csv $CurrDir/H12_1.28.GMJ_two_int.csv

&SCF

>>> COPY $WorkDir/H12_1.28.scf.h5 $CurrDir/

&RASSCF
Title= RASSCF
FileOrb
/home/grierjones/DDCASPT2/hydrogen_comps/minimal_2e_2o/chains/even/H12_chain/H12_1.25/H12_1.25.RasOrb

NACTEL
12 0 0
Inactive
0
RAS2
12
Symmetry
1
Spin
1
orblisting
all
ITERation
200 100
CIMX
200
SDAV
500

>>> COPY $WorkDir/H12_1.28.rasscf.h5 $CurrDir/

>>> COPY $WorkDir/GMJ_Fock_MO.csv $CurrDir/H12_1.28.GMJ_Fock_MO.csv

&CASPT2
Frozen
0
Imaginary Shift
0.0

>>> FOREACH i IN (B,E,F,G,H)

  >>> FOREACH j IN (P,M)

    >>> IF (-FILE GMJ_e2_${i}_${j}.csv)

      >>> COPY $WorkDir/GMJ_RHS_${i}_${j}.csv $CurrDir/GMJ_RHS_${i}_${j}.csv

      >>> COPY $WorkDir/GMJ_IVECW_${i}_${j}.csv $CurrDir/GMJ_IVECW_${i}_${j}.csv

      >>> COPY $WorkDir/GMJ_e2_${i}_${j}.csv $CurrDir/GMJ_e2_${i}_${j}.csv

    >>> END IF

  >>> END FOREACH

>>> END FOREACH

>>> FOREACH i IN (A,C,D)

  >>> IF (-FILE GMJ_e2_$i.csv)

    >>> COPY $WorkDir/GMJ_RHS_$i.csv $CurrDir/GMJ_RHS_$i.csv

    >>> COPY $WorkDir/GMJ_IVECW_$i.csv $CurrDir/GMJ_IVECW_$i.csv

    >>> COPY $WorkDir/GMJ_e2_$i.csv $CurrDir/GMJ_e2_$i.csv

  >>> END IF

>>> END FOREACH

-- ----------------------------------

--- Start Module: gateway at Thu Oct 17 12:36:22 2024 ---
 
()()()()()()()()()()()()()()()()()()()()()()()()()()()()()()()()()()()()()()()()()()()()()()()()()()

                                              &GATEWAY

                                   only a single process is used
                       available to each process: 2.0 GB of memory, 1 thread?
()()()()()()()()()()()()()()()()()()()()()()()()()()()()()()()()()()()()()()()()()()()()()()()()()()
 
 ###############################################################################
 ###############################################################################
 ###                                                                         ###
 ###                                                                         ###
 ###                                                                         ###
 ###    WARNING: EXPERT option is ON!                                        ###
 ###                                                                         ###
 ###                                                                         ###
 ###############################################################################
 ###############################################################################
 
++    Symmetry information:
      ---------------------
 
                    Character Table for C1 
 
                             E  
                    a        1  x, y, xy, Rz, z, xz, Ry, yz, Rx, I
--
 
 
++    Basis set information:
      ----------------------
 
 
      Basis set label: H.ANO-RCC...2S1P.
 
      Electronic valence basis set:
      ------------------
      Associated Effective Charge   1.000000 au
      Associated Actual Charge      1.000000 au
      Nuclear Model: Point charge
 
      Shell  nPrim  nBasis  Cartesian Spherical Contaminant
         s       8       2        X                  
         p       4       1        X                  
--
 
 
++    Molecular structure info:
      -------------------------
 
                    ************************************************ 
                    **** Cartesian Coordinates / Bohr, Angstrom **** 
                    ************************************************ 
 
     Center  Label                x              y              z                     x              y              z
        1      H1               0.000000       0.000000       0.000000              0.000000       0.000000       0.000000
        2      H2               0.000000       0.000000       2.416559              0.000000       0.000000       1.278788
        3      H3               0.000000       0.000000       4.833118              0.000000       0.000000       2.557576
        4      H4               0.000000       0.000000       7.249677              0.000000       0.000000       3.836364
        5      H5               0.000000       0.000000       9.666236              0.000000       0.000000       5.115152
        6      H6               0.000000       0.000000      12.082794              0.000000       0.000000       6.393939
        7      H7               0.000000       0.000000      14.499353              0.000000       0.000000       7.672727
        8      H8               0.000000       0.000000      16.915912              0.000000       0.000000       8.951515
        9      H9               0.000000       0.000000      19.332471              0.000000       0.000000      10.230303
       10      H10              0.000000       0.000000      21.749030              0.000000       0.000000      11.509091
       11      H11              0.000000       0.000000      24.165589              0.000000       0.000000      12.787879
       12      H12              0.000000       0.000000      26.582148              0.000000       0.000000      14.066667
 
                    *************************************** 
                    *    InterNuclear Distances / Bohr    * 
                    *************************************** 
 
               1 H1            2 H2            3 H3            4 H4            5 H5            6 H6    
    1 H1       0.000000
    2 H2       2.416559        0.000000
    3 H3       4.833118        2.416559        0.000000
    4 H4       7.249677        4.833118        2.416559        0.000000
    5 H5       9.666236        7.249677        4.833118        2.416559        0.000000
    6 H6      12.082794        9.666234        7.249675        4.833116        2.416557        0.000000
    7 H7      14.499353       12.082794        9.666234        7.249675        4.833116        2.416559
    8 H8      16.915912       14.499353       12.082794        9.666234        7.249675        4.833118
    9 H9      19.332471       16.915912       14.499353       12.082794        9.666234        7.249677
   10 H10     21.749030       19.332471       16.915912       14.499353       12.082794        9.666236
   11 H11     24.165589       21.749030       19.332471       16.915912       14.499353       12.082795
   12 H12     26.582148       24.165589       21.749030       19.332471       16.915912       14.499355
 
               7 H7            8 H8            9 H9           10 H10          11 H11          12 H12   
    7 H7       0.000000
    8 H8       2.416559        0.000000
    9 H9       4.833118        2.416559        0.000000
   10 H10      7.249677        4.833118        2.416559        0.000000
   11 H11      9.666236        7.249677        4.833118        2.416559        0.000000
   12 H12     12.082795        9.666236        7.249677        4.833118        2.416559        0.000000
 
                    ******************************************* 
                    *    InterNuclear Distances / Angstrom    * 
                    ******************************************* 
 
               1 H1            2 H2            3 H3            4 H4            5 H5            6 H6    
    1 H1       0.000000
    2 H2       1.278788        0.000000
    3 H3       2.557576        1.278788        0.000000
    4 H4       3.836364        2.557576        1.278788        0.000000
    5 H5       5.115152        3.836364        2.557576        1.278788        0.000000
    6 H6       6.393939        5.115151        3.836363        2.557575        1.278787        0.000000
    7 H7       7.672727        6.393939        5.115151        3.836363        2.557575        1.278788
    8 H8       8.951515        7.672727        6.393939        5.115151        3.836363        2.557576
    9 H9      10.230303        8.951515        7.672727        6.393939        5.115151        3.836364
   10 H10     11.509091       10.230303        8.951515        7.672727        6.393939        5.115152
   11 H11     12.787879       11.509091       10.230303        8.951515        7.672727        6.393940
   12 H12     14.066667       12.787879       11.509091       10.230303        8.951515        7.672728
 
               7 H7            8 H8            9 H9           10 H10          11 H11          12 H12   
    7 H7       0.000000
    8 H8       1.278788        0.000000
    9 H9       2.557576        1.278788        0.000000
   10 H10      3.836364        2.557576        1.278788        0.000000
   11 H11      5.115152        3.836364        2.557576        1.278788        0.000000
   12 H12      6.393940        5.115152        3.836364        2.557576        1.278788        0.000000
 
                    ************************************** 
                    *    Valence Bond Angles / Degree    * 
                    ************************************** 
                          Atom centers                 Phi
                      1 H1       2 H2       3 H3       180.00
                      2 H2       3 H3       4 H4       180.00
                      3 H3       4 H4       5 H5       180.00
                      4 H4       5 H5       6 H6       180.00
                      5 H5       6 H6       7 H7       180.00
                      6 H6       7 H7       8 H8       180.00
                      7 H7       8 H8       9 H9       180.00
                      8 H8       9 H9      10 H10      180.00
                      9 H9      10 H10     11 H11      180.00
                     10 H10     11 H11     12 H12      180.00
--
 
 
            Nuclear Potential Energy             10.44399464 au
 
 ###############################################################################
 ###############################################################################
 ###                                                                         ###
 ###                                                                         ###
 ###    There were warnings during the execution                             ###
 ###    Please, check the output with care!                                  ###
 ###                                                                         ###
 ###                                                                         ###
 ###############################################################################
 ###############################################################################
--- Stop Module: gateway at Thu Oct 17 12:36:22 2024 /rc=_RC_ALL_IS_WELL_ ---
*** files: xmldump
    saved to directory /home/grierjones/DDCASPT2/hydrogen_comps/minimal_2e_2o/chains/even/H12_chain/H12_1.28

--- Start Module: seward at Thu Oct 17 12:36:22 2024 ---
 
()()()()()()()()()()()()()()()()()()()()()()()()()()()()()()()()()()()()()()()()()()()()()()()()()()

                                              &SEWARD

                                   only a single process is used
                       available to each process: 2.0 GB of memory, 1 thread?
()()()()()()()()()()()()()()()()()()()()()()()()()()()()()()()()()()()()()()()()()()()()()()()()()()
 
 ###############################################################################
 ###############################################################################
 ###                                                                         ###
 ###                                                                         ###
 ###                                                                         ###
 ###    WARNING: EXPERT option is ON!                                        ###
 ###                                                                         ###
 ###                                                                         ###
 ###############################################################################
 ###############################################################################
               SEWARD will generate:
                  Multipole Moment integrals up to order  2
                  Kinetic Energy integrals
                  Nuclear Attraction integrals (point charge)
                  One-Electron Hamiltonian integrals
                  Velocity integrals
                  Relativistic Douglas-Kroll-Hess integrals:
                    - Parametrization         : EXP
                    - DKH order of Hamiltonian: 2
                    - DKH order of Properties : 0
                         - multipole moment operators
                         - electric potential operators
                         - contact operators
                  Atomic mean-field integrals
                  Two-Electron Repulsion integrals
 
                   Integrals are discarded if absolute value <: 0.10E-13
                   Integral cutoff threshold is set to       <: 0.10E-15
 
            Nuclear Potential Energy             10.44399464 au
 
 
      Basis set specifications :
      Symmetry species         a  
      Basis functions           60
 
 
  Input file to MOLDEN was generated!
 
 ###############################################################################
 ###############################################################################
 ###                                                                         ###
 ###                                                                         ###
 ###    There were warnings during the execution                             ###
 ###    Please, check the output with care!                                  ###
 ###                                                                         ###
 ###                                                                         ###
 ###############################################################################
 ###############################################################################
--- Stop Module: seward at Thu Oct 17 12:36:23 2024 /rc=_RC_ALL_IS_WELL_ ---
*** files: H12_1.28.GssOrb H12_1.28.guessorb.h5 H12_1.28.guessorb.molden xmldump
    saved to directory /home/grierjones/DDCASPT2/hydrogen_comps/minimal_2e_2o/chains/even/H12_chain/H12_1.28
--- Module seward spent 1 second ---

*** symbolic link created: INPORB -> H12_1.28.GssOrb
--- Start Module: motra at Thu Oct 17 12:36:23 2024 ---
 
()()()()()()()()()()()()()()()()()()()()()()()()()()()()()()()()()()()()()()()()()()()()()()()()()()

                                               &MOTRA

                                   only a single process is used
                       available to each process: 2.0 GB of memory, 1 thread?
()()()()()()()()()()()()()()()()()()()()()()()()()()()()()()()()()()()()()()()()()()()()()()()()()()
 
 
      *** WARNING: Default frozen orbitals is overwritten by user input.
      *** Default values:   0
 
      Header of the integral files:
      
       Integrals generated by seward 4.2.0  , Thu Oct 17 12:36:22 2024
 
 
      Header of MO coefficients source file:
      *Guess orbitals                                                                 
 
 
      Cartesian coordinates in Angstrom:
      -----------------------------------------------------
      No.  Label        X            Y            Z        
      -----------------------------------------------------
       1   H1         0.00000000   0.00000000   0.00000000
       2   H2         0.00000000   0.00000000   1.27878800
       3   H3         0.00000000   0.00000000   2.55757600
       4   H4         0.00000000   0.00000000   3.83636400
       5   H5         0.00000000   0.00000000   5.11515200
       6   H6         0.00000000   0.00000000   6.39393900
       7   H7         0.00000000   0.00000000   7.67272700
       8   H8         0.00000000   0.00000000   8.95151500
       9   H9         0.00000000   0.00000000  10.23030300
      10   H10        0.00000000   0.00000000  11.50909100
      11   H11        0.00000000   0.00000000  12.78787900
      12   H12        0.00000000   0.00000000  14.06666700
      -----------------------------------------------------
      Nuclear repulsion energy =   10.44399464
 
      Orbital specifications:
      -----------------------
 
      Symmetry species:              1
      Number of basis functions:    60
      Frozen orbitals:               0
      Deleted orbitals:              0
      Number of orbitals used:      60

       SYMMETRY  BASIS FUNCTIONS       ORBITALS      INTEGRALS   CPU(SEC)  I/O(SEC)
 
        1 1 1 1   60  60  60  60    60  60  60  60     1675365       0.00      0.00

       TOTAL CPU TIME(SEC)   17.22TOTAL I/O TIME(SEC)   27.02
 
--- Stop Module: motra at Thu Oct 17 12:36:50 2024 /rc=_RC_ALL_IS_WELL_ ---
*** files: xmldump
    saved to directory /home/grierjones/DDCASPT2/hydrogen_comps/minimal_2e_2o/chains/even/H12_chain/H12_1.28
--- Module motra spent 27 seconds ---

>>> COPY /tmp/H12_1.28/GMJ_one_int_indx.csv /home/grierjones/DDCASPT2/hydrogen_comps/minimal_2e_2o/chains/even/H12_chain/H12_1.28/H12_1.28.GMJ_one_int_indx.csv

>>> COPY /tmp/H12_1.28/GMJ_one_int.csv /home/grierjones/DDCASPT2/hydrogen_comps/minimal_2e_2o/chains/even/H12_chain/H12_1.28/H12_1.28.GMJ_one_int.csv

>>> COPY /tmp/H12_1.28/GMJ_two_int_indx.csv /home/grierjones/DDCASPT2/hydrogen_comps/minimal_2e_2o/chains/even/H12_chain/H12_1.28/H12_1.28.GMJ_two_int_indx.csv

>>> COPY /tmp/H12_1.28/GMJ_two_int.csv /home/grierjones/DDCASPT2/hydrogen_comps/minimal_2e_2o/chains/even/H12_chain/H12_1.28/H12_1.28.GMJ_two_int.csv

*** symbolic link created: INPORB -> H12_1.28.GssOrb
--- Start Module: scf at Thu Oct 17 12:36:51 2024 ---
 
()()()()()()()()()()()()()()()()()()()()()()()()()()()()()()()()()()()()()()()()()()()()()()()()()()

                                                &SCF

                                   only a single process is used
                       available to each process: 2.0 GB of memory, 1 thread?
()()()()()()()()()()()()()()()()()()()()()()()()()()()()()()()()()()()()()()()()()()()()()()()()()()
 
++    Input section:
      --------------
 
      Header of the integral files:
      
       Integrals generated by seward 4.2.0  , Thu Oct 17 12:36:22 2024
 
 
      Cartesian coordinates in Angstrom:
      -----------------------------------------------------
      No.  Label        X            Y            Z        
      -----------------------------------------------------
       1   H1         0.00000000   0.00000000   0.00000000
       2   H2         0.00000000   0.00000000   1.27878800
       3   H3         0.00000000   0.00000000   2.55757600
       4   H4         0.00000000   0.00000000   3.83636400
       5   H5         0.00000000   0.00000000   5.11515200
       6   H6         0.00000000   0.00000000   6.39393900
       7   H7         0.00000000   0.00000000   7.67272700
       8   H8         0.00000000   0.00000000   8.95151500
       9   H9         0.00000000   0.00000000  10.23030300
      10   H10        0.00000000   0.00000000  11.50909100
      11   H11        0.00000000   0.00000000  12.78787900
      12   H12        0.00000000   0.00000000  14.06666700
      -----------------------------------------------------
      Nuclear repulsion energy =   10.44399464
--
 
++    Orbital specifications:
      -----------------------
 
      Symmetry species               1
                                     a
      Frozen orbitals                0
      Occupied orbitals              6
      Secondary orbitals            54
      Deleted orbitals               0
      Total number of orbitals      60
      Number of basis functions     60
--
 
      Molecular charge                           0.000
 
++    Optimization specifications:
      ----------------------------
 
      SCF Algorithm: Conventional
      Minimized density differences are used
      Number of density matrices in core                5
      Maximum number of NDDO SCF iterations           400
      Maximum number of HF SCF iterations             400
      Threshold for SCF energy change            0.10E-08
      Threshold for density matrix               0.10E-03
      Threshold for Fock matrix                  0.15E-03
      Threshold for linear dependence            0.10E-08
      Threshold at which DIIS is turned on       0.15E+00
      Threshold at which QNR/C2DIIS is turned on 0.75E-01
      Threshold for Norm(delta) (QNR/C2DIIS)     0.20E-04
      DIIS extrapolation of the SCF procedure
      All orbitals punched on: SCFORB
--
 
      Input vectors read from INPORB
      Orbital file label: *Guess orbitals
 
 
++ Convergence information
                                   SCF        iterations: Energy and convergence statistics
 
Iter     Tot. SCF        One-elec.       Two-elec.     Energy      Max Dij or  Max Fij      DNorm      TNorm      AccCon     Time
         Energy          Energy          Energy        Change      Delta Norm                                                in Sec.
   1    -6.132866664   -27.314886057    10.738024752   0.00E+00    0.24E+00*   0.14E+00*    0.44E+01   0.18E+02   None         0.
   2    -6.242647893   -27.438229841    10.751587307  -0.11E+00*   0.99E-01*   0.18E-01*    0.17E+01   0.18E+02   EDIIS        0.
   3    -6.248567629   -27.391256693    10.698694423  -0.59E-02*   0.43E-01*   0.78E-02*    0.36E+00   0.18E+02   EDIIS        0.
   4    -6.249896183   -27.392884106    10.698993282  -0.13E-02*   0.13E-01*   0.66E-02*    0.12E+00   0.18E+02   c2DIIS       0.
   5    -6.250451680   -27.389386405    10.694940083  -0.56E-03*   0.29E-02*   0.78E-03*    0.27E-01   0.18E+02   QNRc2DIIS    0.
   6    -6.250462899   -27.389806497    10.695348957  -0.11E-04*   0.29E-02*   0.32E-03*    0.77E-02   0.18E+02   QNRc2DIIS    0.
   7    -6.250466930   -27.389607681    10.695146110  -0.40E-05*   0.26E-03*   0.56E-04     0.16E-02   0.18E+02   QNRc2DIIS    0.
   8    -6.250466986   -27.389462577    10.695000950  -0.56E-07*   0.33E-04*   0.70E-05     0.32E-03   0.18E+02   QNRc2DIIS    0.
   9    -6.250466987   -27.389459945    10.694998317  -0.14E-08*   0.66E-05    0.20E-05     0.57E-04   0.18E+02   QNRc2DIIS    0.
  10    -6.250466987   -27.389460879    10.694999251  -0.53E-10    0.20E-05    0.38E-06     0.92E-05   0.18E+02   QNRc2DIIS    0.
 
       Convergence after 10 Macro Iterations
--
 
 *****************************************************************************************************************************
 *                                                                                                                           *
 *                                             SCF/KS-DFT Program, Final results                                             *
 *                                                                                                                           *
 *                                                                                                                           *
 *                                                                                                                           *
 *                                                       Final Results                                                       *
 *                                                                                                                           *
 *****************************************************************************************************************************
 
::    Total SCF energy                                 -6.2504669872
      One-electron energy                             -27.3894608791
      Two-electron energy                              10.6949992507
      Nuclear repulsion energy                         10.4439946412
      Kinetic energy (interpolated)                     5.0949294377
      Virial theorem                                    1.2268014825
      Total spin, S(S+1)                                0.0000000000
      Total spin, S                                     0.0000000000
      Max non-diagonal density matrix element           0.0000022116
      Max non-diagonal Fock matrix element              0.0000001469
 
 
      All orbitals with orbital energies smaller than  E(LUMO)+0.5 are printed
 
++    Molecular orbitals:
      -------------------
 
      Title: SCF orbitals

      Molecular orbitals for symmetry species 1: a  
 
          Orbital            1         2         3         4         5         6         7         8         9        10    
          Energy           -0.6114   -0.5871   -0.5470   -0.4914   -0.4209   -0.3419   -0.0733    0.0205    0.1193    0.2149
          Occ. No.          2.0000    2.0000    2.0000    2.0000    2.0000    2.0000    0.0000    0.0000    0.0000    0.0000
 
        1 H1     1s         0.0731   -0.1448    0.2119   -0.2709    0.3135   -0.2840    0.4186   -0.6143    0.6671   -0.4925
        2 H1     2s         0.0019   -0.0026    0.0032   -0.0085    0.0255   -0.0439    0.1676   -0.3202    0.4607   -0.5471
        3 H1     2px        0.0000   -0.0000    0.0000    0.0000   -0.0000   -0.0000   -0.0000    0.0000   -0.0000    0.0000
        4 H1     2py        0.0000   -0.0000   -0.0000    0.0000   -0.0000    0.0000    0.0000   -0.0000    0.0000   -0.0000
        5 H1     2pz        0.0066   -0.0121    0.0150   -0.0148    0.0117   -0.0067   -0.0016    0.0093   -0.0211    0.0357
        6 H2     1s         0.1138   -0.2173    0.2945   -0.3286    0.2992   -0.1831   -0.1497    0.4971   -0.8641    0.9478
        7 H2     2s        -0.0090    0.0084    0.0085   -0.0423    0.0754   -0.0691   -0.0501    0.2247   -0.4315    0.4378
        8 H2     2px        0.0000   -0.0000    0.0000   -0.0000    0.0000   -0.0000   -0.0000    0.0000   -0.0000    0.0000
        9 H2     2py       -0.0000   -0.0000    0.0000    0.0000   -0.0000    0.0000   -0.0000    0.0000   -0.0000   -0.0000
       10 H2     2pz        0.0036   -0.0039   -0.0015    0.0116   -0.0209    0.0209   -0.0200    0.0157    0.0058   -0.0380
       11 H3     1s         0.1919   -0.2828    0.2160   -0.0044   -0.2643    0.3851   -0.4790    0.3221    0.2668   -0.8031
       12 H3     2s         0.0006    0.0030   -0.0098    0.0254   -0.0649    0.1000   -0.1791    0.1288    0.1535   -0.5123
       13 H3     2px        0.0000   -0.0000    0.0000   -0.0000    0.0000   -0.0000   -0.0000    0.0000   -0.0000    0.0000
       14 H3     2py        0.0000   -0.0000    0.0000   -0.0000   -0.0000    0.0000   -0.0000    0.0000   -0.0000    0.0000
       15 H3     2pz        0.0062   -0.0040   -0.0072    0.0184   -0.0194    0.0101    0.0119   -0.0247    0.0270   -0.0123
       16 H4     1s         0.2219   -0.2790    0.1156    0.1628   -0.3479    0.2705    0.2778   -0.6083    0.4075    0.4280
       17 H4     2s        -0.0095   -0.0032    0.0227   -0.0059   -0.0561    0.0802    0.0965   -0.2655    0.2021    0.1797
       18 H4     2px        0.0000   -0.0000    0.0000   -0.0000    0.0000    0.0000   -0.0000    0.0000   -0.0000    0.0000
       19 H4     2py       -0.0000   -0.0000    0.0000   -0.0000    0.0000    0.0000   -0.0000    0.0000   -0.0000    0.0000
       20 H4     2pz        0.0016    0.0060   -0.0164    0.0130    0.0067   -0.0205    0.0231   -0.0084   -0.0192    0.0202
       21 H5     1s         0.2669   -0.1708   -0.1698    0.3013    0.0151   -0.3874    0.4666    0.0935   -0.7415    0.3071
       22 H5     2s        -0.0040    0.0132   -0.0205    0.0209    0.0229   -0.1026    0.1735    0.0466   -0.3580    0.1300
       23 H5     2px        0.0000   -0.0000    0.0000   -0.0000   -0.0000    0.0000   -0.0000    0.0000   -0.0000    0.0000
       24 H5     2py       -0.0000   -0.0000    0.0000   -0.0000   -0.0000   -0.0000   -0.0000    0.0000   -0.0000    0.0000
       25 H5     2pz        0.0043    0.0072   -0.0154   -0.0004    0.0198   -0.0157   -0.0177    0.0238    0.0015   -0.0372
       26 H6     1s         0.2779   -0.0950   -0.2598    0.1940    0.2319   -0.3492   -0.3945    0.4771    0.3762   -0.7540
       27 H6     2s        -0.0078   -0.0131    0.0016    0.0334    0.0246   -0.0977   -0.1434    0.2141    0.1839   -0.4026
       28 H6     2px       -0.0000   -0.0000   -0.0000    0.0000    0.0000    0.0000   -0.0000    0.0000   -0.0000    0.0000
       29 H6     2py       -0.0000   -0.0000    0.0000    0.0000    0.0000    0.0000    0.0000    0.0000   -0.0000    0.0000
       30 H6     2pz       -0.0015    0.0118   -0.0041   -0.0183    0.0089    0.0193   -0.0215   -0.0109    0.0273    0.0033
       31 H7     1s         0.2779    0.0950   -0.2598   -0.1940    0.2319    0.3492   -0.3945   -0.4771    0.3762    0.7540
       32 H7     2s        -0.0078    0.0131    0.0016   -0.0334    0.0246    0.0977   -0.1434   -0.2141    0.1839    0.4026
       33 H7     2px       -0.0000   -0.0000    0.0000   -0.0000    0.0000    0.0000    0.0000    0.0000   -0.0000   -0.0000
       34 H7     2py        0.0000   -0.0000    0.0000   -0.0000   -0.0000   -0.0000    0.0000   -0.0000   -0.0000   -0.0000
       35 H7     2pz        0.0015    0.0118    0.0041   -0.0183   -0.0089    0.0193    0.0215   -0.0109   -0.0273    0.0033
       36 H8     1s         0.2669    0.1708   -0.1698   -0.3013    0.0151    0.3874    0.4666   -0.0935   -0.7415   -0.3071
       37 H8     2s        -0.0040   -0.0132   -0.0205   -0.0209    0.0229    0.1026    0.1735   -0.0466   -0.3580   -0.1300
       38 H8     2px       -0.0000   -0.0000    0.0000    0.0000    0.0000    0.0000    0.0000   -0.0000    0.0000   -0.0000
       39 H8     2py       -0.0000    0.0000   -0.0000   -0.0000   -0.0000   -0.0000    0.0000   -0.0000    0.0000    0.0000
       40 H8     2pz       -0.0043    0.0072    0.0154   -0.0004   -0.0198   -0.0157    0.0177    0.0238   -0.0015   -0.0372
       41 H9     1s         0.2219    0.2790    0.1156   -0.1628   -0.3479   -0.2705    0.2778    0.6083    0.4075   -0.4280
       42 H9     2s        -0.0095    0.0032    0.0227    0.0059   -0.0561   -0.0802    0.0965    0.2655    0.2021   -0.1797
       43 H9     2px       -0.0000   -0.0000   -0.0000   -0.0000   -0.0000    0.0000    0.0000   -0.0000    0.0000   -0.0000
       44 H9     2py        0.0000    0.0000   -0.0000    0.0000   -0.0000    0.0000   -0.0000   -0.0000   -0.0000   -0.0000
       45 H9     2pz       -0.0016    0.0060    0.0164    0.0130   -0.0067   -0.0205   -0.0231   -0.0084    0.0192    0.0202
       46 H10    1s         0.1919    0.2828    0.2160    0.0044   -0.2643   -0.3851   -0.4790   -0.3221    0.2668    0.8031
       47 H10    2s         0.0006   -0.0030   -0.0098   -0.0254   -0.0649   -0.1000   -0.1791   -0.1288    0.1535    0.5123
       48 H10    2px        0.0000    0.0000    0.0000    0.0000    0.0000   -0.0000    0.0000    0.0000   -0.0000   -0.0000
       49 H10    2py       -0.0000   -0.0000    0.0000    0.0000   -0.0000   -0.0000    0.0000   -0.0000    0.0000   -0.0000
       50 H10    2pz       -0.0062   -0.0040    0.0072    0.0184    0.0194    0.0101   -0.0119   -0.0247   -0.0270   -0.0123
       51 H11    1s         0.1138    0.2173    0.2945    0.3286    0.2992    0.1831   -0.1497   -0.4971   -0.8641   -0.9478
       52 H11    2s        -0.0090   -0.0084    0.0085    0.0423    0.0754    0.0691   -0.0501   -0.2247   -0.4315   -0.4378
       53 H11    2px        0.0000    0.0000   -0.0000    0.0000   -0.0000   -0.0000   -0.0000   -0.0000    0.0000   -0.0000
       54 H11    2py        0.0000    0.0000   -0.0000   -0.0000   -0.0000   -0.0000   -0.0000    0.0000   -0.0000   -0.0000
       55 H11    2pz       -0.0036   -0.0039    0.0015    0.0116    0.0209    0.0209    0.0200    0.0157   -0.0058   -0.0380
       56 H12    1s         0.0731    0.1448    0.2119    0.2709    0.3135    0.2840    0.4186    0.6143    0.6671    0.4925
       57 H12    2s         0.0019    0.0026    0.0032    0.0085    0.0255    0.0439    0.1676    0.3202    0.4607    0.5471
       58 H12    2px       -0.0000   -0.0000    0.0000    0.0000    0.0000    0.0000   -0.0000    0.0000    0.0000   -0.0000
       59 H12    2py       -0.0000    0.0000    0.0000   -0.0000    0.0000    0.0000   -0.0000    0.0000    0.0000    0.0000
       60 H12    2pz       -0.0066   -0.0121   -0.0150   -0.0148   -0.0117   -0.0067    0.0016    0.0093    0.0211    0.0357
 
          Orbital           11        12        13        14        15    
          Energy            0.2333    0.2746    0.2962    0.3748    0.3974
          Occ. No.          0.0000    0.0000    0.0000    0.0000    0.0000
 
        1 H1     1s        -0.1256    0.4282    0.0949    0.5953    0.0788
        2 H1     2s         0.0834    0.0592    0.4727    0.2373   -0.4697
        3 H1     2px        0.0000   -0.0000    0.0000   -0.0000    0.0000
        4 H1     2py        0.0000   -0.0000   -0.0000    0.0000    0.0000
        5 H1     2pz       -0.0181    0.0127   -0.0310   -0.0146    0.0043
        6 H2     1s        -0.0452   -0.3891   -0.4172   -0.8767   -0.1170
        7 H2     2s         0.1297   -0.4652   -0.0793   -0.7595   -0.1480
        8 H2     2px        0.0000   -0.0000   -0.0000   -0.0000    0.0000
        9 H2     2py        0.0000   -0.0000   -0.0000    0.0000    0.0000
       10 H2     2pz       -0.0038    0.0135    0.0693    0.0319   -0.1113
       11 H3     1s        -0.0185    0.4343    0.6017    1.0579   -0.0676
       12 H3     2s         0.1970   -0.0552    0.4319    0.3770    0.0597
       13 H3     2px        0.0000   -0.0000   -0.0000   -0.0000    0.0000
       14 H3     2py        0.0000   -0.0000   -0.0000   -0.0000    0.0000
       15 H3     2pz       -0.0193    0.0127    0.0164   -0.0388   -0.0325
       16 H4     1s        -0.2639    0.0248   -0.7321   -0.9838    0.3625
       17 H4     2s         0.0968   -0.2524   -0.4531   -0.6189    0.5086
       18 H4     2px        0.0000   -0.0000    0.0000   -0.0000    0.0000
       19 H4     2py       -0.0000   -0.0000   -0.0000   -0.0000    0.0000
       20 H4     2pz       -0.0070   -0.0345    0.0401   -0.0644   -0.0540
       21 H5     1s         0.0300   -0.2004    0.6411    0.6935   -0.6339
       22 H5     2s         0.2768   -0.2970    0.1825    0.4977   -0.0508
       23 H5     2px        0.0000   -0.0000   -0.0000   -0.0000    0.0000
       24 H5     2py       -0.0000   -0.0000   -0.0000   -0.0000    0.0000
       25 H5     2pz       -0.0044   -0.0158    0.0434   -0.0205    0.0462
       26 H6     1s        -0.1894    0.4806   -0.1729   -0.2736    0.7797
       27 H6     2s         0.1721    0.1934   -0.3360    0.0859    0.5611
       28 H6     2px       -0.0000    0.0000    0.0000   -0.0000    0.0000
       29 H6     2py       -0.0000   -0.0000    0.0000   -0.0000    0.0000
       30 H6     2pz       -0.0074   -0.0454   -0.0147   -0.0565    0.0592
       31 H7     1s        -0.1894   -0.4806   -0.1729   -0.2736   -0.7797
       32 H7     2s         0.1721   -0.1934   -0.3360    0.0859   -0.5611
       33 H7     2px        0.0000    0.0000    0.0000   -0.0000   -0.0000
       34 H7     2py        0.0000   -0.0000    0.0000   -0.0000    0.0000
       35 H7     2pz        0.0074   -0.0454    0.0147    0.0565    0.0592
       36 H8     1s         0.0300    0.2004    0.6411    0.6935    0.6339
       37 H8     2s         0.2768    0.2970    0.1825    0.4977    0.0508
       38 H8     2px       -0.0000   -0.0000   -0.0000   -0.0000    0.0000
       39 H8     2py        0.0000    0.0000    0.0000   -0.0000    0.0000
       40 H8     2pz        0.0044   -0.0158   -0.0434    0.0205    0.0462
       41 H9     1s        -0.2639   -0.0248   -0.7321   -0.9838   -0.3625
       42 H9     2s         0.0968    0.2524   -0.4531   -0.6189   -0.5086
       43 H9     2px       -0.0000    0.0000    0.0000    0.0000   -0.0000
       44 H9     2py        0.0000    0.0000    0.0000   -0.0000    0.0000
       45 H9     2pz        0.0070   -0.0345   -0.0401    0.0644   -0.0540
       46 H10    1s        -0.0185   -0.4343    0.6017    1.0579    0.0676
       47 H10    2s         0.1970    0.0552    0.4319    0.3770   -0.0597
       48 H10    2px       -0.0000   -0.0000    0.0000    0.0000    0.0000
       49 H10    2py        0.0000   -0.0000    0.0000   -0.0000    0.0000
       50 H10    2pz        0.0193    0.0127   -0.0164    0.0388   -0.0325
       51 H11    1s        -0.0452    0.3891   -0.4172   -0.8767    0.1170
       52 H11    2s         0.1297    0.4652   -0.0793   -0.7595    0.1480
       53 H11    2px       -0.0000    0.0000    0.0000   -0.0000   -0.0000
       54 H11    2py       -0.0000   -0.0000    0.0000   -0.0000    0.0000
       55 H11    2pz        0.0038    0.0135   -0.0693   -0.0319   -0.1113
       56 H12    1s        -0.1256   -0.4282    0.0949    0.5953   -0.0788
       57 H12    2s         0.0834   -0.0592    0.4727    0.2374    0.4697
       58 H12    2px        0.0000   -0.0000   -0.0000   -0.0000   -0.0000
       59 H12    2py       -0.0000   -0.0000   -0.0000   -0.0000   -0.0000
       60 H12    2pz        0.0181    0.0127    0.0310    0.0146    0.0043
--
 
 
++    Molecular charges:
      ------------------
 
      Mulliken charges per centre and basis function type
      ---------------------------------------------------
 
                H1      H2      H3      H4      H5      H6      H7      H8      H9      H10     H11     H12   
      1s       0.9334  1.0308  1.0037  0.9967  1.0013  1.0003  1.0003  1.0013  0.9967  1.0037  1.0308  0.9334
      2s       0.0036 -0.0076 -0.0440 -0.0287 -0.0320 -0.0307 -0.0307 -0.0320 -0.0287 -0.0440 -0.0076  0.0036
      2px      0.0000  0.0000  0.0000  0.0000  0.0000  0.0000  0.0000  0.0000  0.0000  0.0000  0.0000  0.0000
      2pz      0.0172  0.0320  0.0308  0.0311  0.0311  0.0311  0.0311  0.0311  0.0311  0.0308  0.0320  0.0172
      2py      0.0000  0.0000  0.0000  0.0000  0.0000  0.0000  0.0000  0.0000  0.0000  0.0000  0.0000  0.0000
      Total    0.9541  1.0553  0.9905  0.9990  1.0004  1.0007  1.0007  1.0004  0.9990  0.9905  1.0553  0.9541
 
      N-E      0.0459 -0.0553  0.0095  0.0010 -0.0004 -0.0007 -0.0007 -0.0004  0.0010  0.0095 -0.0553  0.0459
 
      Total electronic charge=   12.000000
 
      Total            charge=   -0.000000
--
 
 
  Input file to MOLDEN was generated!
 
 
++    Static properties:
      ------------------
 
 
      LoProp Charges per center
 

                   H1       H2       H3       H4       H5       H6       H7       H8       H9       H10   
      Nuclear      1.0000   1.0000   1.0000   1.0000   1.0000   1.0000   1.0000   1.0000   1.0000   1.0000
      Electronic  -0.9924  -1.0084  -0.9970  -1.0017  -0.9999  -1.0007  -1.0007  -0.9999  -1.0017  -0.9970
 
      Total        0.0076  -0.0084   0.0030  -0.0017   0.0001  -0.0007  -0.0007   0.0001  -0.0017   0.0030
 

                   H11      H12   
      Nuclear      1.0000   1.0000
      Electronic  -1.0084  -0.9924
 
      Total       -0.0084   0.0076
--
 
 
++    Natural Bond Order analysis
      ---------------------------
      Based on LoProp computed density
      -------------------------------------------------------------------------------------
      Atom A       Atom B       Bond Order
      -------------------------------------------------------------------------------------
      NBO located      0.960 non-bonded electrons on atom H1        
      NBO located      1.017 non-bonded electrons on atom H3        
      NBO located      1.010 non-bonded electrons on atom H4        
      NBO located      1.015 non-bonded electrons on atom H5        
      NBO located      1.014 non-bonded electrons on atom H6        
      NBO located      1.014 non-bonded electrons on atom H7        
      NBO located      1.015 non-bonded electrons on atom H8        
      NBO located      1.010 non-bonded electrons on atom H9        
      NBO located      1.017 non-bonded electrons on atom H10       
      NBO located      0.960 non-bonded electrons on atom H12       
      The remaining    1.965 electrons are to be considered as diffuse
--
 
 
++    Molecular properties:
      ---------------------
 
      Charge (e):
                      =   -0.0000
      Dipole Moment (Debye):
      Origin of the operator (Ang)=    0.0000    0.0000    0.0000
                   X= -2.0966E-14               Y=  5.4517E-14               Z= -3.8831E-07           Total=  3.8831E-07
      Quadrupole Moment (Debye*Ang):
      Origin of the operator (Ang)=    0.0000    0.0000    7.0333
                  XX= -1.6618E+01              XY= -1.4965E-28              XZ=  1.2582E-13              YY= -1.6618E+01
                  YZ= -4.8375E-13              ZZ= -8.9017E+00
      In traceless form (Debye*Ang)
                  XX= -3.8580E+00              XY= -2.2447E-28              XZ=  1.8874E-13              YY= -3.8580E+00
                  YZ= -7.2562E-13              ZZ=  7.7159E+00
--
 
 
  Input file to MOLDEN was generated!
 
 ###############################################################################
 ###############################################################################
 ###                                                                         ###
 ###                                                                         ###
 ###    RunFile label nBas                                                   ###
 ###    was used       78 times                                              ###
 ###                                                                         ###
 ###                                                                         ###
 ###############################################################################
 ###############################################################################
--- Stop Module: scf at Thu Oct 17 12:36:51 2024 /rc=_RC_ALL_IS_WELL_ ---
*** files: H12_1.28.LprOrb H12_1.28.LoProp.molden H12_1.28.scf.molden H12_1.28.ScfOrb H12_1.28.scf.h5 xmldump
    saved to directory /home/grierjones/DDCASPT2/hydrogen_comps/minimal_2e_2o/chains/even/H12_chain/H12_1.28

>>> COPY /tmp/H12_1.28/H12_1.28.scf.h5 /home/grierjones/DDCASPT2/hydrogen_comps/minimal_2e_2o/chains/even/H12_chain/H12_1.28/

*** symbolic link created: INPORB -> H12_1.28.ScfOrb
--- Start Module: rasscf at Thu Oct 17 12:36:51 2024 ---
 
()()()()()()()()()()()()()()()()()()()()()()()()()()()()()()()()()()()()()()()()()()()()()()()()()()

                                              &RASSCF

                                   only a single process is used
                       available to each process: 2.0 GB of memory, 1 thread?
()()()()()()()()()()()()()()()()()()()()()()()()()()()()()()()()()()()()()()()()()()()()()()()()()()
 
 
      Header of the ONEINT file:
      --------------------------
      
      Integrals generated by seward 4.2.0  , Thu Oct 17 12:36:22 2024
 
 
      OrdInt status: non-squared
 
 
      Cartesian coordinates in Angstrom:
      -----------------------------------------------------
      No.  Label        X            Y            Z        
      -----------------------------------------------------
       1   H1         0.00000000   0.00000000   0.00000000
       2   H2         0.00000000   0.00000000   1.27878800
       3   H3         0.00000000   0.00000000   2.55757600
       4   H4         0.00000000   0.00000000   3.83636400
       5   H5         0.00000000   0.00000000   5.11515200
       6   H6         0.00000000   0.00000000   6.39393900
       7   H7         0.00000000   0.00000000   7.67272700
       8   H8         0.00000000   0.00000000   8.95151500
       9   H9         0.00000000   0.00000000  10.23030300
      10   H10        0.00000000   0.00000000  11.50909100
      11   H11        0.00000000   0.00000000  12.78787900
      12   H12        0.00000000   0.00000000  14.06666700
      -----------------------------------------------------
      Nuclear repulsion energy =   10.44399464
 
++    Wave function specifications:
      -----------------------------
 
      Number of closed shell electrons           0
      Number of electrons in active shells      12
      Max number of holes in RAS1 space          0
      Max nr of electrons in RAS3 space          0
      Number of inactive orbitals                0
      Number of active orbitals                 12
      Number of secondary orbitals              48
      Spin quantum number                      0.0
      State symmetry                             1
--
 
++    Orbital specifications:
      -----------------------
 
      Symmetry species                           1
                                                 a
      Frozen orbitals                            0
      Inactive orbitals                          0
      Active orbitals                           12
      RAS1 orbitals                              0
      RAS2 orbitals                             12
      RAS3 orbitals                              0
      Secondary orbitals                        48
      Deleted orbitals                           0
      Number of basis functions                 60
--
 
++    CI expansion specifications:
      ----------------------------
 
      Number of CSFs                        226512
      Number of determinants                427350
      Number of root(s) required                 1
      Root chosen for geometry opt.              1
      CI root used                               1
         
      highest root included in the CI            1
      max. size of the explicit Hamiltonian    500
--
 
++    Optimization specifications:
      ----------------------------
 
      RASSCF algorithm: Conventional
      Maximum number of macro iterations       200
      Maximum number of SX iterations          100
      Threshold for RASSCF energy            0.100E-07
      Threshold for max MO rotation          0.100E+00
      Threshold for max BLB element          0.100E-03
      Level shift parameter                  0.500E+00
      Make Quasi-Newton update
--
 
      The MO-coefficients are taken from the file:
      /home/grierjones/DDCASPT2/hydrogen_comps/minimal_2e_2o/chains/even/H12_chain/H12_1.25/H12_1.25.RasOrb                           
      Title: RASSCF average (pseudo-natural) orbitals                                      
 
      Total molecular charge    0.00
 
      ************************************************************************************************************************
      *                                                                                                                      *
      *                                            Wave function control section                                             *
      *                                                                                                                      *
      ************************************************************************************************************************
 
 
                                         RASSCF iterations: Energy and convergence statistics
                                         ----------------------------------------------------
 
      Iter CI   SX   CI       RASSCF       Energy    max ROT     max BLB   max BLB  Level Ln srch  Step   QN   Walltime
          iter iter root      energy       change     param      element    value   shift minimum  type update hh:mm:ss
 Nr of preliminary CI iterations:   7
        1   1    4    1    -6.48164508    0.00E+00  -0.48E-02    1  13 1 -0.79E-02*  0.06   0.00    SX    NO    0:00:08
        2   1    4    1    -6.48179300   -0.15E-03*  0.99E-03    1  13 1 -0.16E-02*  0.06   0.00    SX    NO    0:00:02
        3   2    3    1    -6.48180575   -0.13E-04*  0.22E-03    1  13 1 -0.36E-03*  0.06   0.00    SX    NO    0:00:02
        4   8    3    1    -6.48181180   -0.61E-05* -0.27E-03    1  13 1 -0.13E-03*  0.06   0.00    SX    NO    0:00:06
        5   4    3    1    -6.48181205   -0.25E-06* -0.17E-03    9  29 1  0.44E-04   0.06   1.40    QN   YES    0:00:04
        6   5    3    1    -6.48181209   -0.37E-07* -0.22E-04    6  41 1 -0.73E-05   0.06   1.05    QN   YES    0:00:04
        7   1    2    1    -6.48181209   -0.68E-09   0.54E-05    1  13 1  0.21E-05   0.06   1.04    QN   YES    0:00:02
      Convergence after  7 iterations
        8   1    2    1    -6.48181209   -0.50E-10   0.54E-05    5  37 1 -0.32E-06   0.06   1.04    QN   YES    0:00:02
 
      ************************************************************************************************************************
                                                      Wave function printout:
                       occupation of active orbitals, and spin coupling of open shells (u,d: Spin up or down)
      ************************************************************************************************************************
 
      Note: transformation to natural orbitals
      has been made, which may change the order of the CSFs.
 
      printout of CI-coefficients larger than  0.05 for root  1
      energy=      -6.481812
      conf/sym  111111111111     Coeff  Weight
             1  222222000000   0.81358 0.66191
            43  222220002000  -0.22967 0.05275
            47  222220000200  -0.05610 0.00315
            67  2222ud00ud00  -0.18422 0.03394
            83  222u2du0d000   0.12456 0.01552
           105  22u22d0ud000   0.09714 0.00944
           134  2u222d00u0d0   0.08386 0.00703
           160  u2222d00u00d  -0.08631 0.00745
           169  222202002000  -0.06653 0.00443
           173  222202000200  -0.08999 0.00810
           191  222ud2u00d00   0.09092 0.00827
           193  222ud200ud00  -0.05455 0.00298
           213  22u2d20u0d00   0.07146 0.00511
           240  2u22d2000ud0   0.06363 0.00405
           269  222022200000  -0.05171 0.00267
           291  22ud22ud0000  -0.05917 0.00350
           484  2222uu00dd00   0.08063 0.00650
           495  222u2ud0d000   0.05986 0.00358
 
      Natural orbitals and occupation numbers for root  1
      sym 1:   1.944342   1.935061   1.918280   1.888503   1.832442   1.711723   0.109966   0.074982   0.308474   0.175103
               0.055634   0.045489
 
      ************************************************************************************************************************
      *                                                                                                                      *
      *                                                    Final results                                                     *
      *                                                                                                                      *
      ************************************************************************************************************************
 
 
++    Wave function specifications:
      -----------------------------
 
      Number of closed shell electrons           0
      Number of electrons in active shells      12
      Max number of holes in RAS1 space          0
      Max nr of electrons in RAS3 space          0
      Number of inactive orbitals                0
      Number of active orbitals                 12
      Number of secondary orbitals              48
      Spin quantum number                      0.0
      State symmetry                             1
--
 
++    Orbital specifications:
      -----------------------
 
      Symmetry species                           1
                                                 a
      Frozen orbitals                            0
      Inactive orbitals                          0
      Active orbitals                           12
      RAS1 orbitals                              0
      RAS2 orbitals                             12
      RAS3 orbitals                              0
      Secondary orbitals                        48
      Deleted orbitals                           0
      Number of basis functions                 60
--
 
++    CI expansion specifications:
      ----------------------------
 
      Number of CSFs                        226512
      Number of determinants                427350
      Number of root(s) required                 1
      CI root used                               1
      highest root included in the CI            1
      Root passed to geometry opt.               1
--
 
++    Final optimization conditions:
      ------------------------------
 
      Average CI energy                              -6.48181209
      RASSCF energy for state  1                     -6.48181209
      Super-CI energy                                -0.00000000
      RASSCF energy change                            0.00000000
      Max change in MO coefficients               0.226E-04
      Max non-diagonal density matrix element     0.542E-05
      Maximum BLB matrix element                 -0.325E-06
      (orbital pair   5,  37 in symmetry   1)
      Norm of electronic gradient            0.114E-05
--
 
 
      Final state energy(ies):
      ------------------------
 
::    RASSCF root number  1 Total energy:     -6.48181209
 
++    Molecular orbitals:
      -------------------
 
      Pseudonatural active orbitals and approximate occupation numbers
 
 
 
 
      Molecular orbitals for symmetry species 1: a  
 
 
      Orbital                1         2         3         4         5         6         7         8         9        10
      Energy            0.0000    0.0000    0.0000    0.0000    0.0000    0.0000    0.0000    0.0000    0.0000    0.0000
      Occ. No.          1.9443    1.9351    1.9183    1.8885    1.8324    1.7117    0.1100    0.0750    0.3085    0.1751
 
    1 H1     1s         0.0705    0.1477    0.2237   -0.2860    0.3189   -0.2865    0.5063    0.4781   -0.3456   -0.4674
    2 H1     2s         0.0008    0.0007    0.0005   -0.0041    0.0159   -0.0303    0.0241    0.0366   -0.0170   -0.0153
    3 H1     2px       -0.0000    0.0000   -0.0000   -0.0000   -0.0000   -0.0000    0.0000    0.0000   -0.0000   -0.0000
    4 H1     2py       -0.0000    0.0000    0.0000   -0.0000   -0.0000   -0.0000    0.0000    0.0000   -0.0000    0.0000
    5 H1     2pz        0.0048    0.0090    0.0113   -0.0106    0.0074   -0.0034    0.0057    0.0075   -0.0020   -0.0036
    6 H2     1s         0.1128    0.2219    0.3021   -0.3255    0.2772   -0.1601   -0.5751   -0.7309    0.0808    0.3203
    7 H2     2s        -0.0089   -0.0110    0.0006   -0.0271    0.0542   -0.0539   -0.0800   -0.1424   -0.0257    0.0140
    8 H2     2px        0.0000   -0.0000   -0.0000   -0.0000    0.0000   -0.0000   -0.0000    0.0000    0.0000    0.0000
    9 H2     2py       -0.0000   -0.0000   -0.0000   -0.0000    0.0000    0.0000   -0.0000    0.0000   -0.0000   -0.0000
   10 H2     2pz        0.0042    0.0053    0.0009    0.0084   -0.0171    0.0184   -0.0079    0.0011    0.0184    0.0168
   11 H3     1s         0.1858    0.2826    0.2223   -0.0083   -0.2557    0.3861    0.1009    0.6035    0.4445    0.3260
   12 H3     2s        -0.0036   -0.0080   -0.0113    0.0197   -0.0462    0.0773    0.0387    0.1372    0.0630    0.0308
   13 H3     2px        0.0000    0.0000    0.0000    0.0000   -0.0000    0.0000   -0.0000   -0.0000    0.0000    0.0000
   14 H3     2py        0.0000    0.0000    0.0000    0.0000    0.0000    0.0000   -0.0000   -0.0000   -0.0000    0.0000
   15 H3     2pz        0.0040    0.0015   -0.0081    0.0169   -0.0162    0.0070    0.0155    0.0126   -0.0061   -0.0130
   16 H4     1s         0.2239    0.2774    0.1016    0.1831   -0.3474    0.2514    0.4258   -0.1862   -0.2369   -0.5400
   17 H4     2s        -0.0110   -0.0035    0.0124   -0.0036   -0.0394    0.0600    0.0949   -0.0247   -0.0143   -0.0867
   18 H4     2px       -0.0000   -0.0000    0.0000   -0.0000   -0.0000   -0.0000    0.0000    0.0000    0.0000    0.0000
   19 H4     2py       -0.0000   -0.0000   -0.0000   -0.0000    0.0000   -0.0000   -0.0000   -0.0000   -0.0000   -0.0000
   20 H4     2pz        0.0031   -0.0033   -0.0136    0.0120    0.0046   -0.0179   -0.0129   -0.0114   -0.0165   -0.0026
   21 H5     1s         0.2700    0.1807   -0.1545    0.2935    0.0006   -0.3871   -0.6222   -0.3589   -0.4277    0.0760
   22 H5     2s        -0.0081   -0.0114   -0.0101    0.0095    0.0154   -0.0785   -0.1206   -0.0679   -0.0528    0.0383
   23 H5     2px        0.0000   -0.0000    0.0000    0.0000    0.0000    0.0000   -0.0000   -0.0000   -0.0000   -0.0000
   24 H5     2py        0.0000    0.0000    0.0000    0.0000   -0.0000    0.0000    0.0000    0.0000    0.0000   -0.0000
   25 H5     2pz        0.0022   -0.0073   -0.0123   -0.0023    0.0181   -0.0125   -0.0051    0.0089    0.0109    0.0160
   26 H6     1s         0.2856    0.0883   -0.2579    0.1713    0.2463   -0.3399    0.3033    0.6891    0.3540    0.4304
   27 H6     2s        -0.0108    0.0067    0.0049    0.0182    0.0181   -0.0739    0.0413    0.1530    0.0364    0.0848
   28 H6     2px        0.0000    0.0000   -0.0000   -0.0000   -0.0000   -0.0000   -0.0000    0.0000    0.0000    0.0000
   29 H6     2py       -0.0000   -0.0000   -0.0000    0.0000    0.0000   -0.0000   -0.0000   -0.0000   -0.0000    0.0000
   30 H6     2pz        0.0006   -0.0097   -0.0049   -0.0149    0.0093    0.0164    0.0119   -0.0086    0.0148   -0.0096
   31 H7     1s         0.2856   -0.0883   -0.2579   -0.1713    0.2463    0.3399    0.3033   -0.6891    0.3540   -0.4304
   32 H7     2s        -0.0108   -0.0067    0.0049   -0.0182    0.0181    0.0739    0.0413   -0.1530    0.0364   -0.0848
   33 H7     2px       -0.0000    0.0000   -0.0000    0.0000    0.0000    0.0000    0.0000    0.0000   -0.0000   -0.0000
   34 H7     2py        0.0000   -0.0000    0.0000   -0.0000   -0.0000   -0.0000   -0.0000    0.0000   -0.0000   -0.0000
   35 H7     2pz       -0.0006   -0.0097    0.0049   -0.0149   -0.0093    0.0164   -0.0119   -0.0086   -0.0148   -0.0096
   36 H8     1s         0.2700   -0.1807   -0.1545   -0.2935    0.0006    0.3871   -0.6222    0.3589   -0.4277   -0.0760
   37 H8     2s        -0.0081    0.0114   -0.0101   -0.0095    0.0154    0.0785   -0.1206    0.0679   -0.0528   -0.0383
   38 H8     2px        0.0000   -0.0000    0.0000   -0.0000   -0.0000    0.0000   -0.0000   -0.0000    0.0000    0.0000
   39 H8     2py       -0.0000   -0.0000   -0.0000   -0.0000    0.0000    0.0000    0.0000   -0.0000    0.0000    0.0000
   40 H8     2pz       -0.0022   -0.0073    0.0123   -0.0023   -0.0181   -0.0125    0.0051    0.0089   -0.0109    0.0160
   41 H9     1s         0.2239   -0.2774    0.1016   -0.1831   -0.3474   -0.2514    0.4258    0.1862   -0.2369    0.5400
   42 H9     2s        -0.0110    0.0035    0.0124    0.0036   -0.0394   -0.0600    0.0949    0.0247   -0.0143    0.0867
   43 H9     2px        0.0000    0.0000    0.0000   -0.0000    0.0000   -0.0000   -0.0000   -0.0000   -0.0000    0.0000
   44 H9     2py       -0.0000    0.0000    0.0000    0.0000   -0.0000   -0.0000   -0.0000    0.0000   -0.0000   -0.0000
   45 H9     2pz       -0.0031   -0.0033    0.0136    0.0120   -0.0046   -0.0179    0.0129   -0.0114    0.0165   -0.0026
   46 H10    1s         0.1858   -0.2826    0.2223    0.0083   -0.2557   -0.3861    0.1009   -0.6035    0.4445   -0.3260
   47 H10    2s        -0.0036    0.0080   -0.0113   -0.0197   -0.0462   -0.0773    0.0387   -0.1372    0.0630   -0.0308
   48 H10    2px        0.0000    0.0000   -0.0000    0.0000    0.0000    0.0000    0.0000    0.0000    0.0000    0.0000
   49 H10    2py       -0.0000   -0.0000   -0.0000   -0.0000    0.0000    0.0000    0.0000   -0.0000    0.0000    0.0000
   50 H10    2pz       -0.0040    0.0015    0.0081    0.0169    0.0162    0.0070   -0.0155    0.0126    0.0061   -0.0130
   51 H11    1s         0.1128   -0.2219    0.3021    0.3255    0.2772    0.1601   -0.5751    0.7308    0.0808   -0.3203
   52 H11    2s        -0.0089    0.0110    0.0006    0.0271    0.0542    0.0539   -0.0800    0.1424   -0.0257   -0.0140
   53 H11    2px        0.0000   -0.0000    0.0000    0.0000   -0.0000    0.0000   -0.0000   -0.0000   -0.0000    0.0000
   54 H11    2py       -0.0000    0.0000   -0.0000    0.0000   -0.0000   -0.0000   -0.0000    0.0000   -0.0000   -0.0000
   55 H11    2pz       -0.0042    0.0053   -0.0009    0.0084    0.0171    0.0184    0.0079    0.0011   -0.0184    0.0168
   56 H12    1s         0.0705   -0.1477    0.2237    0.2860    0.3189    0.2865    0.5063   -0.4781   -0.3456    0.4674
   57 H12    2s         0.0008   -0.0007    0.0005    0.0041    0.0159    0.0303    0.0241   -0.0366   -0.0170    0.0153
   58 H12    2px       -0.0000   -0.0000    0.0000   -0.0000   -0.0000    0.0000    0.0000   -0.0000    0.0000   -0.0000
   59 H12    2py        0.0000   -0.0000   -0.0000   -0.0000    0.0000    0.0000   -0.0000    0.0000   -0.0000   -0.0000
   60 H12    2pz       -0.0048    0.0090   -0.0113   -0.0106   -0.0074   -0.0034   -0.0057    0.0075    0.0020   -0.0036
 
 
      Orbital               11        12        13        14        15        16        17        18        19        20
      Energy            0.0000    0.0000    0.2345    0.2614    0.3064    0.3769    0.4866    0.5824    0.5824    0.6143
      Occ. No.          0.0556    0.0455    0.0000    0.0000    0.0000    0.0000    0.0000    0.0000    0.0000    0.0000
 
    1 H1     1s        -0.3808   -0.2139   -0.0604   -0.0599   -0.0381    0.2230   -0.4512   -0.0000   -0.0000    0.0000
    2 H1     2s        -0.0421   -0.0294    0.1408    0.3148   -0.5077    0.6797   -0.8035    0.0000   -0.0000    0.0000
    3 H1     2px       -0.0000   -0.0000    0.0000    0.0000   -0.0000   -0.0000   -0.0000    0.0007   -0.0760   -0.1430
    4 H1     2py       -0.0000    0.0000    0.0000    0.0000    0.0000   -0.0000    0.0000    0.0760    0.0007   -0.0520
    5 H1     2pz       -0.0077   -0.0051   -0.0180   -0.0274    0.0216   -0.0028   -0.0170   -0.0000    0.0000    0.0000
    6 H2     1s         0.6981    0.4354   -0.0867   -0.1478    0.1664   -0.1819    0.2809   -0.0000    0.0000   -0.0000
    7 H2     2s         0.1657    0.1166    0.1118    0.1690   -0.1159   -0.0872    0.4453    0.0000    0.0000   -0.0000
    8 H2     2px        0.0000   -0.0000    0.0000   -0.0000    0.0000   -0.0000   -0.0000    0.0013   -0.1385   -0.2363
    9 H2     2py       -0.0000   -0.0000    0.0000    0.0000    0.0000   -0.0000    0.0000    0.1385    0.0013   -0.0859
   10 H2     2pz       -0.0052   -0.0039   -0.0037    0.0160   -0.0620    0.1153   -0.1481    0.0000   -0.0000    0.0000
   11 H3     1s        -0.8676   -0.6495   -0.0899   -0.0687   -0.0299    0.0768    0.0219    0.0000   -0.0000   -0.0000
   12 H3     2s        -0.2115   -0.1731    0.1610    0.2430   -0.1578   -0.1029    0.4086    0.0000   -0.0000   -0.0000
   13 H3     2px        0.0000    0.0000    0.0000   -0.0000   -0.0000   -0.0000   -0.0000    0.0019   -0.1964   -0.2820
   14 H3     2py        0.0000    0.0000    0.0000    0.0000    0.0000   -0.0000    0.0000    0.1964    0.0019   -0.1025
   15 H3     2pz       -0.0070   -0.0025   -0.0135    0.0021   -0.0376    0.0498    0.0021    0.0000    0.0000   -0.0000
   16 H4     1s         0.8221    0.8059   -0.1069   -0.1053    0.0274   -0.0004    0.0478   -0.0000    0.0000   -0.0000
   17 H4     2s         0.1988    0.2229    0.1743    0.1630    0.0710   -0.3515    0.3583   -0.0000   -0.0000   -0.0000
   18 H4     2px       -0.0000   -0.0000    0.0000   -0.0000   -0.0000   -0.0000   -0.0000    0.0023   -0.2424   -0.2636
   19 H4     2py       -0.0000   -0.0000    0.0000    0.0000    0.0000   -0.0000    0.0000    0.2424    0.0023   -0.0958
   20 H4     2pz       -0.0018   -0.0074   -0.0070    0.0222   -0.0543    0.0270    0.0609    0.0000    0.0000   -0.0000
   21 H5     1s        -0.5759   -0.9257   -0.1164   -0.0334   -0.0651   -0.0048    0.0194   -0.0000    0.0000    0.0000
   22 H5     2s        -0.1490   -0.2531    0.1937    0.1366    0.1577   -0.3160   -0.0571   -0.0000   -0.0000    0.0000
   23 H5     2px        0.0000   -0.0000   -0.0000   -0.0000   -0.0000   -0.0000   -0.0000    0.0026   -0.2754   -0.1864
   24 H5     2py       -0.0000    0.0000   -0.0000   -0.0000    0.0000   -0.0000    0.0000    0.2754    0.0026   -0.0678
   25 H5     2pz       -0.0106   -0.0041   -0.0061    0.0269   -0.0365   -0.0331    0.1041   -0.0000   -0.0000   -0.0000
   26 H6     1s         0.2190    0.9851   -0.1202   -0.0466   -0.0575    0.0325   -0.0896    0.0000   -0.0000    0.0000
   27 H6     2s         0.0475    0.2721    0.2015    0.0266    0.2564   -0.1122   -0.4402    0.0000   -0.0000    0.0000
   28 H6     2px        0.0000    0.0000   -0.0000   -0.0000   -0.0000    0.0000   -0.0000    0.0028   -0.2922   -0.0673
   29 H6     2py       -0.0000   -0.0000   -0.0000   -0.0000    0.0000   -0.0000    0.0000    0.2922    0.0028   -0.0245
   30 H6     2pz        0.0076   -0.0063   -0.0012    0.0338   -0.0146   -0.0665    0.0420   -0.0000   -0.0000    0.0000
   31 H7     1s         0.2190   -0.9851   -0.1202    0.0466   -0.0575   -0.0325   -0.0896   -0.0000    0.0000    0.0000
   32 H7     2s         0.0475   -0.2721    0.2015   -0.0266    0.2564    0.1122   -0.4402    0.0000    0.0000    0.0000
   33 H7     2px       -0.0000    0.0000   -0.0000   -0.0000    0.0000    0.0000    0.0000    0.0028   -0.2922    0.0673
   34 H7     2py        0.0000   -0.0000    0.0000   -0.0000   -0.0000   -0.0000    0.0000    0.2922    0.0028    0.0245
   35 H7     2pz       -0.0076   -0.0063    0.0012    0.0338    0.0146   -0.0665   -0.0420   -0.0000   -0.0000    0.0000
   36 H8     1s        -0.5759    0.9257   -0.1164    0.0334   -0.0651    0.0048    0.0194    0.0000   -0.0000   -0.0000
   37 H8     2s        -0.1490    0.2531    0.1937   -0.1366    0.1577    0.3160   -0.0571    0.0000    0.0000   -0.0000
   38 H8     2px       -0.0000   -0.0000   -0.0000    0.0000   -0.0000   -0.0000   -0.0000    0.0026   -0.2754    0.1864
   39 H8     2py       -0.0000   -0.0000    0.0000    0.0000    0.0000    0.0000    0.0000    0.2754    0.0026    0.0678
   40 H8     2pz        0.0106   -0.0041    0.0061    0.0269    0.0365   -0.0331   -0.1041    0.0000    0.0000    0.0000
   41 H9     1s         0.8221   -0.8059   -0.1069    0.1053    0.0274    0.0004    0.0478    0.0000    0.0000   -0.0000
   42 H9     2s         0.1988   -0.2229    0.1743   -0.1630    0.0710    0.3515    0.3583   -0.0000    0.0000   -0.0000
   43 H9     2px        0.0000    0.0000   -0.0000    0.0000   -0.0000    0.0000    0.0000    0.0023   -0.2424    0.2636
   44 H9     2py        0.0000   -0.0000    0.0000   -0.0000    0.0000   -0.0000    0.0000    0.2424    0.0023    0.0958
   45 H9     2pz        0.0018   -0.0074    0.0070    0.0222    0.0543    0.0270   -0.0609    0.0000    0.0000   -0.0000
   46 H10    1s        -0.8676    0.6494   -0.0899    0.0687   -0.0299   -0.0768    0.0219   -0.0000   -0.0000    0.0000
   47 H10    2s        -0.2115    0.1731    0.1610   -0.2430   -0.1578    0.1029    0.4086   -0.0000   -0.0000    0.0000
   48 H10    2px        0.0000   -0.0000   -0.0000    0.0000    0.0000    0.0000    0.0000    0.0019   -0.1964    0.2820
   49 H10    2py       -0.0000    0.0000    0.0000   -0.0000    0.0000   -0.0000    0.0000    0.1964    0.0019    0.1025
   50 H10    2pz        0.0070   -0.0025    0.0135    0.0021    0.0376    0.0498   -0.0021    0.0000    0.0000   -0.0000
   51 H11    1s         0.6981   -0.4354   -0.0867    0.1478    0.1664    0.1819    0.2809   -0.0000    0.0000    0.0000
   52 H11    2s         0.1657   -0.1166    0.1118   -0.1690   -0.1159    0.0872    0.4453   -0.0000   -0.0000    0.0000
   53 H11    2px        0.0000   -0.0000   -0.0000    0.0000    0.0000    0.0000    0.0000    0.0013   -0.1385    0.2363
   54 H11    2py        0.0000   -0.0000    0.0000   -0.0000   -0.0000   -0.0000    0.0000    0.1385    0.0013    0.0859
   55 H11    2pz        0.0052   -0.0039    0.0037    0.0160    0.0620    0.1153    0.1481   -0.0000   -0.0000    0.0000
   56 H12    1s        -0.3808    0.2139   -0.0604    0.0599   -0.0381   -0.2230   -0.4512    0.0000    0.0000   -0.0000
   57 H12    2s        -0.0421    0.0294    0.1408   -0.3148   -0.5077   -0.6797   -0.8035    0.0000    0.0000   -0.0000
   58 H12    2px       -0.0000    0.0000    0.0000    0.0000    0.0000    0.0000    0.0000    0.0007   -0.0760    0.1430
   59 H12    2py       -0.0000    0.0000    0.0000   -0.0000    0.0000   -0.0000    0.0000    0.0760    0.0007    0.0520
   60 H12    2pz        0.0077   -0.0051    0.0180   -0.0274   -0.0216   -0.0028    0.0170   -0.0000   -0.0000    0.0000
 
 
      Orbital               21        22        23        24        25        26        27        28        29        30
      Energy            0.6143    0.6443    0.6673    0.6673    0.7419    0.7419    0.8365    0.8386    0.8386    0.9577
      Occ. No.          0.0000    0.0000    0.0000    0.0000    0.0000    0.0000    0.0000    0.0000    0.0000    0.0000
 
    1 H1     1s         0.0000    0.6536    0.0000   -0.0000    0.0000   -0.0000    0.7532   -0.0000    0.0000   -0.0000
    2 H1     2s         0.0000    0.8559    0.0000   -0.0000    0.0000    0.0000    0.7869   -0.0000    0.0000    0.0000
    3 H1     2px       -0.0520    0.0000   -0.2102    0.0843    0.2752    0.1060    0.0000   -0.2850   -0.2082    0.2839
    4 H1     2py        0.1430   -0.0000   -0.0843   -0.2102    0.1060   -0.2752   -0.0000   -0.2082    0.2850    0.2729
    5 H1     2pz       -0.0000    0.0197    0.0000    0.0000   -0.0000    0.0000   -0.0194    0.0000   -0.0000   -0.0000
    6 H2     1s        -0.0000   -0.5397   -0.0000    0.0000   -0.0000    0.0000   -0.8960    0.0000   -0.0000    0.0000
    7 H2     2s        -0.0000   -0.9201   -0.0000    0.0000   -0.0000    0.0000   -1.3594    0.0000   -0.0000    0.0000
    8 H2     2px       -0.0859    0.0000   -0.2907    0.1166    0.2834    0.1091    0.0000   -0.1739   -0.1270    0.0420
    9 H2     2py        0.2363   -0.0000   -0.1166   -0.2907    0.1091   -0.2834   -0.0000   -0.1270    0.1739    0.0404
   10 H2     2pz        0.0000    0.1416    0.0000   -0.0000    0.0000   -0.0000    0.1049   -0.0000    0.0000    0.0000
   11 H3     1s         0.0000   -0.1554   -0.0000   -0.0000    0.0000   -0.0000   -0.0387    0.0000   -0.0000   -0.0000
   12 H3     2s         0.0000   -0.4952   -0.0000    0.0000    0.0000   -0.0000   -0.0980    0.0000   -0.0000   -0.0000
   13 H3     2px       -0.1025    0.0000   -0.2350    0.0943    0.0592    0.0228   -0.0000    0.1521    0.1111   -0.2704
   14 H3     2py        0.2820    0.0000   -0.0943   -0.2350    0.0228   -0.0592    0.0000    0.1111   -0.1521   -0.2599
   15 H3     2pz       -0.0000   -0.1092   -0.0000    0.0000   -0.0000   -0.0000   -0.2112    0.0000   -0.0000   -0.0000
   16 H4     1s        -0.0000    0.0841    0.0000    0.0000   -0.0000    0.0000    0.5014   -0.0000    0.0000    0.0000
   17 H4     2s        -0.0000    0.1547    0.0000    0.0000    0.0000    0.0000    0.9113   -0.0000    0.0000    0.0000
   18 H4     2px       -0.0958    0.0000   -0.0638    0.0256   -0.2141   -0.0825   -0.0000    0.2861    0.2089   -0.1185
   19 H4     2py        0.2636   -0.0000   -0.0256   -0.0638   -0.0825    0.2141    0.0000    0.2089   -0.2861   -0.1139
   20 H4     2pz       -0.0000   -0.1160   -0.0000    0.0000    0.0000   -0.0000   -0.0275    0.0000   -0.0000    0.0000
   21 H5     1s         0.0000    0.2476    0.0000   -0.0000    0.0000   -0.0000    0.2979   -0.0000    0.0000    0.0000
   22 H5     2s         0.0000    0.6971    0.0000   -0.0000    0.0000    0.0000    0.5342   -0.0000    0.0000    0.0000
   23 H5     2px       -0.0678   -0.0000    0.1393   -0.0559   -0.3085   -0.1188   -0.0000    0.0610    0.0445    0.2374
   24 H5     2py        0.1864   -0.0000    0.0559    0.1393   -0.1188    0.3085    0.0000    0.0445   -0.0610    0.2282
   25 H5     2pz       -0.0000   -0.0293   -0.0000    0.0000    0.0000   -0.0000    0.1191   -0.0000    0.0000   -0.0000
   26 H6     1s         0.0000    0.1156    0.0000   -0.0000   -0.0000   -0.0000   -0.4318    0.0000   -0.0000   -0.0000
   27 H6     2s         0.0000    0.3612    0.0000   -0.0000   -0.0000   -0.0000   -0.7854    0.0000   -0.0000   -0.0000
   28 H6     2px       -0.0245   -0.0000    0.2732   -0.1096   -0.1433   -0.0552    0.0000   -0.2398   -0.1752    0.1854
   29 H6     2py        0.0673    0.0000    0.1096    0.2732   -0.0552    0.1433   -0.0000   -0.1752    0.2398    0.1782
   30 H6     2pz        0.0000    0.1120    0.0000   -0.0000   -0.0000    0.0000    0.1208   -0.0000    0.0000    0.0000
   31 H7     1s        -0.0000   -0.1156    0.0000   -0.0000    0.0000    0.0000   -0.4318    0.0000   -0.0000    0.0000
   32 H7     2s        -0.0000   -0.3612   -0.0000    0.0000    0.0000    0.0000   -0.7854    0.0000   -0.0000    0.0000
   33 H7     2px        0.0245   -0.0000    0.2732   -0.1096    0.1433    0.0552    0.0000   -0.2398   -0.1752   -0.1854
   34 H7     2py       -0.0673    0.0000    0.1096    0.2732    0.0552   -0.1433   -0.0000   -0.1752    0.2398   -0.1782
   35 H7     2pz        0.0000    0.1120    0.0000   -0.0000   -0.0000    0.0000   -0.1208    0.0000   -0.0000   -0.0000
   36 H8     1s        -0.0000   -0.2476   -0.0000    0.0000   -0.0000   -0.0000    0.2979   -0.0000    0.0000    0.0000
   37 H8     2s        -0.0000   -0.6971   -0.0000    0.0000    0.0000   -0.0000    0.5342   -0.0000    0.0000   -0.0000
   38 H8     2px        0.0678   -0.0000    0.1393   -0.0559    0.3085    0.1188   -0.0000    0.0610    0.0445   -0.2374
   39 H8     2py       -0.1864    0.0000    0.0559    0.1393    0.1188   -0.3085    0.0000    0.0445   -0.0610   -0.2282
   40 H8     2pz        0.0000   -0.0293   -0.0000    0.0000   -0.0000    0.0000   -0.1191    0.0000   -0.0000    0.0000
   41 H9     1s         0.0000   -0.0841    0.0000   -0.0000    0.0000    0.0000    0.5014   -0.0000    0.0000    0.0000
   42 H9     2s        -0.0000   -0.1547   -0.0000    0.0000    0.0000    0.0000    0.9113   -0.0000    0.0000    0.0000
   43 H9     2px        0.0958   -0.0000   -0.0638    0.0256    0.2141    0.0825   -0.0000    0.2861    0.2089    0.1185
   44 H9     2py       -0.2636    0.0000   -0.0256   -0.0638    0.0825   -0.2141    0.0000    0.2089   -0.2861    0.1139
   45 H9     2pz       -0.0000   -0.1160   -0.0000    0.0000    0.0000   -0.0000    0.0275   -0.0000    0.0000    0.0000
   46 H10    1s        -0.0000    0.1554    0.0000   -0.0000   -0.0000    0.0000   -0.0387    0.0000   -0.0000   -0.0000
   47 H10    2s         0.0000    0.4952    0.0000   -0.0000   -0.0000    0.0000   -0.0980    0.0000   -0.0000   -0.0000
   48 H10    2px        0.1025    0.0000   -0.2350    0.0943   -0.0592   -0.0228   -0.0000    0.1521    0.1111    0.2704
   49 H10    2py       -0.2820    0.0000   -0.0943   -0.2350   -0.0228    0.0592    0.0000    0.1111   -0.1521    0.2599
   50 H10    2pz       -0.0000   -0.1092   -0.0000    0.0000    0.0000   -0.0000    0.2112   -0.0000    0.0000   -0.0000
   51 H11    1s         0.0000    0.5397    0.0000   -0.0000   -0.0000    0.0000   -0.8960    0.0000   -0.0000    0.0000
   52 H11    2s         0.0000    0.9201    0.0000   -0.0000   -0.0000    0.0000   -1.3594    0.0000   -0.0000    0.0000
   53 H11    2px        0.0859    0.0000   -0.2907    0.1166   -0.2834   -0.1091    0.0000   -0.1739   -0.1270   -0.0420
   54 H11    2py       -0.2363   -0.0000   -0.1166   -0.2907   -0.1091    0.2834   -0.0000   -0.1270    0.1739   -0.0404
   55 H11    2pz        0.0000    0.1416    0.0000   -0.0000   -0.0000    0.0000   -0.1049    0.0000   -0.0000    0.0000
   56 H12    1s        -0.0000   -0.6536   -0.0000    0.0000    0.0000    0.0000    0.7532   -0.0000    0.0000    0.0000
   57 H12    2s        -0.0000   -0.8559   -0.0000    0.0000    0.0000   -0.0000    0.7869   -0.0000    0.0000   -0.0000
   58 H12    2px        0.0520    0.0000   -0.2102    0.0843   -0.2752   -0.1060    0.0000   -0.2850   -0.2082   -0.2839
   59 H12    2py       -0.1430   -0.0000   -0.0843   -0.2102   -0.1060    0.2752   -0.0000   -0.2082    0.2850   -0.2729
   60 H12    2pz        0.0000    0.0197    0.0000   -0.0000   -0.0000   -0.0000    0.0194   -0.0000    0.0000   -0.0000
 
 
      Orbital               31        32        33        34        35        36        37        38        39        40
[...]
   21 H5     1s         0.0000    0.0000    2.8161    2.9835   -0.7145   -0.7911   -0.0164    0.5122   -0.2932    0.0870
   22 H5     2s         0.0000    0.0000    2.5907    3.0173   -0.3035   -0.2406   -0.0195    0.0316   -0.0090    0.0060
   23 H5     2px       -0.4691   -0.3287    0.0000   -0.0000    0.0000    0.0000    0.0000   -0.0000    0.0000    0.0000
   24 H5     2py        0.3287   -0.4691   -0.0000   -0.0000   -0.0000    0.0000    0.0000    0.0000   -0.0000    0.0000
   25 H5     2pz       -0.0000   -0.0000   -0.4043    0.3880   -0.4753    0.3121    0.8801    0.3695    0.7807    1.0927
   26 H6     1s        -0.0000    0.0000   -2.0715   -3.9801    0.6613   -0.4571   -0.5915    0.2433   -0.4098    0.0333
   27 H6     2s        -0.0000    0.0000   -2.3277   -3.6337    0.2593   -0.0910   -0.0919    0.0367   -0.0243    0.0005
   28 H6     2px        0.4993    0.3498   -0.0000    0.0000   -0.0000   -0.0000   -0.0000    0.0000   -0.0000    0.0000
   29 H6     2py       -0.3498    0.4993    0.0000    0.0000    0.0000   -0.0000    0.0000   -0.0000   -0.0000   -0.0000
   30 H6     2pz        0.0000    0.0000    0.2811   -0.2441   -0.4938   -0.6136    0.4415    0.9129    0.2871    1.1741
   31 H7     1s         0.0000   -0.0000    2.0715    3.9801    0.6613    0.4571   -0.5915   -0.2433   -0.4098   -0.0333
   32 H7     2s         0.0000   -0.0000    2.3277    3.6337    0.2593    0.0910   -0.0919   -0.0367   -0.0243   -0.0005
   33 H7     2px       -0.4993   -0.3498    0.0000   -0.0000    0.0000    0.0000    0.0000   -0.0000    0.0000   -0.0000
   34 H7     2py        0.3498   -0.4993   -0.0000   -0.0000   -0.0000    0.0000   -0.0000    0.0000    0.0000    0.0000
   35 H7     2pz        0.0000   -0.0000    0.2811   -0.2441    0.4938   -0.6136   -0.4415    0.9129   -0.2871    1.1741
   36 H8     1s        -0.0000    0.0000   -2.8161   -2.9835   -0.7145    0.7911   -0.0164   -0.5122   -0.2932   -0.0870
   37 H8     2s        -0.0000    0.0000   -2.5907   -3.0173   -0.3035    0.2406   -0.0195   -0.0316   -0.0090   -0.0060
   38 H8     2px        0.4691    0.3287   -0.0000    0.0000   -0.0000    0.0000   -0.0000    0.0000   -0.0000    0.0000
   39 H8     2py       -0.3287    0.4691    0.0000    0.0000   -0.0000   -0.0000    0.0000   -0.0000   -0.0000   -0.0000
   40 H8     2pz       -0.0000    0.0000   -0.4043    0.3880    0.4753    0.3121   -0.8801    0.3695   -0.7807    1.0927
   41 H9     1s         0.0000   -0.0000    2.8510    2.1456   -0.5109   -0.2132    0.6612   -0.5606   -0.1214   -0.1330
   42 H9     2s         0.0000   -0.0000    2.3850    2.3759   -0.1218   -0.1092    0.1453   -0.0834   -0.0250    0.0043
   43 H9     2px       -0.4108   -0.2878    0.0000   -0.0000    0.0000   -0.0000    0.0000    0.0000    0.0000   -0.0000
   44 H9     2py        0.2878   -0.4108    0.0000   -0.0000    0.0000    0.0000   -0.0000    0.0000    0.0000   -0.0000
   45 H9     2pz        0.0000    0.0000   -0.1387   -0.0145   -0.4882    0.7624   -0.4149   -0.3980   -1.0664    0.9381
   46 H10    1s        -0.0000    0.0000   -1.4712   -2.0352    0.4873   -0.6900    0.5171   -0.1521    0.1519   -0.2010
   47 H10    2s        -0.0000    0.0000   -1.3607   -2.0049    0.0681   -0.0935    0.0192    0.0401    0.0471   -0.0280
   48 H10    2px        0.3273    0.2294   -0.0000    0.0000   -0.0000    0.0000    0.0000   -0.0000   -0.0000    0.0000
   49 H10    2py       -0.2294    0.3273   -0.0000    0.0000   -0.0000   -0.0000    0.0000   -0.0000   -0.0000    0.0000
   50 H10    2pz        0.0000   -0.0000    0.5853   -0.2658   -0.4808    0.0743    0.4625   -0.9185   -1.0536    0.7139
   51 H11    1s         0.0000   -0.0000   -0.1326    1.8595    0.8158   -0.3920    0.0578    0.1601    0.2449   -0.1777
   52 H11    2s         0.0000   -0.0000    0.2200    1.4974    0.4102   -0.1838    0.0801   -0.0526   -0.0429    0.0263
   53 H11    2px       -0.2242   -0.1571    0.0000    0.0000    0.0000   -0.0000   -0.0000   -0.0000    0.0000   -0.0000
   54 H11    2py        0.1571   -0.2242    0.0000   -0.0000    0.0000    0.0000   -0.0000    0.0000    0.0000   -0.0000
   55 H11    2pz       -0.0000    0.0000   -0.3045    0.0066    0.5150   -0.7413    0.8834   -0.9050   -0.7665    0.4477
   56 H12    1s        -0.0000    0.0000    0.3007   -0.7709   -0.6746    0.6276   -0.5747    0.5053    0.3926   -0.2194
   57 H12    2s        -0.0000    0.0000    0.1672   -0.6150   -0.3789    0.2671   -0.1842    0.1278    0.0848   -0.0436
   58 H12    2px        0.1071    0.0751   -0.0000   -0.0000   -0.0000    0.0000    0.0000   -0.0000   -0.0000    0.0000
   59 H12    2py       -0.0751    0.1071   -0.0000    0.0000    0.0000   -0.0000   -0.0000    0.0000   -0.0000   -0.0000
   60 H12    2pz        0.0000   -0.0000   -0.3910    0.4749    0.5671   -0.5195    0.4629   -0.3920   -0.2941    0.1606
--
 
      Von Neumann Entropy (Root  1) =  1.92855
 

      Mulliken population analysis for root number:  1
      -----------------------------------------------
 
 
++    Molecular charges:
      ------------------
 
      Mulliken charges per centre and basis function type
      ---------------------------------------------------
 
                H1      H2      H3      H4      H5      H6      H7      H8      H9      H10     H11     H12   
      1s       0.9714  1.0154  1.0143  1.0034  1.0089  1.0073  1.0073  1.0089  1.0034  1.0143  1.0154  0.9714
      2s      -0.0021 -0.0173 -0.0441 -0.0319 -0.0353 -0.0339 -0.0339 -0.0353 -0.0319 -0.0441 -0.0173 -0.0021
      2px      0.0000  0.0000  0.0000  0.0000  0.0000  0.0000  0.0000  0.0000  0.0000  0.0000  0.0000  0.0000
      2pz      0.0110  0.0275  0.0261  0.0264  0.0264  0.0265  0.0265  0.0264  0.0264  0.0261  0.0275  0.0110
      2py      0.0000  0.0000  0.0000  0.0000  0.0000  0.0000  0.0000  0.0000  0.0000  0.0000  0.0000  0.0000
      Total    0.9802  1.0255  0.9963  0.9979  1.0001  0.9999  0.9999  1.0001  0.9979  0.9963  1.0255  0.9802
 
      N-E      0.0198 -0.0255  0.0037  0.0021 -0.0001  0.0001  0.0001 -0.0001  0.0021  0.0037 -0.0255  0.0198
 
      Total electronic charge=   12.000000
 
      Total            charge=   -0.000000
--
 
 

      Expectation values of various properties for root number:  1
      -----------------------------------------------------------
 
 
++    Molecular properties:
      ---------------------
 
      Charge (e):
                      =   -0.0000
      Dipole Moment (Debye):
      Origin of the operator (Ang)=    0.0000    0.0000    0.0000
                   X= -5.6485E-13               Y=  5.9633E-13               Z= -7.1251E-08           Total=  7.1251E-08
      Quadrupole Moment (Debye*Ang):
      Origin of the operator (Ang)=    0.0000    0.0000    7.0333
                  XX= -1.5342E+01              XY=  1.1736E-26              XZ=  1.6364E-12              YY= -1.5342E+01
                  YZ=  1.5920E-12              ZZ= -1.1469E+01
      In traceless form (Debye*Ang)
                  XX= -1.9363E+00              XY=  1.7604E-26              XZ=  2.4546E-12              YY= -1.9363E+00
                  YZ=  2.3880E-12              ZZ=  3.8726E+00
--
 

      LoProp population analysis for root number:  1
      -----------------------------------------------
 
 
++    LoProp analysis:
      ----------------
 
 
 
  Input file to MOLDEN was generated!
 
 
++    Static properties:
      ------------------
 
 
      LoProp Charges per center
 

                   H1       H2       H3       H4       H5       H6       H7       H8       H9       H10   
      Nuclear      1.0000   1.0000   1.0000   1.0000   1.0000   1.0000   1.0000   1.0000   1.0000   1.0000
      Electronic  -1.0043  -0.9976  -0.9990  -0.9995  -0.9998  -0.9998  -0.9998  -0.9998  -0.9995  -0.9990
 
      Total       -0.0043   0.0024   0.0010   0.0005   0.0002   0.0002   0.0002   0.0002   0.0005   0.0010
 

                   H11      H12   
      Nuclear      1.0000   1.0000
      Electronic  -0.9976  -1.0043
 
      Total        0.0024  -0.0043
--
 
 
      Natural Bond Order analysis for root number:  1
 
++    Natural Bond Order analysis
      ---------------------------
      Based on LoProp computed density
      -------------------------------------------------------------------------------------
      Atom A       Atom B       Bond Order
      -------------------------------------------------------------------------------------
      NBO located      0.983 non-bonded electrons on atom H1        
      NBO located      1.019 non-bonded electrons on atom H3        
      NBO located      1.008 non-bonded electrons on atom H4        
      NBO located      1.014 non-bonded electrons on atom H5        
      NBO located      1.012 non-bonded electrons on atom H6        
      NBO located      1.012 non-bonded electrons on atom H7        
      NBO located      1.014 non-bonded electrons on atom H8        
      NBO located      1.008 non-bonded electrons on atom H9        
      NBO located      1.019 non-bonded electrons on atom H10       
      NBO located      0.983 non-bonded electrons on atom H12       
      The remaining    1.928 electrons are to be considered as diffuse
--
 
--
 
 
  Input file to MOLDEN was generated!
 
      Average orbitals are written to the RASORB file
      Natural orbitals for root   1 are written to the RASORB.1 file
      Spin density orbitals for root   1 are written to the SPDORB.1 file
 
--- Stop Module: rasscf at Thu Oct 17 12:37:27 2024 /rc=_RC_ALL_IS_WELL_ ---
*** files: H12_1.28.LprOrb H12_1.28.rasscf.molden H12_1.28.LoProp.molden H12_1.28.RasOrb H12_1.28.RasOrb.1 H12_1.28.rasscf.h5 H12_1.28.SpdOrb.1 xmldump
    saved to directory /home/grierjones/DDCASPT2/hydrogen_comps/minimal_2e_2o/chains/even/H12_chain/H12_1.28
--- Module rasscf spent 36 seconds ---

>>> COPY /tmp/H12_1.28/H12_1.28.rasscf.h5 /home/grierjones/DDCASPT2/hydrogen_comps/minimal_2e_2o/chains/even/H12_chain/H12_1.28/

>>> COPY /tmp/H12_1.28/GMJ_Fock_MO.csv /home/grierjones/DDCASPT2/hydrogen_comps/minimal_2e_2o/chains/even/H12_chain/H12_1.28/H12_1.28.GMJ_Fock_MO.csv

*** symbolic link created: INPORB -> H12_1.28.RasOrb
--- Start Module: caspt2 at Thu Oct 17 12:37:27 2024 ---
 
()()()()()()()()()()()()()()()()()()()()()()()()()()()()()()()()()()()()()()()()()()()()()()()()()()

                                              &CASPT2

                                   only a single process is used
                       available to each process: 2.0 GB of memory, 1 thread?
()()()()()()()()()()()()()()()()()()()()()()()()()()()()()()()()()()()()()()()()()()()()()()()()()()
 
 Cholesky algorithm in CASPT2 =    1
 
 ###############################################################################
 ###############################################################################
 ###                                                                         ###
 ###                                                                         ###
 ###    User changed nr of frozen orbitals.                                  ###
 ###                                                                         ###
 ###                                                                         ###
 ###############################################################################
 ###############################################################################
 
++    Wave function specifications:
      -----------------------------
 
      Number of closed shell electrons           0
      Number of electrons in active shells      12
      Max number of holes in RAS1 space          0
      Max number of electrons in RAS3 space      0
      Number of inactive orbitals                0
      Number of active orbitals                 12
      Number of secondary orbitals              48
      Spin quantum number                      0.0
      State symmetry                             1
      Number of CSFs                        226512
      Number of root(s) available                1
      Root passed to geometry opt.               1
      A file JOBMIX will be created.
      This is a CASSCF or RASSCF reference function
--
 
++    Orbital specifications:
      -----------------------
 
      Symmetry species                           1
                                                 a
      Frozen orbitals                            0
      Inactive orbitals                          0
      Active orbitals                           12
      Secondary orbitals                        48
      Deleted orbitals                           0
      Number of basis functions                 60
--
 
      Type of Fock operator: STANDARD
      Type of 0-order Hamiltonian: STANDARD WITH DEFAULT IPEA
        "IP-EA" denominator shift =      0.25
      The input orbitals and the CI vector will be transformed.
 
--------------------------------------------------------------------------------
 Estimated memory requirements:
  POLY3 :                 54392696
  RHS:                     1916944
  SIGMA :                   616912
  PRPCTL:                        0
 Available workspace:    230179958
 
++ CASPT2 computation for group   1
 
********************************************************************************
 Multi-State initialization phase begins for group   1
--------------------------------------------------------------------------------
********************************************************************************
 Compute H0 matrices for state    1
--------------------------------------------------------------------------------
--------------------------------------------------------------------------------
 H0 matrices have been computed.
 
********************************************************************************
  CASPT2 EQUATION SOLUTION
--------------------------------------------------------------------------------
 
  Total nr of CASPT2 parameters:
   Before reduction:      249120
   After  reduction:      248544
 
 The contributions to the second order correlation energy in atomic units.
-----------------------------------------------------------------------------------------------------------------------------
  IT.      VJTU        VJTI        ATVX        AIVX        VJAI        BVAT        BJAT        BJAI        TOTAL       RNORM  
-----------------------------------------------------------------------------------------------------------------------------
   1     0.000000    0.000000   -0.023800    0.000000    0.000000   -0.051050    0.000000    0.000000   -0.074850    0.002781
   2     0.000000    0.000000   -0.024036    0.000000    0.000000   -0.051096    0.000000    0.000000   -0.075132    0.000232
   3     0.000000    0.000000   -0.024039    0.000000    0.000000   -0.051097    0.000000    0.000000   -0.075135    0.000033
   4     0.000000    0.000000   -0.024037    0.000000    0.000000   -0.051097    0.000000    0.000000   -0.075134    0.000003
-------------------------------------------------------------------------------------------------------------------
 
  FINAL CASPT2 RESULT:
 
  Correlation energy /Case, /Symm, and sums:
 VJTU      0.00000000  0.00000000
 VJTIP     0.00000000  0.00000000
 VJTIM     0.00000000  0.00000000
 ATVX     -0.02403708 -0.02403708
 AIVX      0.00000000  0.00000000
 VJAIP     0.00000000  0.00000000
 VJAIM     0.00000000  0.00000000
 BVATP    -0.04811899 -0.04811899
 BVATM    -0.00297783 -0.00297783
 BJATP     0.00000000  0.00000000
 BJATM     0.00000000  0.00000000
 BJAIP     0.00000000  0.00000000
 BJAIM     0.00000000  0.00000000
 Summed:  -0.07513390 -0.07513390
 
      Reference energy:          -6.4818120886
      E2 (Non-variational):      -0.0751339016
      E2 (Variational):          -0.0751339130
      Total energy:              -6.5569460017
      Residual norm:              0.0000003702
      Reference weight:           0.96783
 
      Contributions to the CASPT2 correlation energy
      Active & Virtual Only:         -0.0751339016
      One Inactive Excited:           0.0000000000
      Two Inactive Excited:           0.0000000000
 
 
++ Denominators, etc.
----------------------------------------------------------------------------------------------------
 Report on small energy denominators, large coefficients, and large energy contributions.
CASE  SYMM ACTIVE-MIX  NON-ACTIVE INDICES          DENOMINATOR     RHS VALUE       COEFFICIENT     CONTRIBUTION
ATVX     1  Mu1.0001  Se1.013                       0.21001939      0.00000000     -0.00000000     -0.00000000
ATVX     1  Mu1.0001  Se1.014                       0.23695277     -0.00036515      0.00123194     -0.00000045
ATVX     1  Mu1.0001  Se1.015                       0.28188960      0.00000000     -0.00000000     -0.00000000
--
 
   (Skipping property calculation,
    use PROP keyword to activate)
--
 
  Total CASPT2 energies:
::    CASPT2 Root  1     Total energy:     -6.55694600
 
  A NEW JOBIPH FILE NAMED 'JOBMIX' IS PREPARED.
********************************************************************************
--- Stop Module: caspt2 at Thu Oct 17 12:38:01 2024 /rc=_RC_ALL_IS_WELL_ ---
*** files: xmldump
    saved to directory /home/grierjones/DDCASPT2/hydrogen_comps/minimal_2e_2o/chains/even/H12_chain/H12_1.28
--- Module caspt2 spent 33 seconds ---

>>> EXPORT i = B

>>> EXPORT j = P

>>> IF (-FILE GMJ_e2_${i}_${j}.csv)
(Skipped)

>>> END FOREACH

>>> EXPORT j = M

>>> IF (-FILE GMJ_e2_${i}_${j}.csv)
(Skipped)

>>> END FOREACH

>>> END FOREACH

>>> EXPORT i = E

>>> EXPORT j = P

>>> IF (-FILE GMJ_e2_${i}_${j}.csv)
(Skipped)

>>> END FOREACH

>>> EXPORT j = M

>>> IF (-FILE GMJ_e2_${i}_${j}.csv)
(Skipped)

>>> END FOREACH

>>> END FOREACH

>>> EXPORT i = F

>>> EXPORT j = P

>>> IF (-FILE GMJ_e2_${i}_${j}.csv)

>>> COPY /tmp/H12_1.28/GMJ_RHS_F_P.csv /home/grierjones/DDCASPT2/hydrogen_comps/minimal_2e_2o/chains/even/H12_chain/H12_1.28/GMJ_RHS_F_P.csv

>>> COPY /tmp/H12_1.28/GMJ_IVECW_F_P.csv /home/grierjones/DDCASPT2/hydrogen_comps/minimal_2e_2o/chains/even/H12_chain/H12_1.28/GMJ_IVECW_F_P.csv

>>> COPY /tmp/H12_1.28/GMJ_e2_F_P.csv /home/grierjones/DDCASPT2/hydrogen_comps/minimal_2e_2o/chains/even/H12_chain/H12_1.28/GMJ_e2_F_P.csv

>>> END FOREACH

>>> EXPORT j = M

>>> IF (-FILE GMJ_e2_${i}_${j}.csv)

>>> COPY /tmp/H12_1.28/GMJ_RHS_F_M.csv /home/grierjones/DDCASPT2/hydrogen_comps/minimal_2e_2o/chains/even/H12_chain/H12_1.28/GMJ_RHS_F_M.csv

>>> COPY /tmp/H12_1.28/GMJ_IVECW_F_M.csv /home/grierjones/DDCASPT2/hydrogen_comps/minimal_2e_2o/chains/even/H12_chain/H12_1.28/GMJ_IVECW_F_M.csv

>>> COPY /tmp/H12_1.28/GMJ_e2_F_M.csv /home/grierjones/DDCASPT2/hydrogen_comps/minimal_2e_2o/chains/even/H12_chain/H12_1.28/GMJ_e2_F_M.csv

>>> END FOREACH

>>> END FOREACH

>>> EXPORT i = G

>>> EXPORT j = P

>>> IF (-FILE GMJ_e2_${i}_${j}.csv)
(Skipped)

>>> END FOREACH

>>> EXPORT j = M

>>> IF (-FILE GMJ_e2_${i}_${j}.csv)
(Skipped)

>>> END FOREACH

>>> END FOREACH

>>> EXPORT i = H

>>> EXPORT j = P

>>> IF (-FILE GMJ_e2_${i}_${j}.csv)
(Skipped)

>>> END FOREACH

>>> EXPORT j = M

>>> IF (-FILE GMJ_e2_${i}_${j}.csv)
(Skipped)

>>> END FOREACH

>>> END FOREACH

>>> EXPORT i = A

>>> IF (-FILE GMJ_e2_$i.csv)
(Skipped)

>>> END FOREACH

>>> EXPORT i = C

>>> IF (-FILE GMJ_e2_$i.csv)

>>> COPY /tmp/H12_1.28/GMJ_RHS_C.csv /home/grierjones/DDCASPT2/hydrogen_comps/minimal_2e_2o/chains/even/H12_chain/H12_1.28/GMJ_RHS_C.csv

>>> COPY /tmp/H12_1.28/GMJ_IVECW_C.csv /home/grierjones/DDCASPT2/hydrogen_comps/minimal_2e_2o/chains/even/H12_chain/H12_1.28/GMJ_IVECW_C.csv

>>> COPY /tmp/H12_1.28/GMJ_e2_C.csv /home/grierjones/DDCASPT2/hydrogen_comps/minimal_2e_2o/chains/even/H12_chain/H12_1.28/GMJ_e2_C.csv

>>> END FOREACH

>>> EXPORT i = D

>>> IF (-FILE GMJ_e2_$i.csv)
(Skipped)

>>> END FOREACH

.########################.
.# Non-zero return code #.
.########################.

    Timing: Wall=98.75 User=87.85 System=10.88
****************************************
*** WorkDir at /tmp/H12_1.28 cleaned ***
****************************************
