[Molden Format]
[N_Atoms]
                     2
[Atoms] (AU)
B1          1      5           0.00000000      0.00000000      0.00000000
BE2         2      4           0.00000000      0.00000000      2.26767135
[Charge] (Mulliken)
 -0.386788145277288     
  0.386788145277246     
[GTO] (AU)
   1
   s  14
  3.336021700E+04  1.039699991E-04
  4.972095200E+03  5.254399956E-04
  1.125641700E+03  2.509059979E-03
  3.164913600E+02  1.031887991E-02
  1.020072600E+02  3.636632969E-02
  3.629587300E+01  1.064607991E-01
  1.397141000E+01  2.403999880E-01
  5.741156000E+00  3.748581168E-01
  2.494268000E+00  3.100066974E-01
  1.114202000E+00  7.922455933E-02
  4.215490000E-01 -4.947589958E-03
  1.696330000E-01 -7.737119935E-03
  6.853500000E-02 -1.501079987E-03
  2.398700000E-02 -1.333299989E-04
   s  14
  3.336021700E+04 -2.030000008E-05
  4.972095200E+03 -1.025700004E-04
  1.125641700E+03 -4.911300020E-04
  3.164913600E+02 -2.026570008E-03
  1.020072600E+02 -7.261010030E-03
  3.629587300E+01 -2.197722009E-02
  1.397141000E+01 -5.408428022E-02
  5.741156000E+00 -1.022402604E-01
  2.494268000E+00 -1.423595206E-01
  1.114202000E+00 -4.658690019E-02
  4.215490000E-01  3.799402916E-01
  1.696330000E-01  5.890463624E-01
  6.853500000E-02  1.749075107E-01
  2.398700000E-02 -1.142030005E-03
   p   9
  5.500000000E+01  1.229800005E-03
  1.336610100E+01  8.827380035E-03
  4.135394000E+00  3.843340015E-02
  1.481256000E+00  1.150031805E-01
  6.021360000E-01  2.733674011E-01
  2.556360000E-01  4.061972116E-01
  1.111510000E-01  3.014967912E-01
  4.764800000E-02  7.684809030E-02
  1.667700000E-02 -8.170000032E-06
 
   2
   s  14
  2.262859900E+04  8.443999941E-05
  3.372318100E+03  4.601499968E-04
  7.603504000E+02  2.285389984E-03
  2.117404800E+02  9.648129932E-03
  6.722346800E+01  3.494469975E-02
  2.337217700E+01  1.061099893E-01
  8.721373000E+00  2.458240383E-01
  3.468091000E+00  3.862428773E-01
  1.452144000E+00  3.105526078E-01
  6.086150000E-01  6.415933955E-02
  2.576860000E-01 -2.265049984E-03
  1.041760000E-01 -5.217499963E-04
  4.242700000E-02 -8.757499938E-04
  1.484900000E-02  1.242199991E-04
   s  14
  2.262859900E+04 -1.586999994E-05
  3.372318100E+03 -8.656999968E-05
  7.603504000E+02 -4.302199984E-04
  2.117404800E+02 -1.825079993E-03
  6.722346800E+01 -6.682749976E-03
  2.337217700E+01 -2.095119992E-02
  8.721373000E+00 -5.200308981E-02
  3.468091000E+00 -9.849176964E-02
  1.452144000E+00 -1.355800695E-01
  6.086150000E-01 -6.429875976E-02
  2.576860000E-01  3.125414989E-01
  1.041760000E-01  6.270468577E-01
  4.242700000E-02  2.110231492E-01
  1.484900000E-02 -4.104669985E-03
   p   9
  3.371018400E+01  1.069960000E-03
  8.057649500E+00  6.828550001E-03
  2.836471400E+00  2.119065000E-02
  1.099965700E+00  5.843696001E-02
  4.433964000E-01  2.020920800E-01
  1.822264000E-01  4.582953101E-01
  7.572410000E-02  3.691239601E-01
  3.168540000E-02  6.611471001E-02
  1.108990000E-02  1.405160000E-03
 
[MO]
Sym=     1a  
Ene=    -7.7025
Spin= Alpha
Occup=    1.00000
   1         1.00116977
   2         0.02586148
   3         0.00000000
   4         0.00000000
   5         0.00534864
   6        -0.00099906
   7        -0.00764062
   8        -0.00000000
   9        -0.00000000
  10         0.00337917
Sym=     1a  
Ene=    -7.6740
Spin= Beta
Occup=    1.00000
   1         1.00053824
   2         0.01783663
   3         0.00000000
   4         0.00000000
   5         0.00444299
   6         0.00014513
   7        -0.00420162
   8        -0.00000000
   9        -0.00000000
  10         0.00129406
Sym=     2a  
Ene=    -4.7596
Spin= Alpha
Occup=    1.00000
   1        -0.00733787
   2         0.00734896
   3         0.00000000
   4         0.00000000
   5         0.00914224
   6         0.99667418
   7        -0.00242203
   8        -0.00000000
   9         0.00000000
  10        -0.00247275
Sym=     2a  
Ene=    -4.7615
Spin= Beta
Occup=    1.00000
   1        -0.00640348
   2         0.00972540
   3        -0.00000000
   4         0.00000000
   5         0.00870878
   6         0.99643079
   7        -0.00342351
   8        -0.00000000
   9         0.00000000
  10         0.00066977
Sym=     3a  
Ene=    -0.6968
Spin= Alpha
Occup=    1.00000
   1        -0.05663548
   2         0.81392503
   3        -0.00000000
   4         0.00000000
   5         0.22097872
   6        -0.18275491
   7         0.10020500
   8        -0.00000000
   9        -0.00000000
  10        -0.17172358
Sym=     3a  
Ene=    -0.5726
Spin= Beta
Occup=    1.00000
   1        -0.05714742
   2         0.71576556
   3        -0.00000000
   4        -0.00000000
   5         0.38507833
   6        -0.20715438
   7         0.15972739
   8         0.00000000
   9         0.00000000
  10        -0.16613706
Sym=     4a  
Ene=    -0.4083
Spin= Alpha
Occup=    1.00000
   1        -0.02751631
   2        -0.34855701
   3         0.00000000
   4        -0.00000000
   5         0.97697181
   6        -0.18493474
   7         0.03884218
   8         0.00000000
   9        -0.00000000
  10        -0.16048426
Sym=     4a  
Ene=    -0.2983
Spin= Beta
Occup=    1.00000
   1         0.04262373
   2        -0.17230389
   3         0.00000000
   4         0.00000000
   5        -0.10236261
   6         0.05009016
   7         0.75012444
   8         0.00000000
   9         0.00000000
  10         0.70604755
Sym=     5a  
Ene=    -0.3938
Spin= Alpha
Occup=    1.00000
   1         0.00000000
   2         0.00000000
   3         0.77460049
   4        -0.19939134
   5        -0.00000000
   6         0.00000000
   7        -0.00000000
   8         0.28673580
   9        -0.07380919
  10         0.00000000
Sym=     5a  
Ene=    -0.0294
Spin= Beta
Occup=    0.00000
   1        -0.00000000
   2         0.00000000
   3         0.12577242
   4         0.48860385
   5         0.00000000
   6        -0.00000000
   7        -0.00000000
   8         0.15469625
   9         0.60096788
  10        -0.00000000
Sym=     6a  
Ene=    -0.0475
Spin= Alpha
Occup=    0.00000
   1         0.00000000
   2         0.00000000
   3         0.16367135
   4         0.63583456
   5         0.00000000
   6        -0.00000000
   7        -0.00000000
   8         0.11611180
   9         0.45107406
  10        -0.00000000
Sym=     6a  
Ene=     0.0031
Spin= Beta
Occup=    0.00000
   1        -0.00000000
   2        -0.00000000
   3         0.45026702
   4        -0.11590406
   5         0.00000000
   6         0.00000000
   7         0.00000000
   8         0.63657063
   9        -0.16386082
  10         0.00000000
Sym=     7a  
Ene=     0.1131
Spin= Alpha
Occup=    0.00000
   1        -0.01809337
   2        -0.35395239
   3         0.00000000
   4         0.00000000
   5        -0.36290255
   6         0.14098958
   7         1.03358426
   8         0.00000000
   9        -0.00000000
  10         0.52388915
Sym=     7a  
Ene=     0.1631
Spin= Beta
Occup=    0.00000
   1         0.01519739
   2         0.41848191
   3        -0.00000000
   4        -0.00000000
   5        -0.97091538
   6         0.17062612
   7         0.16511073
   8         0.00000000
   9         0.00000000
  10         0.21619226
Sym=     8a  
Ene=     0.2601
Spin= Alpha
Occup=    0.00000
   1        -0.00000000
   2        -0.00000000
   3        -0.89567693
   4         0.23055785
   5         0.00000000
   6        -0.00000000
   7        -0.00000000
   8         1.14892370
   9        -0.29574656
  10        -0.00000000
Sym=     8a  
Ene=     0.3122
Spin= Beta
Occup=    0.00000
   1         0.00000000
   2         0.00000000
   3        -0.27766009
   4        -1.07866091
   5         0.00000000
   6        -0.00000000
   7        -0.00000000
   8         0.26264595
   9         1.02033361
  10         0.00000000
Sym=     9a  
Ene=     0.3079
Spin= Alpha
Occup=    0.00000
   1        -0.00000000
   2        -0.00000000
   3        -0.25714882
   4        -0.99897822
   5        -0.00000000
   6         0.00000000
   7         0.00000000
   8         0.28183661
   9         1.09488596
  10         0.00000000
Sym=     9a  
Ene=     0.3435
Spin= Beta
Occup=    0.00000
   1        -0.00000000
   2        -0.00000000
   3        -1.09521810
   4         0.28192211
   5         0.00000000
   6         0.00000000
   7        -0.00000000
   8         0.99850935
   9        -0.25702813
  10        -0.00000000
Sym=    10a  
Ene=     0.6657
Spin= Alpha
Occup=    0.00000
   1         0.59562020
   2         2.96901305
   3        -0.00000000
   4        -0.00000000
   5         1.10988169
   6        -0.70915035
   7        -2.53114174
   8         0.00000000
   9        -0.00000000
  10         2.01329821
Sym=    10a  
Ene=     0.6633
Spin= Beta
Occup=    0.00000
   1         0.59583465
   2         3.00124320
   3         0.00000000
   4         0.00000000
   5         1.12490783
   6        -0.71855642
   7        -2.62127803
   8        -0.00000000
   9        -0.00000000
  10         1.95198498
