[Molden Format]
[N_Atoms]
                     2
[Atoms] (AU)
B1          1      5           0.00000000      0.00000000      0.00000000
C2          2      6           0.00000000      0.00000000      2.45664396
[Charge] (Mulliken)
  0.165583961512563     
 -0.165583961512589     
[GTO] (AU)
   1
   s  14
  3.336021700E+04  1.039699991E-04
  4.972095200E+03  5.254399956E-04
  1.125641700E+03  2.509059979E-03
  3.164913600E+02  1.031887991E-02
  1.020072600E+02  3.636632969E-02
  3.629587300E+01  1.064607991E-01
  1.397141000E+01  2.403999880E-01
  5.741156000E+00  3.748581168E-01
  2.494268000E+00  3.100066974E-01
  1.114202000E+00  7.922455933E-02
  4.215490000E-01 -4.947589958E-03
  1.696330000E-01 -7.737119935E-03
  6.853500000E-02 -1.501079987E-03
  2.398700000E-02 -1.333299989E-04
   s  14
  3.336021700E+04 -2.030000008E-05
  4.972095200E+03 -1.025700004E-04
  1.125641700E+03 -4.911300020E-04
  3.164913600E+02 -2.026570008E-03
  1.020072600E+02 -7.261010030E-03
  3.629587300E+01 -2.197722009E-02
  1.397141000E+01 -5.408428022E-02
  5.741156000E+00 -1.022402604E-01
  2.494268000E+00 -1.423595206E-01
  1.114202000E+00 -4.658690019E-02
  4.215490000E-01  3.799402916E-01
  1.696330000E-01  5.890463624E-01
  6.853500000E-02  1.749075107E-01
  2.398700000E-02 -1.142030005E-03
   p   9
  5.500000000E+01  1.229800005E-03
  1.336610100E+01  8.827380035E-03
  4.135394000E+00  3.843340015E-02
  1.481256000E+00  1.150031805E-01
  6.021360000E-01  2.733674011E-01
  2.556360000E-01  4.061972116E-01
  1.111510000E-01  3.014967912E-01
  4.764800000E-02  7.684809030E-02
  1.667700000E-02 -8.170000032E-06
 
   2
   s  14
  5.055750100E+04  1.128874000E-04
  7.524785600E+03  5.295373000E-04
  1.694327600E+03  2.450038300E-03
  4.728227900E+02  1.005398470E-02
  1.517107500E+02  3.545398060E-02
  5.391874600E+01  1.044071086E-01
  2.065931100E+01  2.412894918E-01
  8.383976000E+00  3.834225483E-01
  3.577015000E+00  3.078514393E-01
  1.547118000E+00  6.872442990E-02
  6.130130000E-01  2.224445000E-04
  2.460680000E-01  1.976748900E-03
  9.908700000E-02  2.057859400E-03
  3.468000000E-02  4.182020000E-04
   s  14
  5.055750100E+04 -2.507420000E-05
  7.524785600E+03 -1.175945000E-04
  1.694327600E+03 -5.456275000E-04
  4.728227900E+02 -2.245077100E-03
  1.517107500E+02 -8.043471800E-03
  5.391874600E+01 -2.442588710E-02
  2.065931100E+01 -6.136791180E-02
  8.383976000E+00 -1.177767835E-01
  3.577015000E+00 -1.550487783E-01
  1.547118000E+00 -1.933316860E-02
  6.130130000E-01  3.996930678E-01
  2.460680000E-01  5.589420949E-01
  9.908700000E-02  1.711195023E-01
  3.468000000E-02  7.456244600E-03
   p   9
  8.333315500E+01  1.344656000E-03
  1.955761100E+01  1.023555500E-02
  6.080365000E+00  4.520067100E-02
  2.179317000E+00  1.410756198E-01
  8.651500000E-01  3.047388085E-01
  3.619440000E-01  3.995281011E-01
  1.547400000E-01  2.719163432E-01
  6.542900000E-02  5.857669330E-02
  2.290000000E-02 -1.263813000E-04
 
[MO]
Sym=     1a  
Ene=   -11.3650
Spin= Alpha
Occup=    2.00000
   1        -0.00014507
   2        -0.00136464
   3        -0.00000000
   4         0.00000000
   5        -0.00050806
   6         1.00015402
   7        -0.00059852
   8         0.00000000
   9        -0.00000000
  10        -0.00070446
Sym=     2a  
Ene=    -7.7724
Spin= Alpha
Occup=    2.00000
   1         0.99976028
   2         0.01510668
   3         0.00000000
   4        -0.00000000
   5         0.00166195
   6        -0.00102611
   7         0.00018650
   8        -0.00000000
   9         0.00000000
  10        -0.00084969
Sym=     3a  
Ene=    -0.9051
Spin= Alpha
Occup=    2.00000
   1        -0.08320839
   2         0.25889424
   3         0.00000002
   4        -0.00000005
   5         0.19750157
   6        -0.03979860
   7         0.68763025
   8         0.00000005
   9        -0.00000013
  10        -0.20371394
Sym=     4a  
Ene=    -0.4132
Spin= Alpha
Occup=    2.00000
   1        -0.00000000
   2         0.00000000
   3        -0.43633811
   4        -0.15686432
   5         0.00000000
   6        -0.00000000
   7        -0.00000001
   8        -0.68106044
   9        -0.24484243
  10        -0.00000001
Sym=     5a  
Ene=    -0.4132
Spin= Alpha
Occup=    2.00000
   1         0.00000010
   2        -0.00000062
   3        -0.15686432
   4         0.43633811
   5        -0.00000007
   6         0.00000006
   7         0.00000121
   8        -0.24484243
   9         0.68106044
  10         0.00000137
Sym=     6a  
Ene=    -0.2462
Spin= Alpha
Occup=    1.00000
   1         0.00484600
   2        -0.81070685
   3         0.00000019
   4        -0.00000055
   5         0.46352598
   6         0.00275230
   7         0.36768112
   8         0.00000029
   9        -0.00000082
  10         0.16088318
Sym=     7a  
Ene=     0.0000
Spin= Alpha
Occup=   -0.00000
   1         0.10822543
   2         0.44520546
   3         0.00000624
   4        -0.00001766
   5        -0.23899401
   6        -0.00267894
   7         0.19049223
   8        -0.00000462
   9         0.00001306
  10         0.98788507
Sym=     8a  
Ene=     0.2218
Spin= Alpha
Occup=    0.00000
   1         0.00000081
   2         0.00000077
   3        -0.32716779
   4         0.92545979
   5        -0.00001199
   6         0.00000136
   7         0.00001214
   8         0.26969287
   9        -0.76288044
  10         0.00001317
Sym=     9a  
Ene=     0.2218
Spin= Alpha
Occup=    0.00000
   1        -0.00000000
   2        -0.00000000
   3        -0.92545979
   4        -0.32716779
   5         0.00000000
   6        -0.00000000
   7        -0.00000000
   8         0.76288044
   9         0.26969287
  10        -0.00000000
Sym=    10a  
Ene=     0.8341
Spin= Alpha
Occup=    0.00000
   1        -0.22596953
   2        -1.41338325
   3         0.00000175
   4        -0.00000495
   5        -1.44886962
   6         0.26869843
   7         1.64955904
   8        -0.00000136
   9         0.00000384
  10        -0.95762583
