[Molden Format]
[N_Atoms]
                     2
[Atoms] (AU)
B1          1      5           0.00000000      0.00000000      0.00000000
C2          2      6           0.00000000      0.00000000      2.45664396
[Charge] (Mulliken)
  0.178537274408040     
 -0.178537274408064     
[GTO] (AU)
   1
   s  14
  3.336021700E+04  1.039699991E-04
  4.972095200E+03  5.254399956E-04
  1.125641700E+03  2.509059979E-03
  3.164913600E+02  1.031887991E-02
  1.020072600E+02  3.636632969E-02
  3.629587300E+01  1.064607991E-01
  1.397141000E+01  2.403999880E-01
  5.741156000E+00  3.748581168E-01
  2.494268000E+00  3.100066974E-01
  1.114202000E+00  7.922455933E-02
  4.215490000E-01 -4.947589958E-03
  1.696330000E-01 -7.737119935E-03
  6.853500000E-02 -1.501079987E-03
  2.398700000E-02 -1.333299989E-04
   s  14
  3.336021700E+04 -2.030000008E-05
  4.972095200E+03 -1.025700004E-04
  1.125641700E+03 -4.911300020E-04
  3.164913600E+02 -2.026570008E-03
  1.020072600E+02 -7.261010030E-03
  3.629587300E+01 -2.197722009E-02
  1.397141000E+01 -5.408428022E-02
  5.741156000E+00 -1.022402604E-01
  2.494268000E+00 -1.423595206E-01
  1.114202000E+00 -4.658690019E-02
  4.215490000E-01  3.799402916E-01
  1.696330000E-01  5.890463624E-01
  6.853500000E-02  1.749075107E-01
  2.398700000E-02 -1.142030005E-03
   p   9
  5.500000000E+01  1.229800005E-03
  1.336610100E+01  8.827380035E-03
  4.135394000E+00  3.843340015E-02
  1.481256000E+00  1.150031805E-01
  6.021360000E-01  2.733674011E-01
  2.556360000E-01  4.061972116E-01
  1.111510000E-01  3.014967912E-01
  4.764800000E-02  7.684809030E-02
  1.667700000E-02 -8.170000032E-06
 
   2
   s  14
  5.055750100E+04  1.128874000E-04
  7.524785600E+03  5.295373000E-04
  1.694327600E+03  2.450038300E-03
  4.728227900E+02  1.005398470E-02
  1.517107500E+02  3.545398060E-02
  5.391874600E+01  1.044071086E-01
  2.065931100E+01  2.412894918E-01
  8.383976000E+00  3.834225483E-01
  3.577015000E+00  3.078514393E-01
  1.547118000E+00  6.872442990E-02
  6.130130000E-01  2.224445000E-04
  2.460680000E-01  1.976748900E-03
  9.908700000E-02  2.057859400E-03
  3.468000000E-02  4.182020000E-04
   s  14
  5.055750100E+04 -2.507420000E-05
  7.524785600E+03 -1.175945000E-04
  1.694327600E+03 -5.456275000E-04
  4.728227900E+02 -2.245077100E-03
  1.517107500E+02 -8.043471800E-03
  5.391874600E+01 -2.442588710E-02
  2.065931100E+01 -6.136791180E-02
  8.383976000E+00 -1.177767835E-01
  3.577015000E+00 -1.550487783E-01
  1.547118000E+00 -1.933316860E-02
  6.130130000E-01  3.996930678E-01
  2.460680000E-01  5.589420949E-01
  9.908700000E-02  1.711195023E-01
  3.468000000E-02  7.456244600E-03
   p   9
  8.333315500E+01  1.344656000E-03
  1.955761100E+01  1.023555500E-02
  6.080365000E+00  4.520067100E-02
  2.179317000E+00  1.410756198E-01
  8.651500000E-01  3.047388085E-01
  3.619440000E-01  3.995281011E-01
  1.547400000E-01  2.719163432E-01
  6.542900000E-02  5.857669330E-02
  2.290000000E-02 -1.263813000E-04
 
[MO]
Sym=     1a  
Ene=   -11.3370
Spin= Alpha
Occup=    1.00000
   1        -0.00061987
   2        -0.00336879
   3         0.00000000
   4         0.00000000
   5        -0.00182770
   6         1.00044831
   7         0.00383317
   8        -0.00000000
   9        -0.00000000
  10        -0.00255709
Sym=     1a  
Ene=   -11.2760
Spin= Beta
Occup=    1.00000
   1        -0.00017482
   2        -0.00147462
   3         0.00000000
   4         0.00000000
   5        -0.00039128
   6         1.00014229
   7        -0.00256982
   8        -0.00000000
   9         0.00000000
  10        -0.00193089
Sym=     2a  
Ene=    -7.7168
Spin= Alpha
Occup=    1.00000
   1         0.99972312
   2         0.01458525
   3         0.00000000
   4        -0.00000000
   5         0.00213408
   6        -0.00111565
   7        -0.00002188
   8         0.00000000
   9        -0.00000000
  10        -0.00130787
Sym=     2a  
Ene=    -7.7466
Spin= Beta
Occup=    1.00000
   1         0.99971394
   2         0.01619570
   3        -0.00000000
   4         0.00000000
   5         0.00104707
   6        -0.00100957
   7         0.00015682
   8        -0.00000000
   9         0.00000000
  10        -0.00109389
Sym=     3a  
Ene=    -0.9944
Spin= Alpha
Occup=    1.00000
   1        -0.07834173
   2         0.20394908
   3        -0.00000000
   4         0.00000000
   5         0.18636675
   6        -0.03719318
   7         0.75583111
   8         0.00000000
   9         0.00000000
  10        -0.13453970
Sym=     3a  
Ene=    -0.8382
Spin= Beta
Occup=    1.00000
   1        -0.08550012
   2         0.42108551
   3        -0.00000000
   4         0.00000000
   5         0.18237155
   6        -0.04852001
   7         0.50991057
   8        -0.00000000
   9         0.00000000
  10        -0.30035159
Sym=     4a  
Ene=    -0.5884
Spin= Alpha
Occup=    1.00000
   1         0.07211707
   2        -0.25081166
   3         0.00000000
   4         0.00000000
   5        -0.18901122
   6         0.03985777
   7         0.50106186
   8         0.00000000
   9         0.00000000
  10         0.80767670
Sym=     4a  
Ene=    -0.4878
Spin= Beta
Occup=    1.00000
   1        -0.02207413
   2        -0.73879015
   3         0.00000000
   4         0.00000000
   5         0.65790490
   6        -0.02459144
   7         0.25321771
   8        -0.00000000
   9         0.00000000
  10        -0.10906681
Sym=     5a  
Ene=    -0.4879
Spin= Alpha
Occup=    1.00000
   1         0.00000000
   2        -0.00000000
   3        -0.25000853
   4        -0.16886993
   5        -0.00000000
   6         0.00000000
   7         0.00000000
   8        -0.69872733
   9        -0.47196003
  10         0.00000000
Sym=     5a  
Ene=    -0.3841
Spin= Beta
Occup=    1.00000
   1        -0.00000000
   2        -0.00000000
   3         0.43995596
   4        -0.65134595
   5         0.00000000
   6        -0.00000000
   7         0.00000000
   8         0.21485283
   9        -0.31808529
  10        -0.00000000
Sym=     6a  
Ene=    -0.4627
Spin= Alpha
Occup=    1.00000
   1        -0.00000000
   2        -0.00000000
   3        -0.15408489
   4         0.22811958
   5         0.00000000
   6        -0.00000000
   7        -0.00000000
   8        -0.48146885
   9         0.71280495
  10        -0.00000000
Sym=     6a  
Ene=    -0.0130
Spin= Beta
Occup=    0.00000
   1         0.00000000
   2         0.00000000
   3         0.63143051
   4         0.42650395
   5        -0.00000000
   6         0.00000000
   7        -0.00000000
   8         0.34449425
   9         0.23269094
  10         0.00000000
Sym=     7a  
Ene=     0.0796
Spin= Alpha
Occup=    0.00000
   1         0.03832098
   2         0.86231722
   3         0.00000000
   4         0.00000000
   5        -0.58407813
   6         0.00855446
   7        -0.12362428
   8        -0.00000000
   9        -0.00000000
  10         0.31013224
Sym=     7a  
Ene=     0.1286
Spin= Beta
Occup=    0.00000
   1        -0.03853909
   2         0.08685657
   3        -0.00000000
   4         0.00000000
   5         0.35482325
   6        -0.05046889
   7        -0.75061354
   8         0.00000000
   9         0.00000000
  10        -0.71418148
Sym=     8a  
Ene=     0.2167
Spin= Alpha
Occup=    0.00000
   1        -0.00000000
   2         0.00000000
   3        -0.86416372
   4        -0.58370515
   5        -0.00000000
   6         0.00000000
   7         0.00000000
   8         0.56662450
   9         0.38273030
  10        -0.00000000
Sym=     8a  
Ene=     0.2843
Spin= Beta
Occup=    0.00000
   1         0.00000000
   2         0.00000000
   3         0.41912707
   4        -0.62050919
   5         0.00000000
   6        -0.00000000
   7        -0.00000000
   8        -0.56838984
   9         0.84148972
  10        -0.00000000
Sym=     9a  
Ene=     0.2530
Spin= Alpha
Occup=    0.00000
   1        -0.00000000
   2        -0.00000000
   3         0.58778108
   4        -0.87019806
   5         0.00000000
   6         0.00000000
   7         0.00000000
   8        -0.37069731
   9         0.54880990
  10         0.00000000
Sym=     9a  
Ene=     0.3481
Spin= Beta
Occup=    0.00000
   1        -0.00000000
   2        -0.00000000
   3        -0.64076416
   4        -0.43280843
   5        -0.00000000
   6         0.00000000
   7         0.00000000
   8         0.83102763
   9         0.56132315
  10         0.00000000
Sym=    10a  
Ene=     0.8542
Spin= Alpha
Occup=    0.00000
   1         0.23872416
   2         1.43946005
   3        -0.00000000
   4        -0.00000000
   5         1.41371658
   6        -0.26488377
   7        -1.58987929
   8         0.00000000
   9         0.00000000
  10         1.09257279
Sym=    10a  
Ene=     0.8815
Spin= Beta
Occup=    0.00000
   1         0.24603239
   2         1.47967212
   3        -0.00000000
   4        -0.00000000
   5         1.34840962
   6        -0.26137137
   7        -1.57410360
   8         0.00000000
   9        -0.00000000
  10         1.16111213
