[Molden Format]
[N_Atoms]
                     2
[Atoms] (AU)
C1          1      6           0.00000000      0.00000000      0.00000000
LI2         2      3           0.00000000      0.00000000      5.29123315
[Charge] (Mulliken)
  3.780696702800146E-002
 -3.780696702804587E-002
[GTO] (AU)
   1
   s  14
  5.055750100E+04  1.128874000E-04
  7.524785600E+03  5.295373000E-04
  1.694327600E+03  2.450038300E-03
  4.728227900E+02  1.005398470E-02
  1.517107500E+02  3.545398060E-02
  5.391874600E+01  1.044071086E-01
  2.065931100E+01  2.412894918E-01
  8.383976000E+00  3.834225483E-01
  3.577015000E+00  3.078514393E-01
  1.547118000E+00  6.872442990E-02
  6.130130000E-01  2.224445000E-04
  2.460680000E-01  1.976748900E-03
  9.908700000E-02  2.057859400E-03
  3.468000000E-02  4.182020000E-04
   s  14
  5.055750100E+04 -2.507420000E-05
  7.524785600E+03 -1.175945000E-04
  1.694327600E+03 -5.456275000E-04
  4.728227900E+02 -2.245077100E-03
  1.517107500E+02 -8.043471800E-03
  5.391874600E+01 -2.442588710E-02
  2.065931100E+01 -6.136791180E-02
  8.383976000E+00 -1.177767835E-01
  3.577015000E+00 -1.550487783E-01
  1.547118000E+00 -1.933316860E-02
  6.130130000E-01  3.996930678E-01
  2.460680000E-01  5.589420949E-01
  9.908700000E-02  1.711195023E-01
  3.468000000E-02  7.456244600E-03
   p   9
  8.333315500E+01  1.344656000E-03
  1.955761100E+01  1.023555500E-02
  6.080365000E+00  4.520067100E-02
  2.179317000E+00  1.410756198E-01
  8.651500000E-01  3.047388085E-01
  3.619440000E-01  3.995281011E-01
  1.547400000E-01  2.719163432E-01
  6.542900000E-02  5.857669330E-02
  2.290000000E-02 -1.263813000E-04
 
   2
   s  14
  9.497934400E+03  9.668999974E-05
  1.416811200E+03  6.087099984E-04
  3.214599400E+02  3.101519992E-03
  9.112416300E+01  1.266904997E-02
  2.999989100E+01  4.248012989E-02
  1.101763100E+01  1.150183297E-01
  4.372801000E+00  2.398650094E-01
  1.831256000E+00  3.584300090E-01
  8.022610000E-01  3.048527792E-01
  3.626480000E-01  8.824261976E-02
  1.139950000E-01 -8.445899977E-04
  5.123700000E-02 -7.943959979E-03
  2.246800000E-02 -3.764419990E-03
  7.860000000E-03 -8.868999976E-05
   s  14
  9.497934400E+03 -1.244999993E-05
  1.416811200E+03 -7.838999954E-05
  3.214599400E+02 -4.007099976E-04
  9.112416300E+01 -1.645249990E-03
  2.999989100E+01 -5.634599967E-03
  1.101763100E+01 -1.590780991E-02
  4.372801000E+00 -3.612581979E-02
  1.831256000E+00 -6.459927962E-02
  8.022610000E-01 -1.008321794E-01
  3.626480000E-01 -9.757613942E-02
  1.139950000E-01  2.301215886E-01
  5.123700000E-02  6.102389764E-01
  2.246800000E-02  2.849406083E-01
  7.860000000E-03  4.026899976E-03
   p   9
  1.311950400E+01  1.524940000E-03
  3.077424200E+00  8.314830000E-03
  1.098800500E+00  1.933203000E-02
  4.357784000E-01  4.934293000E-02
  1.802432000E-01  1.623554000E-01
  7.613330000E-02  3.847505400E-01
  3.254650000E-02  4.336100400E-01
  1.401820000E-02  1.287005900E-01
  4.906400000E-03 -1.018520000E-03
 
[MO]
Sym=     1a  
Ene=   -11.3120
Spin= Alpha
Occup=    1.00000
   1         1.00007846
   2         0.00065571
   3         0.00000000
   4         0.00000000
   5         0.00047942
   6        -0.00009949
   7        -0.00106933
   8         0.00000000
   9        -0.00000000
  10         0.00135297
Sym=     1a  
Ene=   -11.2650
Spin= Beta
Occup=    1.00000
   1         1.00002145
   2        -0.00460806
   3        -0.00000000
   4        -0.00000000
   5         0.00029165
   6        -0.00006563
   7        -0.00050052
   8        -0.00000000
   9        -0.00000000
  10         0.00054858
Sym=     2a  
Ene=    -2.4633
Spin= Alpha
Occup=    1.00000
   1        -0.00005658
   2         0.00014044
   3        -0.00000000
   4        -0.00000000
   5         0.00048942
   6         0.99990155
   7         0.01315568
   8         0.00000000
   9        -0.00000000
  10        -0.00085397
Sym=     2a  
Ene=    -2.4762
Spin= Beta
Occup=    1.00000
   1        -0.00000709
   2         0.00032712
   3        -0.00000000
   4        -0.00000000
   5         0.00004700
   6         0.99992395
   7         0.01203351
   8         0.00000000
   9        -0.00000000
  10        -0.00035696
Sym=     3a  
Ene=    -0.8310
Spin= Alpha
Occup=    1.00000
   1        -0.00055078
   2         0.99417509
   3        -0.00000000
   4         0.00000000
   5         0.00685280
   6        -0.00857087
   7         0.00779210
   8         0.00000000
   9        -0.00000000
  10        -0.01111825
Sym=     3a  
Ene=    -0.5969
Spin= Beta
Occup=    1.00000
   1         0.00142655
   2         0.96434540
   3         0.00000000
   4        -0.00000000
   5         0.02599376
   6        -0.00911647
   7         0.05960340
   8         0.00000000
   9         0.00000000
  10        -0.05296607
Sym=     4a  
Ene=    -0.4463
Spin= Alpha
Occup=    1.00000
   1        -0.00361107
   2        -0.04361377
   3        -0.00000000
   4         0.00000000
   5         0.97951592
   6        -0.02145355
   7         0.05527783
   8        -0.00000000
   9         0.00000000
  10        -0.05795094
Sym=     4a  
Ene=    -0.1845
Spin= Beta
Occup=    1.00000
   1        -0.01394034
   2        -0.20079240
   3        -0.00000000
   4         0.00000000
   5         0.09743819
   6        -0.01211965
   7         0.97544057
   8         0.00000000
   9         0.00000000
  10         0.18450590
Sym=     5a  
Ene=    -0.4448
Spin= Alpha
Occup=    1.00000
   1         0.00000000
   2         0.00000000
   3        -0.89000060
   4         0.44874128
   5        -0.00000000
   6         0.00000000
   7        -0.00000000
   8        -0.02055308
   9         0.01036293
  10         0.00000000
Sym=     5a  
Ene=     0.0339
Spin= Beta
Occup=    0.00000
   1         0.00000000
   2         0.00000000
   3         0.12081013
   4         0.23960597
   5        -0.00000000
   6         0.00000000
   7        -0.00000000
   8         0.41819116
   9         0.82940972
  10         0.00000000
Sym=     6a  
Ene=     0.0448
Spin= Alpha
Occup=    0.00000
   1        -0.00000000
   2        -0.00000000
   3         0.33297148
   4         0.66039125
   5        -0.00000000
   6        -0.00000000
   7         0.00000000
   8         0.26259188
   9         0.52080550
  10         0.00000000
Sym=     6a  
Ene=     0.0401
Spin= Beta
Occup=    0.00000
   1         0.00000000
   2         0.00000000
   3         0.14268203
   4        -0.07194076
   5        -0.00000000
   6        -0.00000000
   7         0.00000000
   8         0.86298635
   9        -0.43512061
  10         0.00000000
Sym=     7a  
Ene=     0.0597
Spin= Alpha
Occup=    0.00000
   1         0.01572012
   2         0.17638144
   3         0.00000000
   4         0.00000000
   5         0.17889928
   6         0.00797990
   7        -1.01309136
   8         0.00000000
   9         0.00000000
  10        -0.14538055
Sym=     7a  
Ene=     0.0679
Spin= Beta
Occup=    0.00000
   1         0.04132536
   2         0.42818857
   3        -0.00000000
   4        -0.00000000
   5        -0.35473322
   6         0.00591216
   7        -0.13024641
   8        -0.00000000
   9        -0.00000000
  10         0.93073382
Sym=     8a  
Ene=     0.0933
Spin= Alpha
Occup=    0.00000
   1         0.00000000
   2         0.00000000
   3        -0.13812431
   4         0.06964274
   5         0.00000000
   6        -0.00000000
   7        -0.00000000
   8         0.90042044
   9        -0.45399500
  10         0.00000000
Sym=     8a  
Ene=     0.1482
Spin= Beta
Occup=    0.00000
   1         0.00000000
   2         0.00000000
   3         0.43774851
   4         0.86819835
   5         0.00000000
   6         0.00000000
   7        -0.00000000
   8        -0.17701696
   9        -0.35108247
  10         0.00000000
Sym=     9a  
Ene=     0.1185
Spin= Alpha
Occup=    0.00000
   1        -0.00000000
   2        -0.00000000
   3        -0.30878608
   4        -0.61242370
   5        -0.00000000
   6        -0.00000000
   7         0.00000000
   8         0.37049205
   9         0.73480679
  10        -0.00000000
Sym=     9a  
Ene=     0.2064
Spin= Beta
Occup=    0.00000
   1        -0.00000000
   2        -0.00000000
   3         0.88928130
   4        -0.44837861
   5        -0.00000000
   6         0.00000000
   7         0.00000000
   8        -0.25774785
   9         0.12995733
  10        -0.00000000
Sym=    10a  
Ene=     0.1359
Spin= Alpha
Occup=    0.00000
   1         0.04927024
   2         0.45696518
   3        -0.00000000
   4        -0.00000000
   5         0.27316274
   6        -0.00518407
   7        -0.25941691
   8         0.00000000
   9         0.00000000
  10         1.08498469
Sym=    10a  
Ene=     0.2338
Spin= Beta
Occup=    0.00000
   1         0.02996472
   2         0.27670903
   3         0.00000000
   4        -0.00000000
   5         0.96442526
   6        -0.01773476
   7        -0.35326443
   8        -0.00000000
   9         0.00000000
  10         0.54653276
