[Molden Format]
[N_Atoms]
                     2
[Atoms] (AU)
F1          1      9           0.00000000      0.00000000      0.00000000
LI2         2      3           0.00000000      0.00000000      5.10226054
[Charge] (Mulliken)
 -0.678690766837956     
  0.678690766837931     
[GTO] (AU)
   1
   s  14
  1.031094600E+05  1.713099991E-04
  1.528100700E+04  7.123999962E-04
  3.441539200E+03  2.990479984E-03
  9.670948300E+02  1.164036994E-02
  3.140353400E+02  3.968642979E-02
  1.134423000E+02  1.128546094E-01
  4.464472700E+01  2.473650687E-01
  1.894287400E+01  3.672702681E-01
  8.532743000E+00  2.896286985E-01
  3.919401000E+00  7.786681959E-02
  1.568157000E+00  4.562139976E-03
  6.232900000E-01  2.468879987E-03
  2.408610000E-01  1.106309994E-03
  8.430100000E-02  1.739699991E-04
   s  14
  1.031094600E+05 -4.044999995E-05
  1.528100700E+04 -1.682299998E-04
  3.441539200E+03 -7.084299991E-04
  9.670948300E+02 -2.767999996E-03
  3.140353400E+02 -9.611379987E-03
  1.134423000E+02 -2.833957996E-02
  4.464472700E+01 -6.839343991E-02
  1.894287400E+01 -1.237379298E-01
  8.532743000E+00 -1.512859698E-01
  3.919401000E+00 -9.099909988E-03
  1.568157000E+00  3.716257695E-01
  6.232900000E-01  5.500214393E-01
  2.408610000E-01  2.092318697E-01
  8.430100000E-02  8.074639989E-03
   p   9
  2.453302900E+02  1.024860004E-03
  5.691900500E+01  8.344290032E-03
  1.760456800E+01  4.078927016E-02
  6.274995000E+00  1.351370605E-01
  2.447030000E+00  2.798830811E-01
  9.950600000E-01  3.597966414E-01
  4.039730000E-01  3.055347412E-01
  1.548100000E-01  1.354703905E-01
  5.418400000E-02  2.804449011E-02
 
   2
   s  14
  9.497934400E+03  9.668999974E-05
  1.416811200E+03  6.087099984E-04
  3.214599400E+02  3.101519992E-03
  9.112416300E+01  1.266904997E-02
  2.999989100E+01  4.248012989E-02
  1.101763100E+01  1.150183297E-01
  4.372801000E+00  2.398650094E-01
  1.831256000E+00  3.584300090E-01
  8.022610000E-01  3.048527792E-01
  3.626480000E-01  8.824261976E-02
  1.139950000E-01 -8.445899977E-04
  5.123700000E-02 -7.943959979E-03
  2.246800000E-02 -3.764419990E-03
  7.860000000E-03 -8.868999976E-05
   s  14
  9.497934400E+03 -1.244999993E-05
  1.416811200E+03 -7.838999954E-05
  3.214599400E+02 -4.007099976E-04
  9.112416300E+01 -1.645249990E-03
  2.999989100E+01 -5.634599967E-03
  1.101763100E+01 -1.590780991E-02
  4.372801000E+00 -3.612581979E-02
  1.831256000E+00 -6.459927962E-02
  8.022610000E-01 -1.008321794E-01
  3.626480000E-01 -9.757613942E-02
  1.139950000E-01  2.301215886E-01
  5.123700000E-02  6.102389764E-01
  2.246800000E-02  2.849406083E-01
  7.860000000E-03  4.026899976E-03
   p   9
  1.311950400E+01  1.524940000E-03
  3.077424200E+00  8.314830000E-03
  1.098800500E+00  1.933203000E-02
  4.357784000E-01  4.934293000E-02
  1.802432000E-01  1.623554000E-01
  7.613330000E-02  3.847505400E-01
  3.254650000E-02  4.336100400E-01
  1.401820000E-02  1.287005900E-01
  4.906400000E-03 -1.018520000E-03
 
[MO]
Sym=     1a  
Ene=   -25.7830
Spin= Alpha
Occup=    1.00000
   1         1.00000576
   2        -0.00232121
   3         0.00000000
   4         0.00000000
   5         0.00034657
   6        -0.00001099
   7        -0.00018196
   8         0.00000000
   9        -0.00000000
  10         0.00027387
Sym=     1a  
Ene=   -25.7830
Spin= Beta
Occup=    1.00000
   1         1.00000576
   2        -0.00232121
   3         0.00000000
   4         0.00000000
   5         0.00034657
   6        -0.00001099
   7        -0.00018196
   8         0.00000000
   9        -0.00000000
  10         0.00027387
Sym=     2a  
Ene=    -2.5596
Spin= Alpha
Occup=    1.00000
   1         0.00004330
   2         0.00087281
   3        -0.00000000
   4         0.00000000
   5         0.00051686
   6         0.99991604
   7         0.01219185
   8         0.00000000
   9         0.00000000
  10         0.00189054
Sym=     2a  
Ene=    -2.5596
Spin= Beta
Occup=    1.00000
   1         0.00004330
   2         0.00087281
   3        -0.00000000
   4         0.00000000
   5         0.00051686
   6         0.99991604
   7         0.01219185
   8         0.00000000
   9         0.00000000
  10         0.00189054
Sym=     3a  
Ene=    -1.2022
Spin= Alpha
Occup=    1.00000
   1         0.00139326
   2         0.98910201
   3        -0.00000000
   4        -0.00000000
   5         0.00460173
   6        -0.00224479
   7         0.02361573
   8         0.00000000
   9         0.00000000
  10        -0.03064156
Sym=     3a  
Ene=    -1.2022
Spin= Beta
Occup=    1.00000
   1         0.00139326
   2         0.98910201
   3        -0.00000000
   4        -0.00000000
   5         0.00460173
   6        -0.00224479
   7         0.02361573
   8         0.00000000
   9         0.00000000
  10        -0.03064156
Sym=     4a  
Ene=    -0.3165
Spin= Alpha
Occup=    1.00000
   1         0.00000000
   2         0.00000000
   3         0.66942630
   4         0.72862409
   5        -0.00000000
   6         0.00000000
   7        -0.00000000
   8         0.05622552
   9         0.06119758
  10         0.00000000
Sym=     4a  
Ene=    -0.3165
Spin= Beta
Occup=    1.00000
   1         0.00000000
   2         0.00000000
   3         0.66942630
   4         0.72862409
   5        -0.00000000
   6         0.00000000
   7        -0.00000000
   8         0.05622552
   9         0.06119758
  10         0.00000000
Sym=     5a  
Ene=    -0.3165
Spin= Alpha
Occup=    1.00000
   1         0.00000000
   2         0.00000000
   3        -0.72862409
   4         0.66942630
   5        -0.00000000
   6         0.00000000
   7        -0.00000000
   8        -0.06119758
   9         0.05622552
  10         0.00000000
Sym=     5a  
Ene=    -0.3165
Spin= Beta
Occup=    1.00000
   1         0.00000000
   2         0.00000000
   3        -0.72862409
   4         0.66942630
   5        -0.00000000
   6         0.00000000
   7        -0.00000000
   8        -0.06119758
   9         0.05622552
  10         0.00000000
Sym=     6a  
Ene=    -0.2818
Spin= Alpha
Occup=    1.00000
   1        -0.00719375
   2        -0.08944193
   3         0.00000000
   4         0.00000000
   5         0.91590262
   6        -0.01447396
   7         0.25337676
   8         0.00000000
   9         0.00000000
  10        -0.15793494
Sym=     6a  
Ene=    -0.2818
Spin= Beta
Occup=    1.00000
   1        -0.00719375
   2        -0.08944193
   3         0.00000000
   4         0.00000000
   5         0.91590262
   6        -0.01447396
   7         0.25337676
   8         0.00000000
   9         0.00000000
  10        -0.15793494
Sym=     7a  
Ene=    -0.0264
Spin= Alpha
Occup=    0.00000
   1         0.00134591
   2         0.00217939
   3        -0.00000000
   4        -0.00000000
   5        -0.17367456
   6        -0.00909038
   7         0.84761696
   8        -0.00000000
   9        -0.00000000
  10         0.51330218
Sym=     7a  
Ene=    -0.0264
Spin= Beta
Occup=    0.00000
   1         0.00134591
   2         0.00217939
   3        -0.00000000
   4        -0.00000000
   5        -0.17367456
   6        -0.00909038
   7         0.84761696
   8        -0.00000000
   9        -0.00000000
  10         0.51330218
Sym=     8a  
Ene=     0.0480
Spin= Alpha
Occup=    0.00000
   1         0.00000000
   2         0.00000000
   3        -0.16659588
   4         0.02436100
   5        -0.00000000
   6        -0.00000000
   7         0.00000000
   8         0.98970756
   9        -0.14472308
  10         0.00000000
Sym=     8a  
Ene=     0.0480
Spin= Beta
Occup=    0.00000
   1         0.00000000
   2         0.00000000
   3        -0.16659588
   4         0.02436100
   5        -0.00000000
   6        -0.00000000
   7         0.00000000
   8         0.98970756
   9        -0.14472308
  10         0.00000000
Sym=     9a  
Ene=     0.0480
Spin= Alpha
Occup=    0.00000
   1         0.00000000
   2         0.00000000
   3        -0.02436100
   4        -0.16659588
   5         0.00000000
   6        -0.00000000
   7         0.00000000
   8         0.14472308
   9         0.98970756
  10         0.00000000
Sym=     9a  
Ene=     0.0480
Spin= Beta
Occup=    0.00000
   1         0.00000000
   2         0.00000000
   3        -0.02436100
   4        -0.16659588
   5         0.00000000
   6        -0.00000000
   7         0.00000000
   8         0.14472308
   9         0.98970756
  10         0.00000000
Sym=    10a  
Ene=     0.1492
Spin= Alpha
Occup=    0.00000
   1         0.02681129
   2         0.30130375
   3         0.00000000
   4         0.00000000
   5         0.39195616
   6        -0.00092604
   7        -0.49767439
   8        -0.00000000
   9        -0.00000000
  10         0.88320966
Sym=    10a  
Ene=     0.1492
Spin= Beta
Occup=    0.00000
   1         0.02681129
   2         0.30130375
   3         0.00000000
   4         0.00000000
   5         0.39195616
   6        -0.00092604
   7        -0.49767439
   8        -0.00000000
   9        -0.00000000
  10         0.88320966
