[Molden Format]
[N_Atoms]
                     2
[Atoms] (AU)
F1          1      9           0.00000000      0.00000000      0.00000000
F2          2      9           0.00000000      0.00000000      2.64561657
[Charge] (Mulliken)
  2.486899575160351E-014
 -4.263256414560601E-014
[GTO] (AU)
   1
   s  14
  1.031094600E+05  1.713099991E-04
  1.528100700E+04  7.123999962E-04
  3.441539200E+03  2.990479984E-03
  9.670948300E+02  1.164036994E-02
  3.140353400E+02  3.968642979E-02
  1.134423000E+02  1.128546094E-01
  4.464472700E+01  2.473650687E-01
  1.894287400E+01  3.672702681E-01
  8.532743000E+00  2.896286985E-01
  3.919401000E+00  7.786681959E-02
  1.568157000E+00  4.562139976E-03
  6.232900000E-01  2.468879987E-03
  2.408610000E-01  1.106309994E-03
  8.430100000E-02  1.739699991E-04
   s  14
  1.031094600E+05 -4.044999995E-05
  1.528100700E+04 -1.682299998E-04
  3.441539200E+03 -7.084299991E-04
  9.670948300E+02 -2.767999996E-03
  3.140353400E+02 -9.611379987E-03
  1.134423000E+02 -2.833957996E-02
  4.464472700E+01 -6.839343991E-02
  1.894287400E+01 -1.237379298E-01
  8.532743000E+00 -1.512859698E-01
  3.919401000E+00 -9.099909988E-03
  1.568157000E+00  3.716257695E-01
  6.232900000E-01  5.500214393E-01
  2.408610000E-01  2.092318697E-01
  8.430100000E-02  8.074639989E-03
   p   9
  2.453302900E+02  1.024860004E-03
  5.691900500E+01  8.344290032E-03
  1.760456800E+01  4.078927016E-02
  6.274995000E+00  1.351370605E-01
  2.447030000E+00  2.798830811E-01
  9.950600000E-01  3.597966414E-01
  4.039730000E-01  3.055347412E-01
  1.548100000E-01  1.354703905E-01
  5.418400000E-02  2.804449011E-02
 
   2
   s  14
  1.031094600E+05  1.713099991E-04
  1.528100700E+04  7.123999962E-04
  3.441539200E+03  2.990479984E-03
  9.670948300E+02  1.164036994E-02
  3.140353400E+02  3.968642979E-02
  1.134423000E+02  1.128546094E-01
  4.464472700E+01  2.473650687E-01
  1.894287400E+01  3.672702681E-01
  8.532743000E+00  2.896286985E-01
  3.919401000E+00  7.786681959E-02
  1.568157000E+00  4.562139976E-03
  6.232900000E-01  2.468879987E-03
  2.408610000E-01  1.106309994E-03
  8.430100000E-02  1.739699991E-04
   s  14
  1.031094600E+05 -4.044999995E-05
  1.528100700E+04 -1.682299998E-04
  3.441539200E+03 -7.084299991E-04
  9.670948300E+02 -2.767999996E-03
  3.140353400E+02 -9.611379987E-03
  1.134423000E+02 -2.833957996E-02
  4.464472700E+01 -6.839343991E-02
  1.894287400E+01 -1.237379298E-01
  8.532743000E+00 -1.512859698E-01
  3.919401000E+00 -9.099909988E-03
  1.568157000E+00  3.716257695E-01
  6.232900000E-01  5.500214393E-01
  2.408610000E-01  2.092318697E-01
  8.430100000E-02  8.074639989E-03
   p   9
  2.453302900E+02  1.024860004E-03
  5.691900500E+01  8.344290032E-03
  1.760456800E+01  4.078927016E-02
  6.274995000E+00  1.351370605E-01
  2.447030000E+00  2.798830811E-01
  9.950600000E-01  3.597966414E-01
  4.039730000E-01  3.055347412E-01
  1.548100000E-01  1.354703905E-01
  5.418400000E-02  2.804449011E-02
 
[MO]
Sym=     1a  
Ene=   -26.5070
Spin= Alpha
Occup=    2.00000
   1         0.70707760
   2        -0.00252703
   3        -0.00000000
   4        -0.00000000
   5         0.00048294
   6         0.70707781
   7        -0.00252704
   8         0.00000000
   9        -0.00000000
  10        -0.00048294
Sym=     2a  
Ene=   -26.5060
Spin= Alpha
Occup=    2.00000
   1        -0.70713591
   2         0.00210633
   3        -0.00000000
   4        -0.00000000
   5        -0.00065515
   6         0.70713570
   7        -0.00210633
   8         0.00000000
   9         0.00000000
  10        -0.00065515
Sym=     3a  
Ene=    -1.8201
Spin= Alpha
Occup=    2.00000
   1        -0.00580356
   2         0.63246803
   3        -0.00000000
   4         0.00000000
   5         0.09783664
   6        -0.00580356
   7         0.63246803
   8        -0.00000000
   9         0.00000000
  10        -0.09783664
Sym=     4a  
Ene=    -1.5379
Spin= Alpha
Occup=    2.00000
   1        -0.00714161
   2        -0.74348833
   3        -0.00000000
   4         0.00000000
   5         0.06894471
   6         0.00714161
   7         0.74348833
   8        -0.00000000
   9         0.00000000
  10         0.06894471
Sym=     5a  
Ene=    -0.8444
Spin= Alpha
Occup=    2.00000
   1        -0.00000000
   2        -0.00000000
   3        -0.04041740
   4         0.66445420
   5         0.00000000
   6        -0.00000000
   7        -0.00000000
   8        -0.04041740
   9         0.66445420
  10        -0.00000000
Sym=     6a  
Ene=    -0.8435
Spin= Alpha
Occup=    2.00000
   1        -0.00000000
   2        -0.00000000
   3         0.66445420
   4         0.04041740
   5         0.00000000
   6        -0.00000000
   7        -0.00000000
   8         0.66445420
   9         0.04041740
  10        -0.00000000
Sym=     7a  
Ene=    -0.7801
Spin= Alpha
Occup=    2.00000
   1         0.01562874
   2         0.23450798
   3         0.00000000
   4         0.00000000
   5        -0.65094572
   6         0.01562874
   7         0.23450798
   8         0.00000000
   9         0.00000000
  10         0.65094572
Sym=     8a  
Ene=    -0.7044
Spin= Alpha
Occup=    2.00000
   1         0.00000000
   2         0.00000000
   3         0.04598437
   4        -0.75597401
   5        -0.00000000
   6        -0.00000000
   7         0.00000000
   8        -0.04598437
   9         0.75597401
  10         0.00000000
Sym=     9a  
Ene=    -0.7017
Spin= Alpha
Occup=    1.98996
   1         0.00000000
   2         0.00000000
   3        -0.75597401
   4        -0.04598437
   5         0.00000000
   6        -0.00000000
   7        -0.00000000
   8         0.75597401
   9         0.04598437
  10         0.00000000
Sym=    10a  
Ene=     0.0004
Spin= Alpha
Occup=    0.01004
   1         0.02374875
   2         0.29692333
   3         0.00000000
   4         0.00000000
   5         0.82674374
   6        -0.02374875
   7        -0.29692333
   8        -0.00000000
   9        -0.00000000
  10         0.82674374
