[Molden Format]
[N_Atoms]
                     2
[Atoms] (AU)
F1          1      9           0.00000000      0.00000000      0.00000000
F2          2      9           0.00000000      0.00000000      2.64561657
[Charge] (Mulliken)
  6.572520305780927E-014
 -7.460698725481052E-014
[GTO] (AU)
   1
   s  14
  1.031094600E+05  1.713099991E-04
  1.528100700E+04  7.123999962E-04
  3.441539200E+03  2.990479984E-03
  9.670948300E+02  1.164036994E-02
  3.140353400E+02  3.968642979E-02
  1.134423000E+02  1.128546094E-01
  4.464472700E+01  2.473650687E-01
  1.894287400E+01  3.672702681E-01
  8.532743000E+00  2.896286985E-01
  3.919401000E+00  7.786681959E-02
  1.568157000E+00  4.562139976E-03
  6.232900000E-01  2.468879987E-03
  2.408610000E-01  1.106309994E-03
  8.430100000E-02  1.739699991E-04
   s  14
  1.031094600E+05 -4.044999995E-05
  1.528100700E+04 -1.682299998E-04
  3.441539200E+03 -7.084299991E-04
  9.670948300E+02 -2.767999996E-03
  3.140353400E+02 -9.611379987E-03
  1.134423000E+02 -2.833957996E-02
  4.464472700E+01 -6.839343991E-02
  1.894287400E+01 -1.237379298E-01
  8.532743000E+00 -1.512859698E-01
  3.919401000E+00 -9.099909988E-03
  1.568157000E+00  3.716257695E-01
  6.232900000E-01  5.500214393E-01
  2.408610000E-01  2.092318697E-01
  8.430100000E-02  8.074639989E-03
   p   9
  2.453302900E+02  1.024860004E-03
  5.691900500E+01  8.344290032E-03
  1.760456800E+01  4.078927016E-02
  6.274995000E+00  1.351370605E-01
  2.447030000E+00  2.798830811E-01
  9.950600000E-01  3.597966414E-01
  4.039730000E-01  3.055347412E-01
  1.548100000E-01  1.354703905E-01
  5.418400000E-02  2.804449011E-02
 
   2
   s  14
  1.031094600E+05  1.713099991E-04
  1.528100700E+04  7.123999962E-04
  3.441539200E+03  2.990479984E-03
  9.670948300E+02  1.164036994E-02
  3.140353400E+02  3.968642979E-02
  1.134423000E+02  1.128546094E-01
  4.464472700E+01  2.473650687E-01
  1.894287400E+01  3.672702681E-01
  8.532743000E+00  2.896286985E-01
  3.919401000E+00  7.786681959E-02
  1.568157000E+00  4.562139976E-03
  6.232900000E-01  2.468879987E-03
  2.408610000E-01  1.106309994E-03
  8.430100000E-02  1.739699991E-04
   s  14
  1.031094600E+05 -4.044999995E-05
  1.528100700E+04 -1.682299998E-04
  3.441539200E+03 -7.084299991E-04
  9.670948300E+02 -2.767999996E-03
  3.140353400E+02 -9.611379987E-03
  1.134423000E+02 -2.833957996E-02
  4.464472700E+01 -6.839343991E-02
  1.894287400E+01 -1.237379298E-01
  8.532743000E+00 -1.512859698E-01
  3.919401000E+00 -9.099909988E-03
  1.568157000E+00  3.716257695E-01
  6.232900000E-01  5.500214393E-01
  2.408610000E-01  2.092318697E-01
  8.430100000E-02  8.074639989E-03
   p   9
  2.453302900E+02  1.024860004E-03
  5.691900500E+01  8.344290032E-03
  1.760456800E+01  4.078927016E-02
  6.274995000E+00  1.351370605E-01
  2.447030000E+00  2.798830811E-01
  9.950600000E-01  3.597966414E-01
  4.039730000E-01  3.055347412E-01
  1.548100000E-01  1.354703905E-01
  5.418400000E-02  2.804449011E-02
 
[MO]
Sym=     1a  
Ene=   -26.5070
Spin= Alpha
Occup=    1.00000
   1         0.70707757
   2        -0.00252802
   3         0.00000000
   4        -0.00000000
   5         0.00048420
   6         0.70707778
   7        -0.00252802
   8        -0.00000000
   9        -0.00000000
  10        -0.00048420
Sym=     1a  
Ene=   -26.5070
Spin= Beta
Occup=    1.00000
   1         0.70707757
   2        -0.00252802
   3         0.00000000
   4        -0.00000000
   5         0.00048420
   6         0.70707778
   7        -0.00252802
   8        -0.00000000
   9        -0.00000000
  10        -0.00048420
Sym=     2a  
Ene=   -26.5070
Spin= Alpha
Occup=    1.00000
   1        -0.70713623
   2         0.00210320
   3        -0.00000000
   4        -0.00000000
   5        -0.00066659
   6         0.70713602
   7        -0.00210320
   8        -0.00000000
   9        -0.00000000
  10        -0.00066659
Sym=     2a  
Ene=   -26.5070
Spin= Beta
Occup=    1.00000
   1        -0.70713623
   2         0.00210320
   3        -0.00000000
   4        -0.00000000
   5        -0.00066659
   6         0.70713602
   7        -0.00210320
   8        -0.00000000
   9        -0.00000000
  10        -0.00066659
Sym=     3a  
Ene=    -1.8202
Spin= Alpha
Occup=    1.00000
   1        -0.00580235
   2         0.63247778
   3        -0.00000000
   4         0.00000000
   5         0.09780957
   6        -0.00580235
   7         0.63247778
   8         0.00000000
   9         0.00000000
  10        -0.09780957
Sym=     3a  
Ene=    -1.8202
Spin= Beta
Occup=    1.00000
   1        -0.00580235
   2         0.63247778
   3        -0.00000000
   4         0.00000000
   5         0.09780957
   6        -0.00580235
   7         0.63247778
   8         0.00000000
   9         0.00000000
  10        -0.09780957
Sym=     4a  
Ene=    -1.5381
Spin= Alpha
Occup=    1.00000
   1        -0.00716591
   2        -0.74378074
   3        -0.00000000
   4         0.00000000
   5         0.06812949
   6         0.00716591
   7         0.74378074
   8        -0.00000000
   9         0.00000000
  10         0.06812949
Sym=     4a  
Ene=    -1.5381
Spin= Beta
Occup=    1.00000
   1        -0.00716591
   2        -0.74378074
   3        -0.00000000
   4         0.00000000
   5         0.06812949
   6         0.00716591
   7         0.74378074
   8        -0.00000000
   9         0.00000000
  10         0.06812949
Sym=     5a  
Ene=    -0.8445
Spin= Alpha
Occup=    1.00000
   1        -0.00000000
   2        -0.00000000
   3        -0.42675011
   4         0.51089852
   5         0.00000000
   6        -0.00000000
   7        -0.00000000
   8        -0.42675011
   9         0.51089852
  10        -0.00000000
Sym=     5a  
Ene=    -0.8445
Spin= Beta
Occup=    1.00000
   1        -0.00000000
   2        -0.00000000
   3        -0.42675011
   4         0.51089852
   5         0.00000000
   6        -0.00000000
   7        -0.00000000
   8        -0.42675011
   9         0.51089852
  10        -0.00000000
Sym=     6a  
Ene=    -0.8445
Spin= Alpha
Occup=    1.00000
   1         0.00000000
   2         0.00000000
   3         0.51089852
   4         0.42675011
   5        -0.00000000
   6         0.00000000
   7         0.00000000
   8         0.51089852
   9         0.42675011
  10         0.00000000
Sym=     6a  
Ene=    -0.8445
Spin= Beta
Occup=    1.00000
   1         0.00000000
   2         0.00000000
   3         0.51089852
   4         0.42675011
   5        -0.00000000
   6         0.00000000
   7         0.00000000
   8         0.51089852
   9         0.42675011
  10         0.00000000
Sym=     7a  
Ene=    -0.7793
Spin= Alpha
Occup=    1.00000
   1         0.01563044
   2         0.23448168
   3        -0.00000000
   4         0.00000000
   5        -0.65094979
   6         0.01563044
   7         0.23448168
   8        -0.00000000
   9         0.00000000
  10         0.65094979
Sym=     7a  
Ene=    -0.7793
Spin= Beta
Occup=    1.00000
   1         0.01563044
   2         0.23448168
   3        -0.00000000
   4         0.00000000
   5        -0.65094979
   6         0.01563044
   7         0.23448168
   8        -0.00000000
   9         0.00000000
  10         0.65094979
Sym=     8a  
Ene=    -0.7045
Spin= Alpha
Occup=    1.00000
   1        -0.00000000
   2        -0.00000000
   3         0.29677337
   4        -0.69680473
   5         0.00000000
   6        -0.00000000
   7         0.00000000
   8        -0.29677337
   9         0.69680473
  10        -0.00000000
Sym=     8a  
Ene=    -0.7045
Spin= Beta
Occup=    1.00000
   1        -0.00000000
   2        -0.00000000
   3         0.29677337
   4        -0.69680473
   5         0.00000000
   6        -0.00000000
   7         0.00000000
   8        -0.29677337
   9         0.69680473
  10        -0.00000000
Sym=     9a  
Ene=    -0.7045
Spin= Alpha
Occup=    1.00000
   1         0.00000000
   2         0.00000000
   3        -0.69680473
   4        -0.29677337
   5        -0.00000000
   6         0.00000000
   7         0.00000000
   8         0.69680473
   9         0.29677337
  10         0.00000000
Sym=     9a  
Ene=    -0.7045
Spin= Beta
Occup=    1.00000
   1         0.00000000
   2         0.00000000
   3        -0.69680473
   4        -0.29677337
   5        -0.00000000
   6         0.00000000
   7         0.00000000
   8         0.69680473
   9         0.29677337
  10         0.00000000
Sym=    10a  
Ene=     0.0598
Spin= Alpha
Occup=    0.00000
   1         0.02373199
   2         0.29619012
   3         0.00000000
   4        -0.00000000
   5         0.82681131
   6        -0.02373199
   7        -0.29619012
   8        -0.00000000
   9        -0.00000000
  10         0.82681131
Sym=    10a  
Ene=     0.0598
Spin= Beta
Occup=    0.00000
   1         0.02373199
   2         0.29619012
   3         0.00000000
   4        -0.00000000
   5         0.82681131
   6        -0.02373199
   7        -0.29619012
   8        -0.00000000
   9        -0.00000000
  10         0.82681131
