[Molden Format]
[N_Atoms]
                     2
[Atoms] (AU)
F1          1      9           0.00000000      0.00000000      0.00000000
F2          2      9           0.00000000      0.00000000      2.64561657
[Charge] (Mulliken)
  0.000000000000000E+000
  0.000000000000000E+000
[GTO] (AU)
   1
   s  14
  1.031094600E+05  1.713099991E-04
  1.528100700E+04  7.123999962E-04
  3.441539200E+03  2.990479984E-03
  9.670948300E+02  1.164036994E-02
  3.140353400E+02  3.968642979E-02
  1.134423000E+02  1.128546094E-01
  4.464472700E+01  2.473650687E-01
  1.894287400E+01  3.672702681E-01
  8.532743000E+00  2.896286985E-01
  3.919401000E+00  7.786681959E-02
  1.568157000E+00  4.562139976E-03
  6.232900000E-01  2.468879987E-03
  2.408610000E-01  1.106309994E-03
  8.430100000E-02  1.739699991E-04
   s  14
  1.031094600E+05 -4.044999995E-05
  1.528100700E+04 -1.682299998E-04
  3.441539200E+03 -7.084299991E-04
  9.670948300E+02 -2.767999996E-03
  3.140353400E+02 -9.611379987E-03
  1.134423000E+02 -2.833957996E-02
  4.464472700E+01 -6.839343991E-02
  1.894287400E+01 -1.237379298E-01
  8.532743000E+00 -1.512859698E-01
  3.919401000E+00 -9.099909988E-03
  1.568157000E+00  3.716257695E-01
  6.232900000E-01  5.500214393E-01
  2.408610000E-01  2.092318697E-01
  8.430100000E-02  8.074639989E-03
   p   9
  2.453302900E+02  1.024860004E-03
  5.691900500E+01  8.344290032E-03
  1.760456800E+01  4.078927016E-02
  6.274995000E+00  1.351370605E-01
  2.447030000E+00  2.798830811E-01
  9.950600000E-01  3.597966414E-01
  4.039730000E-01  3.055347412E-01
  1.548100000E-01  1.354703905E-01
  5.418400000E-02  2.804449011E-02
 
   2
   s  14
  1.031094600E+05  1.713099991E-04
  1.528100700E+04  7.123999962E-04
  3.441539200E+03  2.990479984E-03
  9.670948300E+02  1.164036994E-02
  3.140353400E+02  3.968642979E-02
  1.134423000E+02  1.128546094E-01
  4.464472700E+01  2.473650687E-01
  1.894287400E+01  3.672702681E-01
  8.532743000E+00  2.896286985E-01
  3.919401000E+00  7.786681959E-02
  1.568157000E+00  4.562139976E-03
  6.232900000E-01  2.468879987E-03
  2.408610000E-01  1.106309994E-03
  8.430100000E-02  1.739699991E-04
   s  14
  1.031094600E+05 -4.044999995E-05
  1.528100700E+04 -1.682299998E-04
  3.441539200E+03 -7.084299991E-04
  9.670948300E+02 -2.767999996E-03
  3.140353400E+02 -9.611379987E-03
  1.134423000E+02 -2.833957996E-02
  4.464472700E+01 -6.839343991E-02
  1.894287400E+01 -1.237379298E-01
  8.532743000E+00 -1.512859698E-01
  3.919401000E+00 -9.099909988E-03
  1.568157000E+00  3.716257695E-01
  6.232900000E-01  5.500214393E-01
  2.408610000E-01  2.092318697E-01
  8.430100000E-02  8.074639989E-03
   p   9
  2.453302900E+02  1.024860004E-03
  5.691900500E+01  8.344290032E-03
  1.760456800E+01  4.078927016E-02
  6.274995000E+00  1.351370605E-01
  2.447030000E+00  2.798830811E-01
  9.950600000E-01  3.597966414E-01
  4.039730000E-01  3.055347412E-01
  1.548100000E-01  1.354703905E-01
  5.418400000E-02  2.804449011E-02
 
[MO]
Sym=     1a  
Ene=   -26.4110
Spin= Alpha
Occup=    2.00000
   1         0.70705421
   2         0.00042078
   3        -0.00000000
   4         0.00000000
   5         0.00052762
   6         0.70705421
   7         0.00042078
   8        -0.00000000
   9        -0.00000000
  10        -0.00052762
Sym=     2a  
Ene=   -26.4060
Spin= Alpha
Occup=    2.00000
   1        -0.70712423
   2         0.00039734
   3         0.00000000
   4        -0.00000000
   5         0.00051609
   6         0.70712423
   7        -0.00039734
   8         0.00000000
   9         0.00000000
  10         0.00051609
Sym=     3a  
Ene=    -1.8747
Spin= Alpha
Occup=    2.00000
   1        -0.00924581
   2         0.62763379
   3        -0.00000000
   4         0.00000000
   5         0.11089213
   6        -0.00924581
   7         0.62763379
   8         0.00000000
   9        -0.00000000
  10        -0.11089213
Sym=     4a  
Ene=    -1.4240
Spin= Alpha
Occup=    2.00000
   1        -0.00278143
   2        -0.71132263
   3        -0.00000000
   4        -0.00000000
   5         0.14850684
   6         0.00278143
   7         0.71132263
   8         0.00000000
   9        -0.00000000
  10         0.14850684
Sym=     5a  
Ene=    -0.8250
Spin= Alpha
Occup=    2.00000
   1        -0.00000000
   2        -0.00000000
   3        -0.15607159
   4         0.64712797
   5         0.00000000
   6        -0.00000000
   7         0.00000000
   8        -0.15607159
   9         0.64712797
  10        -0.00000000
Sym=     6a  
Ene=    -0.8250
Spin= Alpha
Occup=    2.00000
   1         0.00000000
   2         0.00000000
   3         0.64712797
   4         0.15607159
   5        -0.00000000
   6         0.00000000
   7         0.00000000
   8         0.64712797
   9         0.15607159
  10         0.00000000
Sym=     7a  
Ene=    -0.8136
Spin= Alpha
Occup=    2.00000
   1         0.01502284
   2         0.24716764
   3        -0.00000000
   4        -0.00000000
   5        -0.64884916
   6         0.01502284
   7         0.24716764
   8        -0.00000000
   9        -0.00000000
  10         0.64884916
Sym=     8a  
Ene=    -0.6374
Spin= Alpha
Occup=    2.00000
   1        -0.00000000
   2        -0.00000000
   3        -0.73992090
   4         0.16164259
   5        -0.00000000
   6         0.00000000
   7        -0.00000000
   8         0.73992090
   9        -0.16164259
  10        -0.00000000
Sym=     9a  
Ene=    -0.6374
Spin= Alpha
Occup=    2.00000
   1         0.00000000
   2         0.00000000
   3        -0.16164259
   4        -0.73992090
   5         0.00000000
   6        -0.00000000
   7        -0.00000000
   8         0.16164259
   9         0.73992090
  10         0.00000000
Sym=    10a  
Ene=    -0.5016
Spin= Alpha
Occup=    0.00000
   1         0.02497267
   2         0.36737276
   3        -0.00000000
   4         0.00000000
   5         0.81621350
   6        -0.02497267
   7        -0.36737276
   8        -0.00000000
   9        -0.00000000
  10         0.81621350
