[Molden Format]
[N_Atoms]
                     2
[Atoms] (AU)
LI1         1      3           0.00000000      0.00000000      0.00000000
O2          2      8           0.00000000      0.00000000      4.15739747
[Charge] (Mulliken)
  0.197240578052896     
 -0.197240578052911     
[GTO] (AU)
   1
   s  14
  9.497934400E+03  9.668999974E-05
  1.416811200E+03  6.087099984E-04
  3.214599400E+02  3.101519992E-03
  9.112416300E+01  1.266904997E-02
  2.999989100E+01  4.248012989E-02
  1.101763100E+01  1.150183297E-01
  4.372801000E+00  2.398650094E-01
  1.831256000E+00  3.584300090E-01
  8.022610000E-01  3.048527792E-01
  3.626480000E-01  8.824261976E-02
  1.139950000E-01 -8.445899977E-04
  5.123700000E-02 -7.943959979E-03
  2.246800000E-02 -3.764419990E-03
  7.860000000E-03 -8.868999976E-05
   s  14
  9.497934400E+03 -1.244999993E-05
  1.416811200E+03 -7.838999954E-05
  3.214599400E+02 -4.007099976E-04
  9.112416300E+01 -1.645249990E-03
  2.999989100E+01 -5.634599967E-03
  1.101763100E+01 -1.590780991E-02
  4.372801000E+00 -3.612581979E-02
  1.831256000E+00 -6.459927962E-02
  8.022610000E-01 -1.008321794E-01
  3.626480000E-01 -9.757613942E-02
  1.139950000E-01  2.301215886E-01
  5.123700000E-02  6.102389764E-01
  2.246800000E-02  2.849406083E-01
  7.860000000E-03  4.026899976E-03
   p   9
  1.311950400E+01  1.524940000E-03
  3.077424200E+00  8.314830000E-03
  1.098800500E+00  1.933203000E-02
  4.357784000E-01  4.934293000E-02
  1.802432000E-01  1.623554000E-01
  7.613330000E-02  3.847505400E-01
  3.254650000E-02  4.336100400E-01
  1.401820000E-02  1.287005900E-01
  4.906400000E-03 -1.018520000E-03
 
   2
   s  14
  1.053749500E+05  1.238600013E-04
  1.567924000E+04  5.120100053E-04
  3.534544700E+03  2.152910022E-03
  9.873651600E+02  8.528440089E-03
  3.159787500E+02  3.018049031E-02
  1.116542800E+02  9.099702095E-02
  4.269945100E+01  2.177936423E-01
  1.739559600E+01  3.686245738E-01
  7.438309000E+00  3.366707335E-01
  3.222862000E+00  9.657630101E-02
  1.253877000E+00  2.144520022E-03
  4.951550000E-01  1.194350012E-03
  1.916650000E-01  5.390200056E-04
  6.708300000E-02  2.103400022E-04
   s  14
  1.053749500E+05 -2.815000008E-05
  1.567924000E+04 -1.163000003E-04
  3.534544700E+03 -4.909200013E-04
  9.873651600E+02 -1.946160005E-03
  3.159787500E+02 -7.005300019E-03
  1.116542800E+02 -2.167814006E-02
  4.269945100E+01 -5.641213015E-02
  1.739559600E+01 -1.127053003E-01
  7.438309000E+00 -1.589119704E-01
  3.222862000E+00 -3.355083009E-02
  1.253877000E+00  3.531902810E-01
  4.951550000E-01  5.534199315E-01
  1.916650000E-01  2.301839106E-01
  6.708300000E-02  1.127267003E-02
   p   9
  2.000000000E+02  9.173000030E-04
  4.653336700E+01  7.377140024E-03
  1.462180900E+01  3.483515011E-02
  5.313064000E+00  1.144397004E-01
  2.102525000E+00  2.554966408E-01
  8.502230000E-01  3.722557412E-01
  3.375970000E-01  3.323314911E-01
  1.288920000E-01  1.400847905E-01
  4.511200000E-02  2.395784008E-02
 
[MO]
Sym=     1a  
Ene=   -20.6380
Spin= Alpha
Occup=    1.00000
   1        -0.00007096
   2        -0.00054861
   3         0.00000000
   4        -0.00000000
   5        -0.00067767
   6         1.00003592
   7         0.00206801
   8         0.00000000
   9         0.00000000
  10        -0.00038432
Sym=     1a  
Ene=   -20.5740
Spin= Beta
Occup=    1.00000
   1        -0.00003196
   2        -0.00008837
   3         0.00000000
   4        -0.00000000
   5        -0.00008925
   6         1.00000382
   7        -0.00167084
   8         0.00000000
   9        -0.00000000
  10        -0.00022904
Sym=     2a  
Ene=    -2.4835
Spin= Alpha
Occup=    1.00000
   1         0.99980060
   2         0.01286943
   3         0.00000000
   4        -0.00000000
   5        -0.00020476
   6        -0.00007971
   7         0.00260843
   8         0.00000000
   9         0.00000000
  10        -0.00201952
Sym=     2a  
Ene=    -2.4952
Spin= Beta
Occup=    1.00000
   1         0.99988927
   2         0.01186181
   3         0.00000000
   4         0.00000000
   5        -0.00023425
   6        -0.00004261
   7         0.00165468
   8         0.00000000
   9         0.00000000
  10        -0.00049514
Sym=     3a  
Ene=    -1.3576
Spin= Alpha
Occup=    1.00000
   1        -0.01610909
   2        -0.00783763
   3        -0.00000000
   4         0.00000000
   5        -0.00604788
   6        -0.00132093
   7         1.00317292
   8         0.00000000
   9         0.00000000
  10        -0.03985482
Sym=     3a  
Ene=    -1.0756
Spin= Beta
Occup=    1.00000
   1        -0.01384316
   2         0.02400301
   3        -0.00000000
   4         0.00000000
   5         0.02008855
   6         0.00042455
   7         0.98702548
   8         0.00000000
   9        -0.00000000
  10        -0.00984966
Sym=     4a  
Ene=    -0.6479
Spin= Alpha
Occup=    1.00000
   1         0.00000000
   2        -0.00000000
   3        -0.00942290
   4        -0.00008431
   5        -0.00000000
   6         0.00000000
   7         0.00000000
   8         1.00134479
   9         0.00895940
  10         0.00000000
Sym=     4a  
Ene=    -0.4935
Spin= Beta
Occup=    1.00000
   1        -0.00000000
   2         0.00000000
   3        -0.00034418
   4         0.03846751
   5         0.00000000
   6        -0.00000000
   7        -0.00000000
   8        -0.00888837
   9         0.99340645
  10        -0.00000000
Sym=     5a  
Ene=    -0.6415
Spin= Alpha
Occup=    1.00000
   1         0.04090753
   2         0.00203369
   3        -0.00000000
   4         0.00000000
   5        -0.02302091
   6         0.00098297
   7         0.04518842
   8        -0.00000000
   9         0.00000000
  10         0.99777678
Sym=     5a  
Ene=    -0.2009
Spin= Beta
Occup=    1.00000
   1        -0.02414132
   2         0.87948871
   3        -0.00000000
   4        -0.00000000
   5        -0.05019404
   6        -0.01820698
   7        -0.21151239
   8        -0.00000000
   9        -0.00000000
  10        -0.40372153
Sym=     6a  
Ene=    -0.5680
Spin= Alpha
Occup=    1.00000
   1        -0.00000000
   2         0.00000000
   3        -0.00004727
   4         0.00528259
   5         0.00000000
   6        -0.00000000
   7        -0.00000000
   8        -0.00893972
   9         0.99914568
  10        -0.00000000
Sym=     6a  
Ene=     0.0259
Spin= Beta
Occup=    0.00000
   1         0.01796099
   2         0.28706751
   3         0.00000000
   4         0.00000000
   5        -0.74621394
   6         0.02141963
   7         0.20577996
   8         0.00000000
   9         0.00000000
  10         0.59883114
Sym=     7a  
Ene=     0.0397
Spin= Alpha
Occup=    0.00000
   1        -0.00784279
   2         0.93730830
   3         0.00000000
   4         0.00000000
   5        -0.37173550
   6        -0.00723646
   7        -0.08496254
   8        -0.00000000
   9        -0.00000000
  10         0.08369617
Sym=     7a  
Ene=     0.0305
Spin= Beta
Occup=    0.00000
   1        -0.00000000
   2        -0.00000000
   3         0.94022599
   4         0.00841255
   5         0.00000000
   6        -0.00000000
   7        -0.00000000
   8         0.22655092
   9         0.00202703
  10        -0.00000000
Sym=     8a  
Ene=     0.0842
Spin= Alpha
Occup=    0.00000
   1        -0.00000000
   2        -0.00000000
   3         1.01160346
   4         0.00905119
   5         0.00000000
   6        -0.00000000
   7         0.00000000
   8        -0.14401031
   9        -0.00128851
  10         0.00000000
Sym=     8a  
Ene=     0.0520
Spin= Beta
Occup=    0.00000
   1        -0.00000000
   2        -0.00000000
   3        -0.00904503
   4         1.01091572
   5         0.00000000
   6        -0.00000000
   7        -0.00000000
   8         0.00171112
   9        -0.19124323
  10        -0.00000000
Sym=     9a  
Ene=     0.0876
Spin= Alpha
Occup=    0.00000
   1         0.00000000
   2        -0.00000000
   3        -0.00905146
   4         1.01163355
   5         0.00000000
   6         0.00000000
   7         0.00000000
   8         0.00141861
   9        -0.15855048
  10        -0.00000000
Sym=     9a  
Ene=     0.1910
Spin= Beta
Occup=    0.00000
   1         0.02769476
   2         0.48510605
   3        -0.00000000
   4        -0.00000000
   5         0.77625625
   6        -0.03976346
   7        -0.39347531
   8         0.00000000
   9         0.00000000
  10         0.71814388
Sym=    10a  
Ene=     0.1420
Spin= Alpha
Occup=    0.00000
   1         0.00684820
   2         0.46170828
   3        -0.00000000
   4        -0.00000000
   5         1.01172019
   6        -0.04745860
   7        -0.44777550
   8         0.00000000
   9        -0.00000000
  10         0.18237758
Sym=    10a  
Ene=     0.2061
Spin= Beta
Occup=    0.00000
   1        -0.00000000
   2        -0.00000000
   3        -0.37337038
   4        -0.00334068
   5        -0.00000000
   6         0.00000000
   7         0.00000000
   8         0.98595387
   9         0.00882169
  10        -0.00000000
