[Molden Format]
[N_Atoms]
                     2
[Atoms] (AU)
B1          1      5           0.00000000      0.00000000      0.00000000
B2          2      5           0.00000000      0.00000000      3.21253441
[Charge] (Mulliken)
 -5.334399588718952E-012
  5.329958696620452E-012
[GTO] (AU)
   1
   s  14
  3.336021700E+04  1.039699991E-04
  4.972095200E+03  5.254399956E-04
  1.125641700E+03  2.509059979E-03
  3.164913600E+02  1.031887991E-02
  1.020072600E+02  3.636632969E-02
  3.629587300E+01  1.064607991E-01
  1.397141000E+01  2.403999880E-01
  5.741156000E+00  3.748581168E-01
  2.494268000E+00  3.100066974E-01
  1.114202000E+00  7.922455933E-02
  4.215490000E-01 -4.947589958E-03
  1.696330000E-01 -7.737119935E-03
  6.853500000E-02 -1.501079987E-03
  2.398700000E-02 -1.333299989E-04
   s  14
  3.336021700E+04 -2.030000008E-05
  4.972095200E+03 -1.025700004E-04
  1.125641700E+03 -4.911300020E-04
  3.164913600E+02 -2.026570008E-03
  1.020072600E+02 -7.261010030E-03
  3.629587300E+01 -2.197722009E-02
  1.397141000E+01 -5.408428022E-02
  5.741156000E+00 -1.022402604E-01
  2.494268000E+00 -1.423595206E-01
  1.114202000E+00 -4.658690019E-02
  4.215490000E-01  3.799402916E-01
  1.696330000E-01  5.890463624E-01
  6.853500000E-02  1.749075107E-01
  2.398700000E-02 -1.142030005E-03
   p   9
  5.500000000E+01  1.229800005E-03
  1.336610100E+01  8.827380035E-03
  4.135394000E+00  3.843340015E-02
  1.481256000E+00  1.150031805E-01
  6.021360000E-01  2.733674011E-01
  2.556360000E-01  4.061972116E-01
  1.111510000E-01  3.014967912E-01
  4.764800000E-02  7.684809030E-02
  1.667700000E-02 -8.170000032E-06
 
   2
   s  14
  3.336021700E+04  1.039699991E-04
  4.972095200E+03  5.254399956E-04
  1.125641700E+03  2.509059979E-03
  3.164913600E+02  1.031887991E-02
  1.020072600E+02  3.636632969E-02
  3.629587300E+01  1.064607991E-01
  1.397141000E+01  2.403999880E-01
  5.741156000E+00  3.748581168E-01
  2.494268000E+00  3.100066974E-01
  1.114202000E+00  7.922455933E-02
  4.215490000E-01 -4.947589958E-03
  1.696330000E-01 -7.737119935E-03
  6.853500000E-02 -1.501079987E-03
  2.398700000E-02 -1.333299989E-04
   s  14
  3.336021700E+04 -2.030000008E-05
  4.972095200E+03 -1.025700004E-04
  1.125641700E+03 -4.911300020E-04
  3.164913600E+02 -2.026570008E-03
  1.020072600E+02 -7.261010030E-03
  3.629587300E+01 -2.197722009E-02
  1.397141000E+01 -5.408428022E-02
  5.741156000E+00 -1.022402604E-01
  2.494268000E+00 -1.423595206E-01
  1.114202000E+00 -4.658690019E-02
  4.215490000E-01  3.799402916E-01
  1.696330000E-01  5.890463624E-01
  6.853500000E-02  1.749075107E-01
  2.398700000E-02 -1.142030005E-03
   p   9
  5.500000000E+01  1.229800005E-03
  1.336610100E+01  8.827380035E-03
  4.135394000E+00  3.843340015E-02
  1.481256000E+00  1.150031805E-01
  6.021360000E-01  2.733674011E-01
  2.556360000E-01  4.061972116E-01
  1.111510000E-01  3.014967912E-01
  4.764800000E-02  7.684809030E-02
  1.667700000E-02 -8.170000032E-06
 
[MO]
Sym=     1a  
Ene=    -7.7043
Spin= Alpha
Occup=    2.00000
   1         0.70689646
   2         0.01008422
   3         0.00000000
   4        -0.00000000
   5         0.00064614
   6         0.70689646
   7         0.01008422
   8        -0.00000000
   9        -0.00000000
  10        -0.00064614
Sym=     2a  
Ene=    -7.7037
Spin= Alpha
Occup=    2.00000
   1        -0.70721441
   2        -0.00772995
   3         0.00000000
   4        -0.00000000
   5        -0.00206959
   6         0.70721442
   7         0.00772995
   8        -0.00000000
   9        -0.00000000
  10        -0.00206959
Sym=     3a  
Ene=    -0.6798
Spin= Alpha
Occup=    2.00000
   1        -0.04521199
   2         0.53127102
   3         0.00000000
   4         0.00000000
   5         0.15440619
   6        -0.04521199
   7         0.53127102
   8        -0.00000000
   9         0.00000000
  10        -0.15440619
Sym=     4a  
Ene=    -0.2918
Spin= Alpha
Occup=    2.00000
   1         0.00000000
   2        -0.00000000
   3        -0.07774518
   4         0.61297161
   5         0.00000000
   6        -0.00000000
   7         0.00000000
   8        -0.07774518
   9         0.61297161
  10         0.00000000
Sym=     5a  
Ene=    -0.0051
Spin= Alpha
Occup=    0.05384
   1        -0.00000000
   2         0.00000000
   3         0.61297161
   4         0.07774518
   5        -0.00000000
   6         0.00000000
   7        -0.00000000
   8         0.61297161
   9         0.07774518
  10        -0.00000000
Sym=     6a  
Ene=    -0.0319
Spin= Alpha
Occup=    1.94616
   1        -0.00743443
   2        -0.73539281
   3         0.00000000
   4        -0.00000000
   5         0.21575227
   6         0.00743443
   7         0.73539281
   8         0.00000000
   9        -0.00000000
  10         0.21575227
Sym=     7a  
Ene=    -0.0025
Spin= Alpha
Occup=    0.00000
   1         0.03590264
   2         0.34677986
   3        -0.00000000
   4        -0.00000000
   5        -0.65185359
   6         0.03590264
   7         0.34677986
   8         0.00000000
   9        -0.00000000
  10         0.65185359
Sym=     8a  
Ene=     0.1530
Spin= Alpha
Occup=    0.00000
   1         0.00000000
   2        -0.00000000
   3         0.10708316
   4        -0.84428305
   5        -0.00000000
   6         0.00000000
   7         0.00000000
   8        -0.10708316
   9         0.84428305
  10         0.00000000
Sym=     9a  
Ene=     0.2031
Spin= Alpha
Occup=    0.00000
   1         0.00000000
   2         0.00000000
   3        -0.84428305
   4        -0.10708316
   5         0.00000000
   6        -0.00000000
   7        -0.00000000
   8         0.84428305
   9         0.10708316
  10        -0.00000000
Sym=    10a  
Ene=     0.5527
Spin= Alpha
Occup=    0.00000
   1        -0.12824264
   2        -1.04035527
   3        -0.00000000
   4         0.00000000
   5        -1.12977008
   6         0.12824264
   7         1.04035527
   8        -0.00000000
   9         0.00000000
  10        -1.12977008
