[Molden Format]
[N_Atoms]
                     2
[Atoms] (AU)
B1          1      5           0.00000000      0.00000000      0.00000000
B2          2      5           0.00000000      0.00000000      3.21253441
[Charge] (Mulliken)
  0.000000000000000E+000
  0.000000000000000E+000
[GTO] (AU)
   1
   s  14
  3.336021700E+04  1.039699991E-04
  4.972095200E+03  5.254399956E-04
  1.125641700E+03  2.509059979E-03
  3.164913600E+02  1.031887991E-02
  1.020072600E+02  3.636632969E-02
  3.629587300E+01  1.064607991E-01
  1.397141000E+01  2.403999880E-01
  5.741156000E+00  3.748581168E-01
  2.494268000E+00  3.100066974E-01
  1.114202000E+00  7.922455933E-02
  4.215490000E-01 -4.947589958E-03
  1.696330000E-01 -7.737119935E-03
  6.853500000E-02 -1.501079987E-03
  2.398700000E-02 -1.333299989E-04
   s  14
  3.336021700E+04 -2.030000008E-05
  4.972095200E+03 -1.025700004E-04
  1.125641700E+03 -4.911300020E-04
  3.164913600E+02 -2.026570008E-03
  1.020072600E+02 -7.261010030E-03
  3.629587300E+01 -2.197722009E-02
  1.397141000E+01 -5.408428022E-02
  5.741156000E+00 -1.022402604E-01
  2.494268000E+00 -1.423595206E-01
  1.114202000E+00 -4.658690019E-02
  4.215490000E-01  3.799402916E-01
  1.696330000E-01  5.890463624E-01
  6.853500000E-02  1.749075107E-01
  2.398700000E-02 -1.142030005E-03
   p   9
  5.500000000E+01  1.229800005E-03
  1.336610100E+01  8.827380035E-03
  4.135394000E+00  3.843340015E-02
  1.481256000E+00  1.150031805E-01
  6.021360000E-01  2.733674011E-01
  2.556360000E-01  4.061972116E-01
  1.111510000E-01  3.014967912E-01
  4.764800000E-02  7.684809030E-02
  1.667700000E-02 -8.170000032E-06
 
   2
   s  14
  3.336021700E+04  1.039699991E-04
  4.972095200E+03  5.254399956E-04
  1.125641700E+03  2.509059979E-03
  3.164913600E+02  1.031887991E-02
  1.020072600E+02  3.636632969E-02
  3.629587300E+01  1.064607991E-01
  1.397141000E+01  2.403999880E-01
  5.741156000E+00  3.748581168E-01
  2.494268000E+00  3.100066974E-01
  1.114202000E+00  7.922455933E-02
  4.215490000E-01 -4.947589958E-03
  1.696330000E-01 -7.737119935E-03
  6.853500000E-02 -1.501079987E-03
  2.398700000E-02 -1.333299989E-04
   s  14
  3.336021700E+04 -2.030000008E-05
  4.972095200E+03 -1.025700004E-04
  1.125641700E+03 -4.911300020E-04
  3.164913600E+02 -2.026570008E-03
  1.020072600E+02 -7.261010030E-03
  3.629587300E+01 -2.197722009E-02
  1.397141000E+01 -5.408428022E-02
  5.741156000E+00 -1.022402604E-01
  2.494268000E+00 -1.423595206E-01
  1.114202000E+00 -4.658690019E-02
  4.215490000E-01  3.799402916E-01
  1.696330000E-01  5.890463624E-01
  6.853500000E-02  1.749075107E-01
  2.398700000E-02 -1.142030005E-03
   p   9
  5.500000000E+01  1.229800005E-03
  1.336610100E+01  8.827380035E-03
  4.135394000E+00  3.843340015E-02
  1.481256000E+00  1.150031805E-01
  6.021360000E-01  2.733674011E-01
  2.556360000E-01  4.061972116E-01
  1.111510000E-01  3.014967912E-01
  4.764800000E-02  7.684809030E-02
  1.667700000E-02 -8.170000032E-06
 
[MO]
Sym=     1a  
Ene=    -7.7065
Spin= Alpha
Occup=    2.00000
   1        -0.70651011
   2         0.00178637
   3        -0.00000000
   4         0.00000000
   5         0.00229446
   6         0.70651011
   7        -0.00178637
   8         0.00000000
   9        -0.00000000
  10         0.00229446
Sym=     2a  
Ene=    -7.6918
Spin= Alpha
Occup=    2.00000
   1         0.70716487
   2         0.00204536
   3        -0.00000000
   4         0.00000000
   5         0.00242710
   6         0.70716487
   7         0.00204536
   8         0.00000000
   9         0.00000000
  10        -0.00242710
Sym=     3a  
Ene=    -0.7748
Spin= Alpha
Occup=    2.00000
   1        -0.03899640
   2         0.51318569
   3        -0.00000000
   4        -0.00000000
   5         0.18708204
   6        -0.03899640
   7         0.51318569
   8        -0.00000000
   9        -0.00000000
  10        -0.18708204
Sym=     4a  
Ene=    -0.4422
Spin= Alpha
Occup=    2.00000
   1         0.00779281
   2        -0.57541881
   3        -0.00000000
   4        -0.00000000
   5         0.37859499
   6        -0.00779281
   7         0.57541881
   8        -0.00000000
   9        -0.00000000
  10         0.37859499
Sym=     5a  
Ene=    -0.4072
Spin= Alpha
Occup=    1.00000
   1        -0.00000000
   2         0.00000000
   3        -0.22248750
   4         0.57643544
   5        -0.00000000
   6         0.00000000
   7        -0.00000000
   8        -0.22248750
   9         0.57643544
  10        -0.00000000
Sym=     6a  
Ene=    -0.4072
Spin= Alpha
Occup=    1.00000
   1         0.00000000
   2        -0.00000000
   3         0.57643544
   4         0.22248750
   5         0.00000000
   6        -0.00000000
   7         0.00000000
   8         0.57643544
   9         0.22248750
  10         0.00000000
Sym=     7a  
Ene=    -0.3101
Spin= Alpha
Occup=    0.00000
   1         0.03785306
   2         0.37315295
   3        -0.00000000
   4         0.00000000
   5        -0.64323340
   6         0.03785306
   7         0.37315295
   8        -0.00000000
   9        -0.00000000
  10         0.64323340
Sym=     8a  
Ene=    -0.2146
Spin= Alpha
Occup=    0.00000
   1         0.00000000
   2         0.00000000
   3        -0.61559816
   4        -0.58763899
   5         0.00000000
   6        -0.00000000
   7        -0.00000000
   8         0.61559816
   9         0.58763899
  10         0.00000000
Sym=     9a  
Ene=    -0.2146
Spin= Alpha
Occup=    0.00000
   1         0.00000000
   2         0.00000000
   3         0.58763899
   4        -0.61559816
   5         0.00000000
   6         0.00000000
   7        -0.00000000
   8        -0.58763899
   9         0.61559816
  10         0.00000000
Sym=    10a  
Ene=    -0.0780
Spin= Alpha
Occup=    0.00000
   1         0.13204699
   2         1.13670199
   3        -0.00000000
   4         0.00000000
   5         1.08609131
   6        -0.13204699
   7        -1.13670199
   8        -0.00000000
   9        -0.00000000
  10         1.08609131
