[Molden Format]
[N_Atoms]
                     2
[Atoms] (AU)
B1          1      5           0.00000000      0.00000000      0.00000000
B2          2      5           0.00000000      0.00000000      3.21253441
[Charge] (Mulliken)
 -9.690026558928366E-013
  9.610090501155355E-013
[GTO] (AU)
   1
   s  14
  3.336021700E+04  1.039699991E-04
  4.972095200E+03  5.254399956E-04
  1.125641700E+03  2.509059979E-03
  3.164913600E+02  1.031887991E-02
  1.020072600E+02  3.636632969E-02
  3.629587300E+01  1.064607991E-01
  1.397141000E+01  2.403999880E-01
  5.741156000E+00  3.748581168E-01
  2.494268000E+00  3.100066974E-01
  1.114202000E+00  7.922455933E-02
  4.215490000E-01 -4.947589958E-03
  1.696330000E-01 -7.737119935E-03
  6.853500000E-02 -1.501079987E-03
  2.398700000E-02 -1.333299989E-04
   s  14
  3.336021700E+04 -2.030000008E-05
  4.972095200E+03 -1.025700004E-04
  1.125641700E+03 -4.911300020E-04
  3.164913600E+02 -2.026570008E-03
  1.020072600E+02 -7.261010030E-03
  3.629587300E+01 -2.197722009E-02
  1.397141000E+01 -5.408428022E-02
  5.741156000E+00 -1.022402604E-01
  2.494268000E+00 -1.423595206E-01
  1.114202000E+00 -4.658690019E-02
  4.215490000E-01  3.799402916E-01
  1.696330000E-01  5.890463624E-01
  6.853500000E-02  1.749075107E-01
  2.398700000E-02 -1.142030005E-03
   p   9
  5.500000000E+01  1.229800005E-03
  1.336610100E+01  8.827380035E-03
  4.135394000E+00  3.843340015E-02
  1.481256000E+00  1.150031805E-01
  6.021360000E-01  2.733674011E-01
  2.556360000E-01  4.061972116E-01
  1.111510000E-01  3.014967912E-01
  4.764800000E-02  7.684809030E-02
  1.667700000E-02 -8.170000032E-06
 
   2
   s  14
  3.336021700E+04  1.039699991E-04
  4.972095200E+03  5.254399956E-04
  1.125641700E+03  2.509059979E-03
  3.164913600E+02  1.031887991E-02
  1.020072600E+02  3.636632969E-02
  3.629587300E+01  1.064607991E-01
  1.397141000E+01  2.403999880E-01
  5.741156000E+00  3.748581168E-01
  2.494268000E+00  3.100066974E-01
  1.114202000E+00  7.922455933E-02
  4.215490000E-01 -4.947589958E-03
  1.696330000E-01 -7.737119935E-03
  6.853500000E-02 -1.501079987E-03
  2.398700000E-02 -1.333299989E-04
   s  14
  3.336021700E+04 -2.030000008E-05
  4.972095200E+03 -1.025700004E-04
  1.125641700E+03 -4.911300020E-04
  3.164913600E+02 -2.026570008E-03
  1.020072600E+02 -7.261010030E-03
  3.629587300E+01 -2.197722009E-02
  1.397141000E+01 -5.408428022E-02
  5.741156000E+00 -1.022402604E-01
  2.494268000E+00 -1.423595206E-01
  1.114202000E+00 -4.658690019E-02
  4.215490000E-01  3.799402916E-01
  1.696330000E-01  5.890463624E-01
  6.853500000E-02  1.749075107E-01
  2.398700000E-02 -1.142030005E-03
   p   9
  5.500000000E+01  1.229800005E-03
  1.336610100E+01  8.827380035E-03
  4.135394000E+00  3.843340015E-02
  1.481256000E+00  1.150031805E-01
  6.021360000E-01  2.733674011E-01
  2.556360000E-01  4.061972116E-01
  1.111510000E-01  3.014967912E-01
  4.764800000E-02  7.684809030E-02
  1.667700000E-02 -8.170000032E-06
 
[MO]
Sym=     1a  
Ene=    -7.7045
Spin= Alpha
Occup=    1.00000
   1         0.70689403
   2         0.01006248
   3         0.00000000
   4        -0.00000000
   5         0.00068909
   6         0.70689402
   7         0.01006248
   8         0.00000000
   9        -0.00000000
  10        -0.00068909
Sym=     1a  
Ene=    -7.7045
Spin= Beta
Occup=    1.00000
   1         0.70689403
   2         0.01006248
   3         0.00000000
   4        -0.00000000
   5         0.00068909
   6         0.70689402
   7         0.01006248
   8         0.00000000
   9        -0.00000000
  10        -0.00068909
Sym=     2a  
Ene=    -7.7041
Spin= Alpha
Occup=    1.00000
   1        -0.70724863
   2        -0.01096542
   3         0.00000000
   4        -0.00000000
   5        -0.00121858
   6         0.70724865
   7         0.01096542
   8         0.00000000
   9        -0.00000000
  10        -0.00121858
Sym=     2a  
Ene=    -7.7041
Spin= Beta
Occup=    1.00000
   1        -0.70724863
   2        -0.01096542
   3         0.00000000
   4        -0.00000000
   5        -0.00121858
   6         0.70724865
   7         0.01096542
   8         0.00000000
   9        -0.00000000
  10        -0.00121858
Sym=     3a  
Ene=    -0.6822
Spin= Alpha
Occup=    1.00000
   1        -0.04523824
   2         0.53102977
   3         0.00000000
   4        -0.00000000
   5         0.15485936
   6        -0.04523824
   7         0.53102977
   8         0.00000000
   9        -0.00000000
  10        -0.15485936
Sym=     3a  
Ene=    -0.6822
Spin= Beta
Occup=    1.00000
   1        -0.04523824
   2         0.53102977
   3         0.00000000
   4        -0.00000000
   5         0.15485936
   6        -0.04523824
   7         0.53102977
   8         0.00000000
   9        -0.00000000
  10        -0.15485936
Sym=     4a  
Ene=    -0.3697
Spin= Alpha
Occup=    1.00000
   1        -0.00390372
   2        -0.73139076
   3         0.00000000
   4         0.00000000
   5         0.22005435
   6         0.00390372
   7         0.73139076
   8        -0.00000000
   9         0.00000000
  10         0.22005435
Sym=     4a  
Ene=    -0.3697
Spin= Beta
Occup=    1.00000
   1        -0.00390372
   2        -0.73139076
   3         0.00000000
   4         0.00000000
   5         0.22005435
   6         0.00390372
   7         0.73139076
   8        -0.00000000
   9         0.00000000
  10         0.22005435
Sym=     5a  
Ene=    -0.2928
Spin= Alpha
Occup=    1.00000
   1         0.00000000
   2         0.00000000
   3        -0.22248750
   4         0.57643544
   5        -0.00000000
   6         0.00000000
   7         0.00000000
   8        -0.22248750
   9         0.57643544
  10         0.00000000
Sym=     5a  
Ene=    -0.2928
Spin= Beta
Occup=    1.00000
   1         0.00000000
   2         0.00000000
   3        -0.22248750
   4         0.57643544
   5        -0.00000000
   6         0.00000000
   7         0.00000000
   8        -0.22248750
   9         0.57643544
  10         0.00000000
Sym=     6a  
Ene=    -0.0043
Spin= Alpha
Occup=    0.00000
   1         0.03591747
   2         0.34714982
   3        -0.00000000
   4        -0.00000000
   5        -0.65174604
   6         0.03591747
   7         0.34714982
   8        -0.00000000
   9        -0.00000000
  10         0.65174604
Sym=     6a  
Ene=    -0.0043
Spin= Beta
Occup=    0.00000
   1         0.03591747
   2         0.34714982
   3        -0.00000000
   4        -0.00000000
   5        -0.65174604
   6         0.03591747
   7         0.34714982
   8        -0.00000000
   9        -0.00000000
  10         0.65174604
Sym=     7a  
Ene=     0.0018
Spin= Alpha
Occup=    0.00000
   1         0.00000000
   2         0.00000000
   3         0.57643544
   4         0.22248750
   5        -0.00000000
   6         0.00000000
   7         0.00000000
   8         0.57643544
   9         0.22248750
  10         0.00000000
Sym=     7a  
Ene=     0.0018
Spin= Beta
Occup=    0.00000
   1         0.00000000
   2         0.00000000
   3         0.57643544
   4         0.22248750
   5        -0.00000000
   6         0.00000000
   7         0.00000000
   8         0.57643544
   9         0.22248750
  10         0.00000000
Sym=     8a  
Ene=     0.1522
Spin= Alpha
Occup=    0.00000
   1         0.00000000
   2         0.00000000
   3         0.30644556
   4        -0.79395957
   5         0.00000000
   6        -0.00000000
   7        -0.00000000
   8        -0.30644556
   9         0.79395957
  10         0.00000000
Sym=     8a  
Ene=     0.1522
Spin= Beta
Occup=    0.00000
   1         0.00000000
   2         0.00000000
   3         0.30644556
   4        -0.79395957
   5         0.00000000
   6        -0.00000000
   7        -0.00000000
   8        -0.30644556
   9         0.79395957
  10         0.00000000
Sym=     9a  
Ene=     0.2038
Spin= Alpha
Occup=    0.00000
   1         0.00000000
   2         0.00000000
   3        -0.79395957
   4        -0.30644556
   5         0.00000000
   6        -0.00000000
   7        -0.00000000
   8         0.79395957
   9         0.30644556
  10         0.00000000
Sym=     9a  
Ene=     0.2038
Spin= Beta
Occup=    0.00000
   1         0.00000000
   2         0.00000000
   3        -0.79395957
   4        -0.30644556
   5         0.00000000
   6        -0.00000000
   7        -0.00000000
   8         0.79395957
   9         0.30644556
  10         0.00000000
Sym=    10a  
Ene=     0.5512
Spin= Alpha
Occup=    0.00000
   1         0.12820999
   2         1.04314368
   3         0.00000000
   4         0.00000000
   5         1.12894126
   6        -0.12820999
   7        -1.04314368
   8         0.00000000
   9        -0.00000000
  10         1.12894126
Sym=    10a  
Ene=     0.5512
Spin= Beta
Occup=    0.00000
   1         0.12820999
   2         1.04314368
   3         0.00000000
   4         0.00000000
   5         1.12894126
   6        -0.12820999
   7        -1.04314368
   8         0.00000000
   9        -0.00000000
  10         1.12894126
