[Molden Format]
[N_Atoms]
                     2
[Atoms] (AU)
C1          1      6           0.00000000      0.00000000      0.00000000
C2          2      6           0.00000000      0.00000000      2.83458919
[Charge] (Mulliken)
  0.999999999998019     
   1.00000000000196     
[GTO] (AU)
   1
   s  14
  5.055750100E+04  1.128874000E-04
  7.524785600E+03  5.295373000E-04
  1.694327600E+03  2.450038300E-03
  4.728227900E+02  1.005398470E-02
  1.517107500E+02  3.545398060E-02
  5.391874600E+01  1.044071086E-01
  2.065931100E+01  2.412894918E-01
  8.383976000E+00  3.834225483E-01
  3.577015000E+00  3.078514393E-01
  1.547118000E+00  6.872442990E-02
  6.130130000E-01  2.224445000E-04
  2.460680000E-01  1.976748900E-03
  9.908700000E-02  2.057859400E-03
  3.468000000E-02  4.182020000E-04
   s  14
  5.055750100E+04 -2.507420000E-05
  7.524785600E+03 -1.175945000E-04
  1.694327600E+03 -5.456275000E-04
  4.728227900E+02 -2.245077100E-03
  1.517107500E+02 -8.043471800E-03
  5.391874600E+01 -2.442588710E-02
  2.065931100E+01 -6.136791180E-02
  8.383976000E+00 -1.177767835E-01
  3.577015000E+00 -1.550487783E-01
  1.547118000E+00 -1.933316860E-02
  6.130130000E-01  3.996930678E-01
  2.460680000E-01  5.589420949E-01
  9.908700000E-02  1.711195023E-01
  3.468000000E-02  7.456244600E-03
   p   9
  8.333315500E+01  1.344656000E-03
  1.955761100E+01  1.023555500E-02
  6.080365000E+00  4.520067100E-02
  2.179317000E+00  1.410756198E-01
  8.651500000E-01  3.047388085E-01
  3.619440000E-01  3.995281011E-01
  1.547400000E-01  2.719163432E-01
  6.542900000E-02  5.857669330E-02
  2.290000000E-02 -1.263813000E-04
 
   2
   s  14
  5.055750100E+04  1.128874000E-04
  7.524785600E+03  5.295373000E-04
  1.694327600E+03  2.450038300E-03
  4.728227900E+02  1.005398470E-02
  1.517107500E+02  3.545398060E-02
  5.391874600E+01  1.044071086E-01
  2.065931100E+01  2.412894918E-01
  8.383976000E+00  3.834225483E-01
  3.577015000E+00  3.078514393E-01
  1.547118000E+00  6.872442990E-02
  6.130130000E-01  2.224445000E-04
  2.460680000E-01  1.976748900E-03
  9.908700000E-02  2.057859400E-03
  3.468000000E-02  4.182020000E-04
   s  14
  5.055750100E+04 -2.507420000E-05
  7.524785600E+03 -1.175945000E-04
  1.694327600E+03 -5.456275000E-04
  4.728227900E+02 -2.245077100E-03
  1.517107500E+02 -8.043471800E-03
  5.391874600E+01 -2.442588710E-02
  2.065931100E+01 -6.136791180E-02
  8.383976000E+00 -1.177767835E-01
  3.577015000E+00 -1.550487783E-01
  1.547118000E+00 -1.933316860E-02
  6.130130000E-01  3.996930678E-01
  2.460680000E-01  5.589420949E-01
  9.908700000E-02  1.711195023E-01
  3.468000000E-02  7.456244600E-03
   p   9
  8.333315500E+01  1.344656000E-03
  1.955761100E+01  1.023555500E-02
  6.080365000E+00  4.520067100E-02
  2.179317000E+00  1.410756198E-01
  8.651500000E-01  3.047388085E-01
  3.619440000E-01  3.995281011E-01
  1.547400000E-01  2.719163432E-01
  6.542900000E-02  5.857669330E-02
  2.290000000E-02 -1.263813000E-04
 
[MO]
Sym=     1a  
Ene=   -12.4240
Spin= Alpha
Occup=    2.00000
   1         0.70700533
   2        -0.00327031
   3         0.00000000
   4         0.00000000
   5         0.00065433
   6         0.70700535
   7        -0.00327031
   8         0.00000000
   9        -0.00000000
  10        -0.00065433
Sym=     2a  
Ene=   -12.4230
Spin= Alpha
Occup=    2.00000
   1        -0.70704004
   2         0.00742533
   3         0.00000000
   4         0.00000000
   5        -0.00101550
   6         0.70704001
   7        -0.00742533
   8         0.00000000
   9         0.00000000
  10        -0.00101550
Sym=     3a  
Ene=    -1.7890
Spin= Alpha
Occup=    2.00000
   1        -0.03022322
   2         0.51401488
   3         0.00000000
   4         0.00000000
   5         0.20917303
   6        -0.03022322
   7         0.51401488
   8        -0.00000000
   9        -0.00000000
  10        -0.20917303
Sym=     4a  
Ene=    -1.1801
Spin= Alpha
Occup=    2.00000
   1         0.00000000
   2        -0.00000000
   3        -0.24037392
   4         0.58488296
   5         0.00000000
   6        -0.00000000
   7         0.00000000
   8        -0.24037392
   9         0.58488296
  10         0.00000000
Sym=     5a  
Ene=    -0.8237
Spin= Alpha
Occup=    0.03940
   1         0.00000000
   2        -0.00000000
   3         0.58488296
   4         0.24037392
   5         0.00000000
   6         0.00000000
   7         0.00000000
   8         0.58488296
   9         0.24037392
  10         0.00000000
Sym=     6a  
Ene=    -0.0619
Spin= Alpha
Occup=    1.96060
   1        -0.02981838
   2        -0.81512903
   3        -0.00000000
   4        -0.00000000
   5         0.09956539
   6         0.02981838
   7         0.81512903
   8        -0.00000000
   9        -0.00000000
  10         0.09956539
Sym=     7a  
Ene=    -0.8544
Spin= Alpha
Occup=    0.00000
   1         0.03076759
   2         0.37801491
   3         0.00000000
   4         0.00000000
   5        -0.62427989
   6         0.03076759
   7         0.37801491
   8        -0.00000000
   9        -0.00000000
  10         0.62427989
Sym=     8a  
Ene=    -0.6867
Spin= Alpha
Occup=    0.00000
   1         0.00000000
   2         0.00000000
   3         0.31045834
   4        -0.75541386
   5        -0.00000000
   6         0.00000000
   7         0.00000000
   8        -0.31045834
   9         0.75541386
  10         0.00000000
Sym=     9a  
Ene=    -0.6110
Spin= Alpha
Occup=    0.00000
   1         0.00000000
   2         0.00000000
   3        -0.75541386
   4        -0.31045834
   5        -0.00000000
   6         0.00000000
   7         0.00000000
   8         0.75541386
   9         0.31045834
  10         0.00000000
Sym=    10a  
Ene=    -0.2890
Spin= Alpha
Occup=    0.00000
   1        -0.09875043
   2        -0.74075719
   3         0.00000000
   4         0.00000000
   5        -1.03704606
   6         0.09875043
   7         0.74075719
   8         0.00000000
   9         0.00000000
  10        -1.03704606
