[Molden Format]
[N_Atoms]
                     2
[Atoms] (AU)
C1          1      6           0.00000000      0.00000000      0.00000000
C2          2      6           0.00000000      0.00000000      2.83458919
[Charge] (Mulliken)
 -1.415312311792150E-010
  1.415214612165983E-010
[GTO] (AU)
   1
   s  14
  5.055750100E+04  1.128874000E-04
  7.524785600E+03  5.295373000E-04
  1.694327600E+03  2.450038300E-03
  4.728227900E+02  1.005398470E-02
  1.517107500E+02  3.545398060E-02
  5.391874600E+01  1.044071086E-01
  2.065931100E+01  2.412894918E-01
  8.383976000E+00  3.834225483E-01
  3.577015000E+00  3.078514393E-01
  1.547118000E+00  6.872442990E-02
  6.130130000E-01  2.224445000E-04
  2.460680000E-01  1.976748900E-03
  9.908700000E-02  2.057859400E-03
  3.468000000E-02  4.182020000E-04
   s  14
  5.055750100E+04 -2.507420000E-05
  7.524785600E+03 -1.175945000E-04
  1.694327600E+03 -5.456275000E-04
  4.728227900E+02 -2.245077100E-03
  1.517107500E+02 -8.043471800E-03
  5.391874600E+01 -2.442588710E-02
  2.065931100E+01 -6.136791180E-02
  8.383976000E+00 -1.177767835E-01
  3.577015000E+00 -1.550487783E-01
  1.547118000E+00 -1.933316860E-02
  6.130130000E-01  3.996930678E-01
  2.460680000E-01  5.589420949E-01
  9.908700000E-02  1.711195023E-01
  3.468000000E-02  7.456244600E-03
   p   9
  8.333315500E+01  1.344656000E-03
  1.955761100E+01  1.023555500E-02
  6.080365000E+00  4.520067100E-02
  2.179317000E+00  1.410756198E-01
  8.651500000E-01  3.047388085E-01
  3.619440000E-01  3.995281011E-01
  1.547400000E-01  2.719163432E-01
  6.542900000E-02  5.857669330E-02
  2.290000000E-02 -1.263813000E-04
 
   2
   s  14
  5.055750100E+04  1.128874000E-04
  7.524785600E+03  5.295373000E-04
  1.694327600E+03  2.450038300E-03
  4.728227900E+02  1.005398470E-02
  1.517107500E+02  3.545398060E-02
  5.391874600E+01  1.044071086E-01
  2.065931100E+01  2.412894918E-01
  8.383976000E+00  3.834225483E-01
  3.577015000E+00  3.078514393E-01
  1.547118000E+00  6.872442990E-02
  6.130130000E-01  2.224445000E-04
  2.460680000E-01  1.976748900E-03
  9.908700000E-02  2.057859400E-03
  3.468000000E-02  4.182020000E-04
   s  14
  5.055750100E+04 -2.507420000E-05
  7.524785600E+03 -1.175945000E-04
  1.694327600E+03 -5.456275000E-04
  4.728227900E+02 -2.245077100E-03
  1.517107500E+02 -8.043471800E-03
  5.391874600E+01 -2.442588710E-02
  2.065931100E+01 -6.136791180E-02
  8.383976000E+00 -1.177767835E-01
  3.577015000E+00 -1.550487783E-01
  1.547118000E+00 -1.933316860E-02
  6.130130000E-01  3.996930678E-01
  2.460680000E-01  5.589420949E-01
  9.908700000E-02  1.711195023E-01
  3.468000000E-02  7.456244600E-03
   p   9
  8.333315500E+01  1.344656000E-03
  1.955761100E+01  1.023555500E-02
  6.080365000E+00  4.520067100E-02
  2.179317000E+00  1.410756198E-01
  8.651500000E-01  3.047388085E-01
  3.619440000E-01  3.995281011E-01
  1.547400000E-01  2.719163432E-01
  6.542900000E-02  5.857669330E-02
  2.290000000E-02 -1.263813000E-04
 
[MO]
Sym=     1a  
Ene=   -11.3810
Spin= Alpha
Occup=    1.00000
   1         0.70697381
   2        -0.00209990
   3        -0.00000000
   4        -0.00000000
   5         0.00056502
   6         0.70697375
   7        -0.00209990
   8         0.00000000
   9        -0.00000000
  10        -0.00056502
Sym=     1a  
Ene=   -11.3810
Spin= Beta
Occup=    1.00000
   1         0.70697381
   2        -0.00209990
   3        -0.00000000
   4        -0.00000000
   5         0.00056502
   6         0.70697375
   7        -0.00209990
   8         0.00000000
   9        -0.00000000
  10        -0.00056502
Sym=     2a  
Ene=   -11.3810
Spin= Alpha
Occup=    1.00000
   1        -0.70731159
   2         0.00094991
   3        -0.00000000
   4         0.00000000
   5        -0.00106765
   6         0.70731165
   7        -0.00094991
   8         0.00000000
   9        -0.00000000
  10        -0.00106765
Sym=     2a  
Ene=   -11.3810
Spin= Beta
Occup=    1.00000
   1        -0.70731159
   2         0.00094991
   3        -0.00000000
   4         0.00000000
   5        -0.00106765
   6         0.70731165
   7        -0.00094991
   8         0.00000000
   9        -0.00000000
  10        -0.00106765
Sym=     3a  
Ene=    -0.9635
Spin= Alpha
Occup=    1.00000
   1        -0.02803793
   2         0.55151102
   3        -0.00000000
   4        -0.00000000
   5         0.14118387
   6        -0.02803793
   7         0.55151102
   8        -0.00000000
   9        -0.00000000
  10        -0.14118387
Sym=     3a  
Ene=    -0.9635
Spin= Beta
Occup=    1.00000
   1        -0.02803793
   2         0.55151102
   3        -0.00000000
   4        -0.00000000
   5         0.14118387
   6        -0.02803793
   7         0.55151102
   8        -0.00000000
   9        -0.00000000
  10        -0.14118387
Sym=     4a  
Ene=    -0.5622
Spin= Alpha
Occup=    1.00000
   1        -0.01601718
   2        -0.74741904
   3        -0.00000000
   4        -0.00000000
   5         0.18967596
   6         0.01601718
   7         0.74741904
   8        -0.00000000
   9        -0.00000000
  10         0.18967596
Sym=     4a  
Ene=    -0.5622
Spin= Beta
Occup=    1.00000
   1        -0.01601718
   2        -0.74741904
   3        -0.00000000
   4        -0.00000000
   5         0.18967596
   6         0.01601718
   7         0.74741904
   8        -0.00000000
   9        -0.00000000
  10         0.18967596
Sym=     5a  
Ene=    -0.3979
Spin= Alpha
Occup=    1.00000
   1         0.00000000
   2         0.00000000
   3         0.32612997
   4         0.54176281
   5        -0.00000000
   6         0.00000000
   7         0.00000000
   8         0.32612997
   9         0.54176281
  10         0.00000000
Sym=     5a  
Ene=    -0.3979
Spin= Beta
Occup=    1.00000
   1         0.00000000
   2         0.00000000
   3         0.32612997
   4         0.54176281
   5        -0.00000000
   6         0.00000000
   7         0.00000000
   8         0.32612997
   9         0.54176281
  10         0.00000000
Sym=     6a  
Ene=    -0.3979
Spin= Alpha
Occup=    1.00000
   1         0.00000000
   2         0.00000000
   3         0.54176281
   4        -0.32612997
   5        -0.00000000
   6         0.00000000
   7         0.00000000
   8         0.54176281
   9        -0.32612997
  10         0.00000000
Sym=     6a  
Ene=    -0.3979
Spin= Beta
Occup=    1.00000
   1         0.00000000
   2         0.00000000
   3         0.54176281
   4        -0.32612997
   5        -0.00000000
   6         0.00000000
   7         0.00000000
   8         0.54176281
   9        -0.32612997
  10         0.00000000
Sym=     7a  
Ene=    -0.0671
Spin= Alpha
Occup=    0.00000
   1         0.03344523
   2         0.32085580
   3        -0.00000000
   4        -0.00000000
   5        -0.64307539
   6         0.03344523
   7         0.32085580
   8        -0.00000000
   9        -0.00000000
  10         0.64307539
Sym=     7a  
Ene=    -0.0671
Spin= Beta
Occup=    0.00000
   1         0.03344523
   2         0.32085580
   3        -0.00000000
   4        -0.00000000
   5        -0.64307539
   6         0.03344523
   7         0.32085580
   8        -0.00000000
   9        -0.00000000
  10         0.64307539
Sym=     8a  
Ene=     0.1262
Spin= Alpha
Occup=    0.00000
   1         0.00000000
   2         0.00000000
   3        -0.41934918
   4        -0.70084289
   5        -0.00000000
   6        -0.00000000
   7        -0.00000000
   8         0.41934918
   9         0.70084289
  10         0.00000000
Sym=     8a  
Ene=     0.1262
Spin= Beta
Occup=    0.00000
   1         0.00000000
   2         0.00000000
   3        -0.41934918
   4        -0.70084289
   5        -0.00000000
   6        -0.00000000
   7        -0.00000000
   8         0.41934918
   9         0.70084289
  10         0.00000000
Sym=     9a  
Ene=     0.1262
Spin= Alpha
Occup=    0.00000
   1         0.00000000
   2         0.00000000
   3        -0.70084289
   4         0.41934918
   5        -0.00000000
   6         0.00000000
   7         0.00000000
   8         0.70084289
   9        -0.41934918
  10         0.00000000
Sym=     9a  
Ene=     0.1262
Spin= Beta
Occup=    0.00000
   1         0.00000000
   2         0.00000000
   3        -0.70084289
   4         0.41934918
   5        -0.00000000
   6         0.00000000
   7         0.00000000
   8         0.70084289
   9        -0.41934918
  10         0.00000000
Sym=    10a  
Ene=     0.6047
Spin= Alpha
Occup=    0.00000
   1         0.10000051
   2         0.80905844
   3         0.00000000
   4         0.00000000
   5         1.02440262
   6        -0.10000051
   7        -0.80905844
   8        -0.00000000
   9        -0.00000000
  10         1.02440262
Sym=    10a  
Ene=     0.6047
Spin= Beta
Occup=    0.00000
   1         0.10000051
   2         0.80905844
   3         0.00000000
   4         0.00000000
   5         1.02440262
   6        -0.10000051
   7        -0.80905844
   8        -0.00000000
   9        -0.00000000
  10         1.02440262
