[Molden Format]
[N_Atoms]
                     2
[Atoms] (AU)
C1          1      6           0.00000000      0.00000000      0.00000000
C2          2      6           0.00000000      0.00000000      2.83458919
[Charge] (Mulliken)
  5.151434834260726E-014
 -4.707345624410664E-014
[GTO] (AU)
   1
   s  14
  5.055750100E+04  1.128874000E-04
  7.524785600E+03  5.295373000E-04
  1.694327600E+03  2.450038300E-03
  4.728227900E+02  1.005398470E-02
  1.517107500E+02  3.545398060E-02
  5.391874600E+01  1.044071086E-01
  2.065931100E+01  2.412894918E-01
  8.383976000E+00  3.834225483E-01
  3.577015000E+00  3.078514393E-01
  1.547118000E+00  6.872442990E-02
  6.130130000E-01  2.224445000E-04
  2.460680000E-01  1.976748900E-03
  9.908700000E-02  2.057859400E-03
  3.468000000E-02  4.182020000E-04
   s  14
  5.055750100E+04 -2.507420000E-05
  7.524785600E+03 -1.175945000E-04
  1.694327600E+03 -5.456275000E-04
  4.728227900E+02 -2.245077100E-03
  1.517107500E+02 -8.043471800E-03
  5.391874600E+01 -2.442588710E-02
  2.065931100E+01 -6.136791180E-02
  8.383976000E+00 -1.177767835E-01
  3.577015000E+00 -1.550487783E-01
  1.547118000E+00 -1.933316860E-02
  6.130130000E-01  3.996930678E-01
  2.460680000E-01  5.589420949E-01
  9.908700000E-02  1.711195023E-01
  3.468000000E-02  7.456244600E-03
   p   9
  8.333315500E+01  1.344656000E-03
  1.955761100E+01  1.023555500E-02
  6.080365000E+00  4.520067100E-02
  2.179317000E+00  1.410756198E-01
  8.651500000E-01  3.047388085E-01
  3.619440000E-01  3.995281011E-01
  1.547400000E-01  2.719163432E-01
  6.542900000E-02  5.857669330E-02
  2.290000000E-02 -1.263813000E-04
 
   2
   s  14
  5.055750100E+04  1.128874000E-04
  7.524785600E+03  5.295373000E-04
  1.694327600E+03  2.450038300E-03
  4.728227900E+02  1.005398470E-02
  1.517107500E+02  3.545398060E-02
  5.391874600E+01  1.044071086E-01
  2.065931100E+01  2.412894918E-01
  8.383976000E+00  3.834225483E-01
  3.577015000E+00  3.078514393E-01
  1.547118000E+00  6.872442990E-02
  6.130130000E-01  2.224445000E-04
  2.460680000E-01  1.976748900E-03
  9.908700000E-02  2.057859400E-03
  3.468000000E-02  4.182020000E-04
   s  14
  5.055750100E+04 -2.507420000E-05
  7.524785600E+03 -1.175945000E-04
  1.694327600E+03 -5.456275000E-04
  4.728227900E+02 -2.245077100E-03
  1.517107500E+02 -8.043471800E-03
  5.391874600E+01 -2.442588710E-02
  2.065931100E+01 -6.136791180E-02
  8.383976000E+00 -1.177767835E-01
  3.577015000E+00 -1.550487783E-01
  1.547118000E+00 -1.933316860E-02
  6.130130000E-01  3.996930678E-01
  2.460680000E-01  5.589420949E-01
  9.908700000E-02  1.711195023E-01
  3.468000000E-02  7.456244600E-03
   p   9
  8.333315500E+01  1.344656000E-03
  1.955761100E+01  1.023555500E-02
  6.080365000E+00  4.520067100E-02
  2.179317000E+00  1.410756198E-01
  8.651500000E-01  3.047388085E-01
  3.619440000E-01  3.995281011E-01
  1.547400000E-01  2.719163432E-01
  6.542900000E-02  5.857669330E-02
  2.290000000E-02 -1.263813000E-04
 
[MO]
Sym=     1a  
Ene=   -11.3770
Spin= Alpha
Occup=    2.00000
   1         0.70696858
   2        -0.00196507
   3         0.00000000
   4         0.00000000
   5         0.00057510
   6         0.70696860
   7        -0.00196507
   8        -0.00000000
   9        -0.00000000
  10        -0.00057510
Sym=     2a  
Ene=   -11.3770
Spin= Alpha
Occup=    2.00000
   1        -0.70727963
   2         0.00226933
   3         0.00000000
   4         0.00000000
   5        -0.00136274
   6         0.70727961
   7        -0.00226933
   8        -0.00000000
   9        -0.00000000
  10        -0.00136274
Sym=     3a  
Ene=    -0.9513
Spin= Alpha
Occup=    2.00000
   1        -0.03028412
   2         0.52977786
   3         0.00000000
   4        -0.00000000
   5         0.18217248
   6        -0.03028412
   7         0.52977786
   8        -0.00000000
   9        -0.00000000
  10        -0.18217248
Sym=     4a  
Ene=    -0.3915
Spin= Alpha
Occup=    2.00000
   1         0.00000000
   2         0.00000000
   3         0.35288378
   4         0.52472921
   5         0.00000000
   6        -0.00000000
   7         0.00000000
   8         0.35288378
   9         0.52472921
  10         0.00000000
Sym=     5a  
Ene=    -0.3915
Spin= Alpha
Occup=    2.00000
   1        -0.00000000
   2         0.00000000
   3         0.52472921
   4        -0.35288378
   5        -0.00000000
   6         0.00000000
   7        -0.00000000
   8         0.52472921
   9        -0.35288378
  10        -0.00000000
Sym=     6a  
Ene=    -0.5153
Spin= Alpha
Occup=    1.76389
   1        -0.01206935
   2        -0.70477810
   3        -0.00000000
   4        -0.00000000
   5         0.24215474
   6         0.01206935
   7         0.70477810
   8         0.00000000
   9        -0.00000000
  10         0.24215474
Sym=     7a  
Ene=    -0.0000
Spin= Alpha
Occup=    0.23611
   1         0.03154248
   2         0.35559643
   3        -0.00000000
   4        -0.00000000
   5        -0.63268636
   6         0.03154248
   7         0.35559643
   8         0.00000000
   9        -0.00000000
  10         0.63268636
Sym=     8a  
Ene=     0.1343
Spin= Alpha
Occup=    0.00000
   1        -0.00000000
   2        -0.00000000
   3        -0.48914374
   4        -0.65404349
   5         0.00000000
   6         0.00000000
   7         0.00000000
   8         0.48914374
   9         0.65404349
  10        -0.00000000
Sym=     9a  
Ene=     0.1343
Spin= Alpha
Occup=    0.00000
   1         0.00000000
   2        -0.00000000
   3         0.65404349
   4        -0.48914374
   5         0.00000000
   6        -0.00000000
   7         0.00000000
   8        -0.65404349
   9         0.48914374
  10         0.00000000
Sym=    10a  
Ene=     0.6103
Spin= Alpha
Occup=    0.00000
   1        -0.10077826
   2        -0.84645989
   3         0.00000000
   4         0.00000000
   5        -1.01328084
   6         0.10077826
   7         0.84645989
   8        -0.00000000
   9         0.00000000
  10        -1.01328084
