[Molden Format]
[N_Atoms]
                     2
[Atoms] (AU)
BE1         1      4           0.00000000      0.00000000      0.00000000
BE2         2      4           0.00000000      0.00000000      2.45664396
[Charge] (Mulliken)
 -9.761080832504376E-013
  9.539036227579345E-013
[GTO] (AU)
   1
   s  14
  2.262859900E+04  8.443999941E-05
  3.372318100E+03  4.601499968E-04
  7.603504000E+02  2.285389984E-03
  2.117404800E+02  9.648129932E-03
  6.722346800E+01  3.494469975E-02
  2.337217700E+01  1.061099893E-01
  8.721373000E+00  2.458240383E-01
  3.468091000E+00  3.862428773E-01
  1.452144000E+00  3.105526078E-01
  6.086150000E-01  6.415933955E-02
  2.576860000E-01 -2.265049984E-03
  1.041760000E-01 -5.217499963E-04
  4.242700000E-02 -8.757499938E-04
  1.484900000E-02  1.242199991E-04
   s  14
  2.262859900E+04 -1.586999994E-05
  3.372318100E+03 -8.656999968E-05
  7.603504000E+02 -4.302199984E-04
  2.117404800E+02 -1.825079993E-03
  6.722346800E+01 -6.682749976E-03
  2.337217700E+01 -2.095119992E-02
  8.721373000E+00 -5.200308981E-02
  3.468091000E+00 -9.849176964E-02
  1.452144000E+00 -1.355800695E-01
  6.086150000E-01 -6.429875976E-02
  2.576860000E-01  3.125414989E-01
  1.041760000E-01  6.270468577E-01
  4.242700000E-02  2.110231492E-01
  1.484900000E-02 -4.104669985E-03
   p   9
  3.371018400E+01  1.069960000E-03
  8.057649500E+00  6.828550001E-03
  2.836471400E+00  2.119065000E-02
  1.099965700E+00  5.843696001E-02
  4.433964000E-01  2.020920800E-01
  1.822264000E-01  4.582953101E-01
  7.572410000E-02  3.691239601E-01
  3.168540000E-02  6.611471001E-02
  1.108990000E-02  1.405160000E-03
 
   2
   s  14
  2.262859900E+04  8.443999941E-05
  3.372318100E+03  4.601499968E-04
  7.603504000E+02  2.285389984E-03
  2.117404800E+02  9.648129932E-03
  6.722346800E+01  3.494469975E-02
  2.337217700E+01  1.061099893E-01
  8.721373000E+00  2.458240383E-01
  3.468091000E+00  3.862428773E-01
  1.452144000E+00  3.105526078E-01
  6.086150000E-01  6.415933955E-02
  2.576860000E-01 -2.265049984E-03
  1.041760000E-01 -5.217499963E-04
  4.242700000E-02 -8.757499938E-04
  1.484900000E-02  1.242199991E-04
   s  14
  2.262859900E+04 -1.586999994E-05
  3.372318100E+03 -8.656999968E-05
  7.603504000E+02 -4.302199984E-04
  2.117404800E+02 -1.825079993E-03
  6.722346800E+01 -6.682749976E-03
  2.337217700E+01 -2.095119992E-02
  8.721373000E+00 -5.200308981E-02
  3.468091000E+00 -9.849176964E-02
  1.452144000E+00 -1.355800695E-01
  6.086150000E-01 -6.429875976E-02
  2.576860000E-01  3.125414989E-01
  1.041760000E-01  6.270468577E-01
  4.242700000E-02  2.110231492E-01
  1.484900000E-02 -4.104669985E-03
   p   9
  3.371018400E+01  1.069960000E-03
  8.057649500E+00  6.828550001E-03
  2.836471400E+00  2.119065000E-02
  1.099965700E+00  5.843696001E-02
  4.433964000E-01  2.020920800E-01
  1.822264000E-01  4.582953101E-01
  7.572410000E-02  3.691239601E-01
  3.168540000E-02  6.611471001E-02
  1.108990000E-02  1.405160000E-03
 
[MO]
Sym=     1a  
Ene=    -4.7955
Spin= Alpha
Occup=    2.00000
   1         0.70390375
   2         0.00254746
   3        -0.00000000
   4         0.00000000
   5         0.00346405
   6         0.70390375
   7         0.00254746
   8         0.00000000
   9        -0.00000000
  10        -0.00346405
Sym=     2a  
Ene=    -4.7729
Spin= Alpha
Occup=    2.00000
   1        -0.70934077
   2        -0.00126910
   3         0.00000000
   4        -0.00000000
   5         0.00013595
   6         0.70934077
   7         0.00126910
   8         0.00000000
   9        -0.00000000
  10         0.00013595
Sym=     3a  
Ene=    -0.4340
Spin= Alpha
Occup=    2.00000
   1        -0.11765604
   2         0.46640635
   3         0.00000000
   4        -0.00000000
   5         0.21703117
   6        -0.11765604
   7         0.46640635
   8        -0.00000000
   9         0.00000000
  10        -0.21703117
Sym=     4a  
Ene=     0.0115
Spin= Alpha
Occup=    0.09446
   1        -0.09543899
   2        -0.98466147
   3        -0.00000000
   4         0.00000000
   5         0.19078697
   6         0.09543899
   7         0.98466147
   8        -0.00000000
   9         0.00000000
  10         0.19078697
Sym=     5a  
Ene=     0.0000
Spin= Alpha
Occup=    1.90554
   1        -0.00000000
   2        -0.00000000
   3         0.53223568
   4         0.15530883
   5         0.00000000
   6         0.00000000
   7         0.00000000
   8         0.53223568
   9         0.15530883
  10        -0.00000000
Sym=     6a  
Ene=    -0.0016
Spin= Alpha
Occup=    0.00000
   1        -0.00000000
   2         0.00000000
   3        -0.15530883
   4         0.53223568
   5        -0.00000000
   6         0.00000000
   7        -0.00000000
   8        -0.15530883
   9         0.53223568
  10        -0.00000000
Sym=     7a  
Ene=     0.0917
Spin= Alpha
Occup=    0.00000
   1         0.12696279
   2         0.36025282
   3         0.00000000
   4        -0.00000000
   5        -0.79927312
   6         0.12696279
   7         0.36025282
   8        -0.00000000
   9         0.00000000
  10         0.79927312
Sym=     8a  
Ene=     0.2611
Spin= Alpha
Occup=    0.00000
   1         0.00000000
   2        -0.00000000
   3        -1.11079646
   4        -0.32413554
   5        -0.00000000
   6         0.00000000
   7         0.00000000
   8         1.11079646
   9         0.32413554
  10        -0.00000000
Sym=     9a  
Ene=     0.2734
Spin= Alpha
Occup=    0.00000
   1        -0.00000000
   2        -0.00000000
   3         0.32413554
   4        -1.11079646
   5         0.00000000
   6        -0.00000000
   7        -0.00000000
   8        -0.32413554
   9         1.11079646
  10        -0.00000000
Sym=    10a  
Ene=     1.1570
Spin= Alpha
Occup=    0.00000
   1        -1.41333629
   2        -5.52253831
   3         0.00000000
   4        -0.00000000
   5        -2.86375203
   6         1.41333629
   7         5.52253831
   8         0.00000000
   9        -0.00000000
  10        -2.86375203
