[Molden Format]
[N_Atoms]
                     2
[Atoms] (AU)
BE1         1      4           0.00000000      0.00000000      0.00000000
BE2         2      4           0.00000000      0.00000000      2.45664396
[Charge] (Mulliken)
  0.999999999999636     
   1.00000000000034     
[GTO] (AU)
   1
   s  14
  2.262859900E+04  8.443999941E-05
  3.372318100E+03  4.601499968E-04
  7.603504000E+02  2.285389984E-03
  2.117404800E+02  9.648129932E-03
  6.722346800E+01  3.494469975E-02
  2.337217700E+01  1.061099893E-01
  8.721373000E+00  2.458240383E-01
  3.468091000E+00  3.862428773E-01
  1.452144000E+00  3.105526078E-01
  6.086150000E-01  6.415933955E-02
  2.576860000E-01 -2.265049984E-03
  1.041760000E-01 -5.217499963E-04
  4.242700000E-02 -8.757499938E-04
  1.484900000E-02  1.242199991E-04
   s  14
  2.262859900E+04 -1.586999994E-05
  3.372318100E+03 -8.656999968E-05
  7.603504000E+02 -4.302199984E-04
  2.117404800E+02 -1.825079993E-03
  6.722346800E+01 -6.682749976E-03
  2.337217700E+01 -2.095119992E-02
  8.721373000E+00 -5.200308981E-02
  3.468091000E+00 -9.849176964E-02
  1.452144000E+00 -1.355800695E-01
  6.086150000E-01 -6.429875976E-02
  2.576860000E-01  3.125414989E-01
  1.041760000E-01  6.270468577E-01
  4.242700000E-02  2.110231492E-01
  1.484900000E-02 -4.104669985E-03
   p   9
  3.371018400E+01  1.069960000E-03
  8.057649500E+00  6.828550001E-03
  2.836471400E+00  2.119065000E-02
  1.099965700E+00  5.843696001E-02
  4.433964000E-01  2.020920800E-01
  1.822264000E-01  4.582953101E-01
  7.572410000E-02  3.691239601E-01
  3.168540000E-02  6.611471001E-02
  1.108990000E-02  1.405160000E-03
 
   2
   s  14
  2.262859900E+04  8.443999941E-05
  3.372318100E+03  4.601499968E-04
  7.603504000E+02  2.285389984E-03
  2.117404800E+02  9.648129932E-03
  6.722346800E+01  3.494469975E-02
  2.337217700E+01  1.061099893E-01
  8.721373000E+00  2.458240383E-01
  3.468091000E+00  3.862428773E-01
  1.452144000E+00  3.105526078E-01
  6.086150000E-01  6.415933955E-02
  2.576860000E-01 -2.265049984E-03
  1.041760000E-01 -5.217499963E-04
  4.242700000E-02 -8.757499938E-04
  1.484900000E-02  1.242199991E-04
   s  14
  2.262859900E+04 -1.586999994E-05
  3.372318100E+03 -8.656999968E-05
  7.603504000E+02 -4.302199984E-04
  2.117404800E+02 -1.825079993E-03
  6.722346800E+01 -6.682749976E-03
  2.337217700E+01 -2.095119992E-02
  8.721373000E+00 -5.200308981E-02
  3.468091000E+00 -9.849176964E-02
  1.452144000E+00 -1.355800695E-01
  6.086150000E-01 -6.429875976E-02
  2.576860000E-01  3.125414989E-01
  1.041760000E-01  6.270468577E-01
  4.242700000E-02  2.110231492E-01
  1.484900000E-02 -4.104669985E-03
   p   9
  3.371018400E+01  1.069960000E-03
  8.057649500E+00  6.828550001E-03
  2.836471400E+00  2.119065000E-02
  1.099965700E+00  5.843696001E-02
  4.433964000E-01  2.020920800E-01
  1.822264000E-01  4.582953101E-01
  7.572410000E-02  3.691239601E-01
  3.168540000E-02  6.611471001E-02
  1.108990000E-02  1.405160000E-03
 
[MO]
Sym=     1a  
Ene=    -5.5051
Spin= Alpha
Occup=    2.00000
   1         0.70567451
   2        -0.00330621
   3         0.00000000
   4        -0.00000000
   5        -0.00086912
   6         0.70567451
   7        -0.00330621
   8        -0.00000000
   9         0.00000000
  10         0.00086912
Sym=     2a  
Ene=    -5.4837
Spin= Alpha
Occup=    2.00000
   1        -0.70888481
   2         0.00126155
   3        -0.00000000
   4         0.00000000
   5         0.00058699
   6         0.70888481
   7        -0.00126155
   8         0.00000000
   9         0.00000000
  10         0.00058699
Sym=     3a  
Ene=    -1.0269
Spin= Alpha
Occup=    1.95713
   1        -0.13025568
   2         0.38765984
   3        -0.00000000
   4         0.00000000
   5         0.36797020
   6        -0.13025568
   7         0.38765984
   8         0.00000000
   9        -0.00000000
  10        -0.36797020
Sym=     4a  
Ene=    -0.0000
Spin= Alpha
Occup=    0.04287
   1         0.00000000
   2         0.00000001
   3        -0.06553488
   4         0.55054594
   5         0.00000000
   6        -0.00000000
   7        -0.00000001
   8        -0.06553488
   9         0.55054594
  10         0.00000000
Sym=     5a  
Ene=    -0.5472
Spin= Alpha
Occup=    0.00000
   1         0.00000000
   2        -0.00000000
   3         0.55054594
   4         0.06553488
   5         0.00000000
   6        -0.00000000
   7         0.00000000
   8         0.55054594
   9         0.06553488
  10         0.00000000
Sym=     6a  
Ene=    -0.4969
Spin= Alpha
Occup=    0.00000
   1         0.00388896
   2         0.62227946
   3         0.00000000
   4        -0.00000000
   5        -0.37720902
   6        -0.00388896
   7        -0.62227946
   8         0.00000000
   9        -0.00000000
  10        -0.37720902
Sym=     7a  
Ene=    -0.4541
Spin= Alpha
Occup=    0.00000
   1         0.10246915
   2         0.44388331
   3         0.00000000
   4        -0.00000000
   5        -0.74199004
   6         0.10246915
   7         0.44388331
   8        -0.00000000
   9         0.00000000
  10         0.74199004
Sym=     8a  
Ene=    -0.2808
Spin= Alpha
Occup=    0.00000
   1        -0.00000000
   2         0.00000000
   3         0.13677383
   4        -1.14901068
   5         0.00000000
   6        -0.00000000
   7         0.00000000
   8        -0.13677383
   9         1.14901068
  10        -0.00000000
Sym=     9a  
Ene=    -0.2805
Spin= Alpha
Occup=    0.00000
   1         0.00000000
   2        -0.00000000
   3        -1.14901068
   4        -0.13677383
   5        -0.00000000
   6        -0.00000000
   7        -0.00000000
   8         1.14901068
   9         0.13677383
  10         0.00000000
Sym=    10a  
Ene=     0.5667
Spin= Alpha
Occup=    0.00000
   1        -1.41677789
   2        -5.57501174
   3        -0.00000000
   4         0.00000000
   5        -2.84520445
   6         1.41677789
   7         5.57501174
   8        -0.00000000
   9         0.00000000
  10        -2.84520445
