[Molden Format]
[N_Atoms]
                     2
[Atoms] (AU)
BE1         1      4           0.00000000      0.00000000      0.00000000
BE2         2      4           0.00000000      0.00000000      2.45664396
[Charge] (Mulliken)
 -4.387601393318619E-013
  4.281019982954604E-013
[GTO] (AU)
   1
   s  14
  2.262859900E+04  8.443999941E-05
  3.372318100E+03  4.601499968E-04
  7.603504000E+02  2.285389984E-03
  2.117404800E+02  9.648129932E-03
  6.722346800E+01  3.494469975E-02
  2.337217700E+01  1.061099893E-01
  8.721373000E+00  2.458240383E-01
  3.468091000E+00  3.862428773E-01
  1.452144000E+00  3.105526078E-01
  6.086150000E-01  6.415933955E-02
  2.576860000E-01 -2.265049984E-03
  1.041760000E-01 -5.217499963E-04
  4.242700000E-02 -8.757499938E-04
  1.484900000E-02  1.242199991E-04
   s  14
  2.262859900E+04 -1.586999994E-05
  3.372318100E+03 -8.656999968E-05
  7.603504000E+02 -4.302199984E-04
  2.117404800E+02 -1.825079993E-03
  6.722346800E+01 -6.682749976E-03
  2.337217700E+01 -2.095119992E-02
  8.721373000E+00 -5.200308981E-02
  3.468091000E+00 -9.849176964E-02
  1.452144000E+00 -1.355800695E-01
  6.086150000E-01 -6.429875976E-02
  2.576860000E-01  3.125414989E-01
  1.041760000E-01  6.270468577E-01
  4.242700000E-02  2.110231492E-01
  1.484900000E-02 -4.104669985E-03
   p   9
  3.371018400E+01  1.069960000E-03
  8.057649500E+00  6.828550001E-03
  2.836471400E+00  2.119065000E-02
  1.099965700E+00  5.843696001E-02
  4.433964000E-01  2.020920800E-01
  1.822264000E-01  4.582953101E-01
  7.572410000E-02  3.691239601E-01
  3.168540000E-02  6.611471001E-02
  1.108990000E-02  1.405160000E-03
 
   2
   s  14
  2.262859900E+04  8.443999941E-05
  3.372318100E+03  4.601499968E-04
  7.603504000E+02  2.285389984E-03
  2.117404800E+02  9.648129932E-03
  6.722346800E+01  3.494469975E-02
  2.337217700E+01  1.061099893E-01
  8.721373000E+00  2.458240383E-01
  3.468091000E+00  3.862428773E-01
  1.452144000E+00  3.105526078E-01
  6.086150000E-01  6.415933955E-02
  2.576860000E-01 -2.265049984E-03
  1.041760000E-01 -5.217499963E-04
  4.242700000E-02 -8.757499938E-04
  1.484900000E-02  1.242199991E-04
   s  14
  2.262859900E+04 -1.586999994E-05
  3.372318100E+03 -8.656999968E-05
  7.603504000E+02 -4.302199984E-04
  2.117404800E+02 -1.825079993E-03
  6.722346800E+01 -6.682749976E-03
  2.337217700E+01 -2.095119992E-02
  8.721373000E+00 -5.200308981E-02
  3.468091000E+00 -9.849176964E-02
  1.452144000E+00 -1.355800695E-01
  6.086150000E-01 -6.429875976E-02
  2.576860000E-01  3.125414989E-01
  1.041760000E-01  6.270468577E-01
  4.242700000E-02  2.110231492E-01
  1.484900000E-02 -4.104669985E-03
   p   9
  3.371018400E+01  1.069960000E-03
  8.057649500E+00  6.828550001E-03
  2.836471400E+00  2.119065000E-02
  1.099965700E+00  5.843696001E-02
  4.433964000E-01  2.020920800E-01
  1.822264000E-01  4.582953101E-01
  7.572410000E-02  3.691239601E-01
  3.168540000E-02  6.611471001E-02
  1.108990000E-02  1.405160000E-03
 
[MO]
Sym=     1a  
Ene=    -4.8251
Spin= Alpha
Occup=    1.00000
   1         0.70347340
   2         0.00161839
   3         0.00000000
   4         0.00000000
   5         0.00596753
   6         0.70347340
   7         0.00161839
   8        -0.00000000
   9        -0.00000000
  10        -0.00596753
Sym=     1a  
Ene=    -4.8251
Spin= Beta
Occup=    1.00000
   1         0.70347340
   2         0.00161839
   3         0.00000000
   4         0.00000000
   5         0.00596753
   6         0.70347340
   7         0.00161839
   8        -0.00000000
   9        -0.00000000
  10        -0.00596753
Sym=     2a  
Ene=    -4.8026
Spin= Alpha
Occup=    1.00000
   1        -0.71322283
   2        -0.01533949
   3        -0.00000000
   4        -0.00000000
   5        -0.00843828
   6         0.71322283
   7         0.01533949
   8         0.00000000
   9         0.00000000
  10        -0.00843828
Sym=     2a  
Ene=    -4.8026
Spin= Beta
Occup=    1.00000
   1        -0.71322283
   2        -0.01533949
   3        -0.00000000
   4        -0.00000000
   5        -0.00843828
   6         0.71322283
   7         0.01533949
   8         0.00000000
   9         0.00000000
  10        -0.00843828
Sym=     3a  
Ene=    -0.4862
Spin= Alpha
Occup=    1.00000
   1        -0.12268848
   2         0.45249044
   3        -0.00000000
   4        -0.00000000
   5         0.24701113
   6        -0.12268848
   7         0.45249044
   8        -0.00000000
   9        -0.00000000
  10        -0.24701113
Sym=     3a  
Ene=    -0.4862
Spin= Beta
Occup=    1.00000
   1        -0.12268848
   2         0.45249044
   3        -0.00000000
   4        -0.00000000
   5         0.24701113
   6        -0.12268848
   7         0.45249044
   8        -0.00000000
   9        -0.00000000
  10        -0.24701113
Sym=     4a  
Ene=    -0.2096
Spin= Alpha
Occup=    1.00000
   1        -0.01964920
   2        -0.68213181
   3         0.00000000
   4        -0.00000000
   5         0.34662306
   6         0.01964920
   7         0.68213181
   8         0.00000000
   9        -0.00000000
  10         0.34662306
Sym=     4a  
Ene=    -0.2096
Spin= Beta
Occup=    1.00000
   1        -0.01964920
   2        -0.68213181
   3         0.00000000
   4        -0.00000000
   5         0.34662306
   6         0.01964920
   7         0.68213181
   8         0.00000000
   9        -0.00000000
  10         0.34662306
Sym=     5a  
Ene=    -0.0344
Spin= Alpha
Occup=    0.00000
   1         0.00000000
   2         0.00000000
   3         0.54819484
   4        -0.08293413
   5        -0.00000000
   6        -0.00000000
   7        -0.00000000
   8         0.54819484
   9        -0.08293413
  10        -0.00000000
Sym=     5a  
Ene=    -0.0344
Spin= Beta
Occup=    0.00000
   1         0.00000000
   2         0.00000000
   3         0.54819484
   4        -0.08293413
   5        -0.00000000
   6        -0.00000000
   7        -0.00000000
   8         0.54819484
   9        -0.08293413
  10        -0.00000000
Sym=     6a  
Ene=    -0.0344
Spin= Alpha
Occup=    0.00000
   1         0.00000000
   2         0.00000000
   3         0.08293413
   4         0.54819484
   5        -0.00000000
   6        -0.00000000
   7        -0.00000000
   8         0.08293413
   9         0.54819484
  10        -0.00000000
Sym=     6a  
Ene=    -0.0344
Spin= Beta
Occup=    0.00000
   1         0.00000000
   2         0.00000000
   3         0.08293413
   4         0.54819484
   5        -0.00000000
   6        -0.00000000
   7        -0.00000000
   8         0.08293413
   9         0.54819484
  10        -0.00000000
Sym=     7a  
Ene=     0.0466
Spin= Alpha
Occup=    0.00000
   1         0.12456202
   2         0.37758874
   3        -0.00000000
   4        -0.00000000
   5        -0.79050739
   6         0.12456202
   7         0.37758874
   8         0.00000000
   9        -0.00000000
  10         0.79050739
Sym=     7a  
Ene=     0.0466
Spin= Beta
Occup=    0.00000
   1         0.12456202
   2         0.37758874
   3        -0.00000000
   4        -0.00000000
   5        -0.79050739
   6         0.12456202
   7         0.37758874
   8         0.00000000
   9        -0.00000000
  10         0.79050739
Sym=     8a  
Ene=     0.2520
Spin= Alpha
Occup=    0.00000
   1        -0.00000000
   2        -0.00000000
   3        -1.15021664
   4        -0.12623119
   5         0.00000000
   6         0.00000000
   7         0.00000000
   8         1.15021664
   9         0.12623119
  10        -0.00000000
Sym=     8a  
Ene=     0.2520
Spin= Beta
Occup=    0.00000
   1        -0.00000000
   2        -0.00000000
   3        -1.15021664
   4        -0.12623119
   5         0.00000000
   6         0.00000000
   7         0.00000000
   8         1.15021664
   9         0.12623119
  10        -0.00000000
Sym=     9a  
Ene=     0.2520
Spin= Alpha
Occup=    0.00000
   1         0.00000000
   2         0.00000000
   3         0.12623119
   4        -1.15021664
   5        -0.00000000
   6         0.00000000
   7         0.00000000
   8        -0.12623119
   9         1.15021664
  10         0.00000000
Sym=     9a  
Ene=     0.2520
Spin= Beta
Occup=    0.00000
   1         0.00000000
   2         0.00000000
   3         0.12623119
   4        -1.15021664
   5        -0.00000000
   6         0.00000000
   7         0.00000000
   8        -0.12623119
   9         1.15021664
  10         0.00000000
Sym=    10a  
Ene=     1.1386
Spin= Alpha
Occup=    0.00000
   1         1.41446792
   2         5.56798439
   3        -0.00000000
   4        -0.00000000
   5         2.84907996
   6        -1.41446792
   7        -5.56798439
   8         0.00000000
   9         0.00000000
  10         2.84907996
Sym=    10a  
Ene=     1.1386
Spin= Beta
Occup=    0.00000
   1         1.41446792
   2         5.56798439
   3        -0.00000000
   4        -0.00000000
   5         2.84907996
   6        -1.41446792
   7        -5.56798439
   8         0.00000000
   9         0.00000000
  10         2.84907996
