   This run of MOLCAS is using the pymolcas driver

                             OPE
                             OPE          NMOL  CASOP  ENMOLC A   SO
                 OPE        NMOLC        AS  OP EN  MO LC     AS  OP
                OPENM       OL CA        SO  PE NM  OL CA     SOP EN
                OP EN      MO   LC       AS  OP ENMOL  CASO   PENMOL
                OP  EN     MO   LC       AS  OP EN     MO     LC ASO
               OP   E  NMOL  C  AS       OP  EN MO     LC     AS  OP
               OP  E   NMO   LC AS        OPEN  MO     LCASOP EN   M
               O  PEN   MO  LCA  SO
            OPE   NMO   L   CAS    OP
        OPENMOL  CASOP     ENMOL   CASOPE
     OPENMOLCA   SOPENMOLCASOPEN   MOLCASOPE
    OPENMOLCAS   OP           EN   MOL    CAS
    OPENMOLCAS       OP  ENM        O     LCA
    OPENMOLCAS    OPEN  MOLCASO     P  E  NMO
    OPENMOLCAS     OP               E  N  MOL
    OPENMOLCA   SO           PENM   O  L  CAS    OPEN    MO    LCAS
    OPENMOLCA   SOP           ENM   O  L  CAS   OP  EN  MOLC  AS   O
    OPENMOLCA   SOPE           NM      O  LCA   S      OP  EN MO
    OPENMOLC                AS         O  PEN   M      OL  CA  SOPE
    OPENMO        LCASOPE  NMOL        C  ASO   P      ENMOLC     AS
    OPE     NMO      LCA  SO     P     E   NM   OL  CA SO  PE N   MO
          OPENMOLCA            SOPE   NMO        LCAS  O    P  ENMO
     OPENMOLCASOPENMOLCASOPENMOLCASOPENMOLCA
        OPENMOLCASOPENMOLCASOPENMOLCASOPE
            OPENMOLCASOPENMOLCASOPENM
               OPENMOLCASOPENMOLCA        version: f37762c57
                   OPENMOLCASO
                       OPE                tag:

 OpenMolcas is free software; you can redistribute it and/or modify it
 under the terms of the GNU Lesser General Public License version 2.1.
 OpenMolcas is distributed in the hope that it will be useful, but it
 is provided "as is" and without any express or implied warranties.
 For more details see the full text of the license in the file
 LICENSE or in <http://www.gnu.org/licenses/>.

                 Copyright (C) The OpenMolcas Authors
           For the author list and the recommended citation,
                   consult the file CONTRIBUTORS.md

           *************************************************
           * pymolcas version py2.28                       *
           *   build c4a6d18ded8cb6cad61d2372a9abd97c      *
           *   (after the EMIL interpreter by V. Veryazov) *
           *************************************************

configuration info
------------------
C Compiler ID: Intel
C flags: -std=gnu99 -gcc-sys
Fortran Compiler ID: IntelLLVM
Fortran flags: -standard-semantics -fltconsistency -fpp -i8 -heap-arrays
Definitions: _MOLCAS_;_I8_;_LINUX_
Parallel: OFF (GA=OFF)


   ------------------------------------------------------------------------------------
  |
  |              Project: 2.96
  |       Submitted from: /home/grierjones/DDCASPT2/iron_oxo_DDCASPT2/MScaspt2iron/2.96
  |         Scratch area: /tmp/2.96
  |      Save outputs to: /home/grierjones/DDCASPT2/iron_oxo_DDCASPT2/MScaspt2iron/2.96
  |               Molcas: /home/grierjones/Test/build
  |
  | Scratch area is empty
  |
  |       MOLCAS_DRIVER = /usr/local/pymolcas
  | MOLCAS_KEEP_WORKDIR = NO
  |  MOLCAS_NEW_WORKDIR = YES
  |       MOLCAS_NPROCS = 1
  |        MOLCAS_PRINT = NORMAL
  |       MOLCAS_SOURCE = /home/grierjones/Test
  |    MOLCAS_STRUCTURE = 0
  |
   ------------------------------------------------------------------------------------

++ ---------   Input file   ---------

&GATEWAY
coord=2.96.xyz
Basis = ANO-RCC-VTZP
Group = nosymm
End of Input

&SEWARD
End of Input

&SCF
UHF
charge
2
spin
5
FileOrb
/home/grierjones/DDCASPT2/iron_oxo_DDCASPT2/MScaspt2iron/2.94/2.94.UhfOrb

>>> COPY $WorkDir/2.96.scf.h5 $CurrDir/

&RASSCF
Title= RASSCF
FileOrb
/home/grierjones/DDCASPT2/iron_oxo_DDCASPT2/MScaspt2iron/2.94/2.94.RasOrb
CIROOT
3 3 1
NACTEL
10 0 0
RAS2
14
Symmetry
1
Spin
5
charge
2
orblisting
all

>>> COPY $WorkDir/2.96.rasscf.h5 $CurrDir/

>>> COPY $WorkDir/GMJ_Fock_MO.csv $CurrDir/2.96.GMJ_Fock_MO.csv

&MOTRA
Frozen=0
LUMORB

>>> COPY $WorkDir/GMJ_one_int_indx.csv $CurrDir/2.96.GMJ_one_int_indx.csv

>>> COPY $WorkDir/GMJ_one_int.csv $CurrDir/2.96.GMJ_one_int.csv

>>> COPY $WorkDir/GMJ_two_int_indx.csv $CurrDir/2.96.GMJ_two_int_indx.csv

>>> COPY $WorkDir/GMJ_two_int.csv $CurrDir/2.96.GMJ_two_int.csv

&CASPT2

Imaginary Shift
0.2
IPEA
0.25

Frozen
0

MAXITER
50

>>> FOREACH k IN (1,2,3)

  >>> FOREACH i IN (B,E,F,G,H)

    >>> FOREACH j IN (P,M)

      >>> IF (-FILE GMJ_e2_${i}_${j}_${k}_.csv)

        >>> COPY $WorkDir/GMJ_RHS_${i}_${j}_${k}_.csv $CurrDir/GMJ_RHS_${i}_${j}_${k}_.csv

        >>> COPY $WorkDir/GMJ_IVECW_${i}_${j}_${k}_.csv $CurrDir/GMJ_IVECW_${i}_${j}_${k}_.csv

        >>> COPY $WorkDir/GMJ_IVECX_${i}_${j}_${k}_.csv $CurrDir/GMJ_IVECX_${i}_${j}_${k}_.csv

        >>> COPY $WorkDir/GMJ_IVECC2_${i}_${j}_${k}_.csv $CurrDir/GMJ_IVECC2_${i}_${j}_${k}_.csv

        >>> COPY $WorkDir/GMJ_e2_${i}_${j}_${k}_.csv $CurrDir/GMJ_e2_${i}_${j}_${k}_.csv

      >>> END IF

    >>> END FOREACH

  >>> END FOREACH

>>> END FOREACH

>>> FOREACH j IN (1,2,3)

  >>> FOREACH i IN (A,C,D)

    >>> IF (-FILE GMJ_e2_${i}_${j}_.csv)

      >>> COPY $WorkDir/GMJ_RHS_${i}_${j}_.csv $CurrDir/GMJ_RHS_${i}_${j}_.csv

      >>> COPY $WorkDir/GMJ_IVECW_${i}_${j}_.csv $CurrDir/GMJ_IVECW_${i}_${j}_.csv

      >>> COPY $WorkDir/GMJ_IVECX_${i}_${j}_.csv $CurrDir/GMJ_IVECX_${i}_${j}_.csv

      >>> COPY $WorkDir/GMJ_IVECC2_${i}_${j}_.csv $CurrDir/GMJ_IVECC2_${i}_${j}_.csv

      >>> COPY $WorkDir/GMJ_e2_${i}_${j}_.csv $CurrDir/GMJ_e2_${i}_${j}_.csv

    >>> END IF

  >>> END FOREACH

>>> END FOREACH

-- ----------------------------------

--- Start Module: gateway at Thu Apr 17 23:36:20 2025 ---
 
()()()()()()()()()()()()()()()()()()()()()()()()()()()()()()()()()()()()()()()()()()()()()()()()()()

                                              &GATEWAY

                                   only a single process is used
                       available to each process: 2.0 GB of memory, 1 thread?
()()()()()()()()()()()()()()()()()()()()()()()()()()()()()()()()()()()()()()()()()()()()()()()()()()
 
 
++    Symmetry information:
      ---------------------
 
                    Character Table for C1 
 
                             E  
                    a        1  x, y, xy, Rz, z, xz, Ry, yz, Rx, I
--
 
 
++    Basis set information:
      ----------------------
 
 
      Basis set label: O.ANO-RCC...4S3P2D1F.
 
      Electronic valence basis set:
      ------------------
      Associated Effective Charge   8.000000 au
      Associated Actual Charge      8.000000 au
      Nuclear Model: Point charge
 
      Shell  nPrim  nBasis  Cartesian Spherical Contaminant
         s      14       4        X                  
         p       9       3        X                  
         d       4       2                 X         
         f       3       1                 X         
 
 
      Basis set label: FE.ANO-RCC...6S5P3D2F1G.
 
      Electronic valence basis set:
      ------------------
      Associated Effective Charge  26.000000 au
      Associated Actual Charge     26.000000 au
      Nuclear Model: Point charge
 
      Shell  nPrim  nBasis  Cartesian Spherical Contaminant
         s      21       6        X                  
         p      15       5        X                  
         d      10       3                 X         
         f       6       2                 X         
         g       4       1                 X         
--
 
 
++    Molecular structure info:
      -------------------------
 
                    ************************************************ 
                    **** Cartesian Coordinates / Bohr, Angstrom **** 
                    ************************************************ 
 
     Center  Label                x              y              z                     x              y              z
        1      O1               0.000000       0.000000       4.308576              0.000000       0.000000       2.280000
        2      FE2              0.000000       0.000000      -1.285014              0.000000       0.000000      -0.680000
--
 
 
            Nuclear Potential Energy             37.18542561 au
 
--- Stop Module: gateway at Thu Apr 17 23:36:20 2025 /rc=_RC_ALL_IS_WELL_ ---
*** files: xmldump
    saved to directory /home/grierjones/DDCASPT2/iron_oxo_DDCASPT2/MScaspt2iron/2.96

--- Start Module: seward at Thu Apr 17 23:36:20 2025 ---
 
()()()()()()()()()()()()()()()()()()()()()()()()()()()()()()()()()()()()()()()()()()()()()()()()()()

                                              &SEWARD

                                   only a single process is used
                       available to each process: 2.0 GB of memory, 1 thread?
()()()()()()()()()()()()()()()()()()()()()()()()()()()()()()()()()()()()()()()()()()()()()()()()()()
 
               SEWARD will generate:
                  Multipole Moment integrals up to order  2
                  Kinetic Energy integrals
                  Nuclear Attraction integrals (point charge)
                  One-Electron Hamiltonian integrals
                  Velocity integrals
                  Relativistic Douglas-Kroll-Hess integrals:
                    - Parametrization         : EXP
                    - DKH order of Hamiltonian: 2
                    - DKH order of Properties : 0
                         - multipole moment operators
                         - electric potential operators
                         - contact operators
                  Atomic mean-field integrals
                  Two-Electron Repulsion integrals
 
                   Integrals are discarded if absolute value <: 0.10E-13
                   Integral cutoff threshold is set to       <: 0.10E-15
 
            Nuclear Potential Energy             37.18542561 au
 
 
      Basis set specifications :
      Symmetry species         a  
      Basis functions           89
 
 
  Input file to MOLDEN was generated!
 
forrtl: warning (525): IEEE_DIVIDE_BY_ZERO is signaling
forrtl: warning (526): IEEE_INVALID is signaling
forrtl: warning (528): IEEE_UNDERFLOW is signaling
--- Stop Module: seward at Thu Apr 17 23:36:23 2025 /rc=_RC_ALL_IS_WELL_ ---
*** files: 2.96.GssOrb 2.96.guessorb.h5 2.96.guessorb.molden xmldump
    saved to directory /home/grierjones/DDCASPT2/iron_oxo_DDCASPT2/MScaspt2iron/2.96
--- Module seward spent 2 seconds ---

*** symbolic link created: INPORB -> 2.96.GssOrb
--- Start Module: scf at Thu Apr 17 23:36:23 2025 ---
 
()()()()()()()()()()()()()()()()()()()()()()()()()()()()()()()()()()()()()()()()()()()()()()()()()()

                                                &SCF

                                   only a single process is used
                       available to each process: 2.0 GB of memory, 1 thread?
()()()()()()()()()()()()()()()()()()()()()()()()()()()()()()()()()()()()()()()()()()()()()()()()()()
 
 *** Possible bug in opening file
 *** isFreeUnit resets the unit number
++    Input section:
      --------------
 
      Header of the integral files:
      
       Integrals generated by seward 4.2.0  , Thu Apr 17 23:36:20 2025
 
 
      Cartesian coordinates in Angstrom:
      -----------------------------------------------------
      No.  Label        X            Y            Z        
      -----------------------------------------------------
       1   O1         0.00000000   0.00000000   2.28000000
       2   FE2        0.00000000   0.00000000  -0.68000000
      -----------------------------------------------------
      Nuclear repulsion energy =   37.18542561
--
 
++    Orbital specifications:
      -----------------------
 
      Symmetry species               1
                                     a
      Frozen orbitals                0
      Occupied orbitals alpha       18
      Occupied orbitals beta        14
      Secondary orbitals alpha      71
      Secondary orbitals beta       75
      Deleted orbitals               0
      Total number of orbitals      89
      Number of basis functions     89
--
 
      Molecular charge                           2.000
 
++    Optimization specifications:
      ----------------------------
 
      SCF Algorithm: Conventional USCF
      D(i)-D(i-1) density differences are used
      Number of density matrices in core                5
      Maximum number of NDDO SCF iterations           400
      Maximum number of HF SCF iterations             400
      Threshold for SCF energy change            0.10E-08
      Threshold for density matrix               0.10E-03
      Threshold for Fock matrix                  0.15E-03
      Threshold for linear dependence            0.10E-08
      Threshold at which DIIS is turned on       0.15E+00
      Threshold at which QNR/C2DIIS is turned on 0.75E-01
      Threshold for Norm(delta) (QNR/C2DIIS)     0.20E-04
      DIIS extrapolation of the SCF procedure
      All orbitals punched on: UHFORB
--
 
      Input vectors read from INPORB
      Orbital file label: * UHF orbitals
 
 
++ Convergence information
                               UHF SCF        iterations: Energy and convergence statistics
 
Iter     Tot. SCF        One-elec.       Two-elec.     Energy      Max Dij or  Max Fij      DNorm      TNorm      AccCon     Time
         Energy          Energy          Energy        Change      Delta Norm                                                in Sec.
 
 The total and one-electron energies are shifted by a value of      1000. a.u.
 
   1  -345.199189864  -918.851587236   536.466971757   0.00E+00    0.46E-02*   0.49E-03*    0.80E+01   0.21E+03   None         0.
   2  -345.199194754  -918.877649844   536.493029475  -0.49E-05*   0.12E-02*   0.39E-03*    0.94E-02   0.21E+03   EDIIS        0.
   3  -345.199196452  -918.858636870   536.474014803  -0.17E-05*   0.21E-02*   0.18E-03*    0.36E-02   0.21E+03   c2DIIS       0.
   4  -345.199197311  -918.880319022   536.495696096  -0.86E-06*   0.21E-02*   0.20E-03*    0.41E-02   0.21E+03   QNRc2DIIS    0.
   5  -345.199198161  -918.877802622   536.493178846  -0.85E-06*   0.13E-01*   0.16E-03*    0.28E-02   0.21E+03   QNRc2DIIS    0.
   6  -345.199200040  -918.916225498   536.531599844  -0.19E-05*   0.14E-02*   0.19E-03*    0.17E-01   0.21E+03   QNRc2DIIS    0.
   7  -345.199200261  -918.907139321   536.522513445  -0.22E-06*   0.15E-02*   0.82E-04     0.18E-02   0.21E+03   QNRc2DIIS    0.
   8  -345.199200360  -918.909635931   536.525009956  -0.99E-07*   0.22E-03*   0.34E-04     0.20E-02   0.21E+03   QNRc2DIIS    0.
   9  -345.199200367  -918.910079593   536.525453612  -0.64E-08*   0.61E-03*   0.23E-04     0.30E-03   0.21E+03   QNRc2DIIS    0.
  10  -345.199200380  -918.910273946   536.525647951  -0.14E-07*   0.52E-03*   0.27E-04     0.87E-03   0.21E+03   QNRc2DIIS    0.
  11  -345.199200369  -918.910075274   536.525449290   0.11E-07*   0.19E-03*   0.76E-05     0.72E-03   0.21E+03   QNRc2DIIS    0.
  12  -345.199200369  -918.910020698   536.525394714  -0.17E-09    0.19E-04    0.21E-05     0.25E-03   0.21E+03   QNRc2DIIS    0.
 
       Convergence after 12 Macro Iterations
--
 
 *****************************************************************************************************************************
 *                                                                                                                           *
 *                                             SCF/KS-DFT Program, Final results                                             *
 *                                                                                                                           *
 *                                                                                                                           *
 *                                                                                                                           *
 *                                                       Final Results                                                       *
 *                                                                                                                           *
 *****************************************************************************************************************************
 
::    Total SCF energy                              -1345.1992003694
      One-electron energy                           -1918.9100206979
      Two-electron energy                             536.5253947139
      Nuclear repulsion energy                         37.1854256146
      Kinetic energy (interpolated)                  1399.1513474958
      Virial theorem                                    0.9614393774
      Total spin, S(S+1)                                7.0446583059
      Total spin, S                                     2.2008625115
      Max non-diagonal density matrix element           0.0000113706
      Max non-diagonal Fock matrix element              0.0000015141
 
 
      All orbitals with orbital energies smaller than  E(LUMO)+0.5 are printed
 
++    Molecular orbitals:
      -------------------
 
      Title: UHF orbitals (alpha)

      Molecular orbitals for symmetry species 1: a  
 
          Orbital            1         2         3         4         5         6         7         8         9        10    
          Energy         -264.0217  -32.8052  -27.8867  -27.8867  -27.8606  -21.5064   -4.7183   -3.2933   -3.2933   -3.2301
          Occ. No.          1.0000    1.0000    1.0000    1.0000    1.0000    1.0000    1.0000    1.0000    1.0000    1.0000
 
        1 O1     1s         0.0000    0.0000    0.0000    0.0000   -0.0000    1.0000   -0.0000    0.0000    0.0000   -0.0000
        2 O1     2s         0.0000    0.0001    0.0000    0.0000   -0.0000    0.0004   -0.0003    0.0000    0.0000    0.0003
        3 O1     3s         0.0000    0.0001    0.0000    0.0000   -0.0000   -0.0007   -0.0005    0.0000    0.0000    0.0001
        4 O1     4s        -0.0000    0.0000    0.0000    0.0000   -0.0000    0.0004   -0.0003    0.0000    0.0000    0.0000
        5 O1     2px        0.0000    0.0000   -0.0000    0.0000    0.0000    0.0000    0.0000    0.0000   -0.0000    0.0000
        6 O1     3px        0.0000    0.0000   -0.0000    0.0000   -0.0000    0.0000    0.0000    0.0000   -0.0000    0.0000
        7 O1     4px        0.0000    0.0000    0.0000   -0.0000    0.0000    0.0000    0.0000   -0.0000    0.0000    0.0000
        8 O1     2py       -0.0000   -0.0000    0.0000    0.0000   -0.0000   -0.0000   -0.0000   -0.0000   -0.0000   -0.0000
        9 O1     3py       -0.0000   -0.0000    0.0000    0.0000    0.0000   -0.0000   -0.0000   -0.0000   -0.0000   -0.0000
       10 O1     4py       -0.0000   -0.0000   -0.0000   -0.0000   -0.0000   -0.0000   -0.0000    0.0000    0.0000   -0.0000
       11 O1     2pz       -0.0000   -0.0000   -0.0000   -0.0000    0.0000   -0.0002    0.0004    0.0000    0.0000   -0.0003
       12 O1     3pz       -0.0000   -0.0000   -0.0000   -0.0000    0.0001   -0.0002    0.0006    0.0000    0.0000    0.0004
       13 O1     4pz        0.0000    0.0000   -0.0000   -0.0000    0.0000   -0.0001   -0.0001    0.0000    0.0000    0.0003
       14 O1     3d2-       0.0000    0.0000    0.0000   -0.0000   -0.0000    0.0000   -0.0000    0.0000   -0.0000    0.0000
       15 O1     4d2-       0.0000    0.0000    0.0000   -0.0000   -0.0000   -0.0000   -0.0000    0.0000   -0.0000    0.0000
       16 O1     3d1-       0.0000    0.0000   -0.0000   -0.0000   -0.0000   -0.0000   -0.0000    0.0000    0.0000   -0.0000
       17 O1     4d1-       0.0000    0.0000   -0.0000   -0.0000   -0.0000    0.0000   -0.0000    0.0000    0.0000   -0.0000
       18 O1     3d0       -0.0000    0.0000    0.0000    0.0000   -0.0000   -0.0014   -0.0004   -0.0000   -0.0000    0.0000
       19 O1     4d0       -0.0000    0.0000    0.0000    0.0000   -0.0000    0.0013   -0.0004   -0.0000   -0.0000   -0.0000
       20 O1     3d1+      -0.0000   -0.0000    0.0000   -0.0000    0.0000    0.0000    0.0000   -0.0000    0.0000    0.0000
       21 O1     4d1+      -0.0000   -0.0000    0.0000   -0.0000    0.0000   -0.0000    0.0000   -0.0000    0.0000    0.0000
       22 O1     3d2+      -0.0000   -0.0000    0.0000    0.0000    0.0000   -0.0000    0.0000    0.0000    0.0000   -0.0000
       23 O1     4d2+      -0.0000   -0.0000    0.0000    0.0000    0.0000    0.0000    0.0000    0.0000    0.0000   -0.0000
       24 O1     4f3-      -0.0000    0.0000   -0.0000    0.0000   -0.0000   -0.0000    0.0000    0.0000   -0.0000    0.0000
       25 O1     4f2-      -0.0000   -0.0000   -0.0000    0.0000    0.0000   -0.0000    0.0000   -0.0000    0.0000   -0.0000
       26 O1     4f1-      -0.0000    0.0000    0.0000    0.0000    0.0000   -0.0000    0.0000   -0.0000   -0.0000    0.0000
       27 O1     4f0        0.0000    0.0000   -0.0000   -0.0000    0.0000   -0.0000    0.0001    0.0000    0.0000   -0.0000
       28 O1     4f1+       0.0000   -0.0000   -0.0000    0.0000   -0.0000    0.0000   -0.0000    0.0000   -0.0000   -0.0000
       29 O1     4f2+       0.0000    0.0000   -0.0000   -0.0000   -0.0000    0.0000   -0.0000   -0.0000   -0.0000    0.0000
       30 O1     4f3+      -0.0000   -0.0000   -0.0000   -0.0000    0.0000    0.0000   -0.0000    0.0000    0.0000   -0.0000
       31 FE2    1s         1.0000    0.0000   -0.0000   -0.0000   -0.0000   -0.0000   -0.0000    0.0000    0.0000    0.0000
       32 FE2    2s        -0.0000    1.0000    0.0000    0.0000   -0.0010   -0.0000   -0.0024    0.0000    0.0000   -0.0000
       33 FE2    3s         0.0000    0.0024   -0.0000   -0.0000    0.0000   -0.0001    1.0000    0.0000    0.0000   -0.0040
       34 FE2    4s        -0.0000   -0.0002   -0.0000   -0.0000    0.0001   -0.0003    0.0054    0.0000    0.0000    0.0017
       35 FE2    5s         0.0000    0.0001   -0.0000   -0.0000    0.0000   -0.0000   -0.0031   -0.0000   -0.0000   -0.0009
       36 FE2    6s        -0.0000   -0.0001    0.0000    0.0000   -0.0000    0.0000    0.0017    0.0000    0.0000    0.0001
       37 FE2    2px        0.0000   -0.0000    0.7693   -0.6389    0.0000   -0.0000    0.0000   -0.0017    0.0014   -0.0000
       38 FE2    3px        0.0000   -0.0000    0.0017   -0.0014    0.0000   -0.0000   -0.0000    0.7692   -0.6389    0.0000
       39 FE2    4px       -0.0000   -0.0000   -0.0002    0.0002    0.0000   -0.0000    0.0000   -0.0001    0.0001    0.0000
       40 FE2    5px       -0.0000   -0.0000    0.0005   -0.0004    0.0000   -0.0000   -0.0000   -0.0014    0.0012   -0.0000
       41 FE2    6px        0.0000    0.0000   -0.0003    0.0002   -0.0000   -0.0000   -0.0000    0.0008   -0.0007   -0.0000
       42 FE2    2py       -0.0000    0.0000   -0.6389   -0.7693   -0.0000    0.0000   -0.0000    0.0014    0.0017    0.0000
       43 FE2    3py       -0.0000    0.0000   -0.0014   -0.0017   -0.0000    0.0000    0.0000   -0.6389   -0.7692   -0.0000
       44 FE2    4py        0.0000    0.0000    0.0002    0.0002   -0.0000    0.0000   -0.0000    0.0001    0.0001   -0.0000
       45 FE2    5py        0.0000    0.0000   -0.0004   -0.0005   -0.0000    0.0000    0.0000    0.0012    0.0014    0.0000
       46 FE2    6py       -0.0000   -0.0000    0.0002    0.0003    0.0000    0.0000    0.0000   -0.0007   -0.0008    0.0000
       47 FE2    2pz        0.0000    0.0010   -0.0000   -0.0000    1.0000   -0.0000   -0.0000    0.0000    0.0000   -0.0017
       48 FE2    3pz       -0.0000    0.0000   -0.0000   -0.0000    0.0017   -0.0001    0.0041   -0.0000   -0.0000    1.0000
       49 FE2    4pz       -0.0000   -0.0001    0.0000    0.0000   -0.0001   -0.0003    0.0008    0.0000    0.0000    0.0034
       50 FE2    5pz       -0.0000   -0.0000   -0.0000   -0.0000    0.0004   -0.0001    0.0001   -0.0000   -0.0000   -0.0041
       51 FE2    6pz        0.0000   -0.0001    0.0000    0.0000   -0.0002    0.0000   -0.0001   -0.0000   -0.0000   -0.0003
       52 FE2    3d2-      -0.0000   -0.0000    0.0000   -0.0000   -0.0000    0.0000   -0.0000   -0.0000    0.0000   -0.0000
       53 FE2    4d2-       0.0000    0.0000   -0.0000    0.0000    0.0000    0.0000    0.0000   -0.0000    0.0000    0.0000
       54 FE2    5d2-      -0.0000   -0.0000    0.0000   -0.0000   -0.0000    0.0000    0.0000    0.0000   -0.0000   -0.0000
       55 FE2    3d1-       0.0000    0.0000   -0.0001   -0.0001    0.0000    0.0000    0.0000   -0.0015   -0.0018    0.0000
       56 FE2    4d1-      -0.0000   -0.0000    0.0000    0.0000   -0.0000    0.0000   -0.0000    0.0002    0.0002   -0.0000
       57 FE2    5d1-       0.0000    0.0000   -0.0000   -0.0000    0.0000    0.0000    0.0000    0.0000    0.0001    0.0000
       58 FE2    3d0       -0.0000   -0.0004   -0.0000   -0.0000    0.0001   -0.0001   -0.0112   -0.0000   -0.0000    0.0019
       59 FE2    4d0        0.0000    0.0003   -0.0000   -0.0000   -0.0000   -0.0002    0.0044    0.0000    0.0000    0.0008
       60 FE2    5d0       -0.0000   -0.0003   -0.0000   -0.0000    0.0001   -0.0001   -0.0002   -0.0000   -0.0000   -0.0004
       61 FE2    3d1+      -0.0000   -0.0000    0.0001   -0.0001   -0.0000   -0.0000   -0.0000    0.0018   -0.0015   -0.0000
       62 FE2    4d1+       0.0000    0.0000   -0.0000    0.0000    0.0000   -0.0000    0.0000   -0.0002    0.0002    0.0000
       63 FE2    5d1+      -0.0000   -0.0000    0.0000   -0.0000   -0.0000   -0.0000   -0.0000   -0.0001    0.0000   -0.0000
       64 FE2    3d2+       0.0000    0.0000    0.0000    0.0000    0.0000   -0.0000    0.0000   -0.0000   -0.0000    0.0000
       65 FE2    4d2+      -0.0000   -0.0000   -0.0000   -0.0000   -0.0000   -0.0000   -0.0000   -0.0000   -0.0000   -0.0000
       66 FE2    5d2+       0.0000    0.0000    0.0000    0.0000    0.0000   -0.0000    0.0000    0.0000    0.0000    0.0000
       67 FE2    4f3-      -0.0000    0.0000   -0.0000    0.0000   -0.0000   -0.0000    0.0000   -0.0000    0.0000   -0.0000
       68 FE2    5f3-       0.0000   -0.0000    0.0000   -0.0000    0.0000   -0.0000   -0.0000    0.0000   -0.0000    0.0000
       69 FE2    4f2-       0.0000   -0.0000    0.0000   -0.0000   -0.0000    0.0000   -0.0000    0.0000   -0.0000   -0.0000
       70 FE2    5f2-      -0.0000    0.0000   -0.0000    0.0000    0.0000    0.0000    0.0000   -0.0000    0.0000    0.0000
       71 FE2    4f1-      -0.0000    0.0000    0.0001    0.0002    0.0000    0.0000    0.0000    0.0042    0.0050   -0.0000
       72 FE2    5f1-       0.0000   -0.0000   -0.0002   -0.0002   -0.0000    0.0000   -0.0000   -0.0008   -0.0010   -0.0000
       73 FE2    4f0        0.0000   -0.0000    0.0000    0.0000   -0.0001   -0.0000    0.0000    0.0000    0.0000   -0.0011
       74 FE2    5f0       -0.0000   -0.0000   -0.0000   -0.0000    0.0001   -0.0001    0.0003   -0.0000   -0.0000    0.0004
       75 FE2    4f1+       0.0000   -0.0000   -0.0002    0.0001   -0.0000   -0.0000   -0.0000   -0.0050    0.0042    0.0000
       76 FE2    5f1+      -0.0000    0.0000    0.0002   -0.0002    0.0000   -0.0000    0.0000    0.0010   -0.0008    0.0000
       77 FE2    4f2+      -0.0000    0.0000    0.0000    0.0000    0.0000   -0.0000    0.0000    0.0000    0.0000    0.0000
       78 FE2    5f2+       0.0000   -0.0000   -0.0000   -0.0000   -0.0000   -0.0000   -0.0000   -0.0000   -0.0000   -0.0000
       79 FE2    4f3+       0.0000   -0.0000   -0.0000   -0.0000    0.0000    0.0000   -0.0000   -0.0000   -0.0000    0.0000
       80 FE2    5f3+      -0.0000    0.0000    0.0000    0.0000   -0.0000    0.0000    0.0000    0.0000    0.0000   -0.0000
       81 FE2    5g4-      -0.0000   -0.0000    0.0000   -0.0000    0.0000   -0.0000   -0.0000    0.0000   -0.0000   -0.0000
       82 FE2    5g3-       0.0000   -0.0000   -0.0000    0.0000    0.0000    0.0000   -0.0000   -0.0000    0.0000    0.0000
       83 FE2    5g2-       0.0000   -0.0000    0.0000   -0.0000   -0.0000    0.0000   -0.0000    0.0000   -0.0000    0.0000
       84 FE2    5g1-       0.0000   -0.0000    0.0000    0.0000    0.0000    0.0000   -0.0000    0.0000    0.0000    0.0000
       85 FE2    5g0       -0.0000    0.0001    0.0000    0.0000   -0.0000   -0.0000    0.0025    0.0000    0.0000   -0.0000
       86 FE2    5g1+      -0.0000    0.0000   -0.0000    0.0000   -0.0000   -0.0000    0.0000   -0.0000    0.0000   -0.0000
       87 FE2    5g2+      -0.0000    0.0000    0.0000    0.0000    0.0000   -0.0000    0.0000    0.0000    0.0000    0.0000
       88 FE2    5g3+      -0.0000    0.0000   -0.0000   -0.0000   -0.0000   -0.0000    0.0000   -0.0000   -0.0000   -0.0000
       89 FE2    5g4+       0.0000   -0.0000    0.0000    0.0000    0.0000    0.0000   -0.0000    0.0000    0.0000    0.0000
 
          Orbital           11        12        13        14        15        16        17        18        19        20    
          Energy           -2.0170   -1.3997   -1.3997   -1.0220   -1.0220   -0.9871   -0.9569   -0.9569   -0.5835   -0.4073
          Occ. No.          1.0000    1.0000    1.0000    1.0000    1.0000    1.0000    1.0000    1.0000    0.0000    0.0000
 
        1 O1     1s        -0.0004   -0.0000    0.0000   -0.0000    0.0000   -0.0014    0.0000    0.0000    0.0025   -0.0123
        2 O1     2s         0.9955   -0.0000    0.0000   -0.0000    0.0000   -0.0236    0.0000    0.0000    0.0435   -0.1199
        3 O1     3s        -0.0704    0.0000   -0.0000    0.0000   -0.0000    0.0018   -0.0000   -0.0000   -0.0119   -0.0006
        4 O1     4s        -0.0107    0.0000   -0.0000    0.0000   -0.0000    0.0006   -0.0000   -0.0000   -0.0045    0.0029
        5 O1     2px        0.0000    0.6312    0.7622   -0.0000   -0.0000    0.0000   -0.0088    0.0073   -0.0000   -0.0000
        6 O1     3px       -0.0000   -0.0879   -0.1062    0.0000    0.0000   -0.0000    0.0015   -0.0012   -0.0000   -0.0000
        7 O1     4px       -0.0000   -0.0029   -0.0035    0.0000    0.0000   -0.0000   -0.0001    0.0001    0.0000   -0.0000
        8 O1     2py       -0.0000    0.7622   -0.6312   -0.0000    0.0000   -0.0000    0.0073    0.0088    0.0001    0.0000
        9 O1     3py        0.0000   -0.1062    0.0879    0.0000   -0.0000    0.0000   -0.0012   -0.0015    0.0000    0.0000
       10 O1     4py        0.0000   -0.0035    0.0029    0.0000   -0.0000    0.0000    0.0001    0.0001   -0.0000    0.0000
       11 O1     2pz       -0.0211   -0.0001    0.0001   -0.0000    0.0000   -0.0453    0.0000    0.0000    0.9522    0.2853
       12 O1     3pz        0.0004    0.0000   -0.0000   -0.0000    0.0000   -0.0011    0.0000    0.0000    0.1028    0.0397
       13 O1     4pz        0.0022    0.0000   -0.0000    0.0000   -0.0000    0.0018   -0.0000   -0.0000   -0.0106   -0.0003
       14 O1     3d2-       0.0000   -0.0000   -0.0000    0.0003    0.0000   -0.0000    0.0000   -0.0000   -0.0000    0.0000
       15 O1     4d2-      -0.0000   -0.0000   -0.0000    0.0002    0.0000   -0.0000   -0.0000    0.0000   -0.0000    0.0000
       16 O1     3d1-      -0.0000   -0.0060    0.0050   -0.0000    0.0000    0.0000    0.0008    0.0010   -0.0000   -0.0000
       17 O1     4d1-       0.0000   -0.0024    0.0020   -0.0000    0.0000    0.0000    0.0004    0.0005   -0.0000   -0.0000
       18 O1     3d0       -0.0475    0.0000   -0.0000    0.0000   -0.0000    0.0045   -0.0000   -0.0000   -0.0162    0.0060
       19 O1     4d0        0.0036    0.0000   -0.0000    0.0000   -0.0000    0.0018   -0.0000   -0.0000   -0.0080    0.0012
       20 O1     3d1+       0.0000   -0.0050   -0.0060   -0.0000   -0.0000   -0.0000   -0.0010    0.0008    0.0000    0.0000
       21 O1     4d1+      -0.0000   -0.0020   -0.0024   -0.0000   -0.0000   -0.0000   -0.0005    0.0004    0.0000    0.0000
       22 O1     3d2+      -0.0000    0.0000   -0.0000   -0.0000    0.0003    0.0000    0.0000    0.0000    0.0000   -0.0000
       23 O1     4d2+       0.0000    0.0000   -0.0000   -0.0000    0.0002    0.0000   -0.0000   -0.0000    0.0000   -0.0000
       24 O1     4f3-      -0.0000    0.0000    0.0000   -0.0000    0.0000   -0.0000   -0.0000    0.0000    0.0000   -0.0000
       25 O1     4f2-      -0.0000   -0.0000   -0.0000   -0.0001   -0.0000   -0.0000    0.0000   -0.0000    0.0000    0.0000
       26 O1     4f1-       0.0000   -0.0078    0.0065    0.0000   -0.0000    0.0000   -0.0002   -0.0003   -0.0000   -0.0000
       27 O1     4f0        0.0004    0.0000   -0.0000   -0.0000    0.0000   -0.0000    0.0000    0.0000   -0.0113   -0.0033
       28 O1     4f1+      -0.0000   -0.0065   -0.0078    0.0000    0.0000   -0.0000    0.0003   -0.0002    0.0000    0.0000
       29 O1     4f2+       0.0000    0.0000   -0.0000    0.0000   -0.0001    0.0000    0.0000    0.0000   -0.0000   -0.0000
       30 O1     4f3+       0.0000   -0.0000    0.0000   -0.0000   -0.0000    0.0000   -0.0000   -0.0000   -0.0000   -0.0000
       31 FE2    1s         0.0000    0.0000   -0.0000   -0.0000    0.0000   -0.0000    0.0000    0.0000    0.0004    0.0002
       32 FE2    2s         0.0001    0.0000   -0.0000    0.0000   -0.0000    0.0003    0.0000    0.0000    0.0033    0.0013
       33 FE2    3s        -0.0002   -0.0000    0.0000    0.0000   -0.0000    0.0107   -0.0000   -0.0000    0.0198    0.0013
       34 FE2    4s         0.0024    0.0000   -0.0000    0.0000   -0.0000    0.0178    0.0000    0.0000   -0.1079    1.0097
       35 FE2    5s        -0.0000   -0.0000    0.0000   -0.0000    0.0000   -0.0046   -0.0000   -0.0000    0.0165   -0.0213
       36 FE2    6s         0.0002   -0.0000    0.0000   -0.0000    0.0000   -0.0000    0.0000    0.0000   -0.0018   -0.0261
       37 FE2    2px        0.0000    0.0000    0.0000   -0.0000   -0.0000   -0.0000   -0.0001    0.0000    0.0000    0.0000
       38 FE2    3px        0.0000   -0.0002   -0.0002   -0.0000   -0.0000   -0.0000   -0.0017    0.0014    0.0000   -0.0000
       39 FE2    4px        0.0000    0.0032    0.0038   -0.0000   -0.0000    0.0000    0.0105   -0.0087   -0.0000    0.0000
       40 FE2    5px        0.0000    0.0017    0.0021    0.0000    0.0000   -0.0000   -0.0004    0.0004   -0.0000    0.0000
       41 FE2    6px        0.0000    0.0016    0.0019    0.0000    0.0000   -0.0000   -0.0012    0.0010    0.0000    0.0000
       42 FE2    2py       -0.0000    0.0000   -0.0000   -0.0000    0.0000    0.0000    0.0000    0.0001   -0.0000   -0.0000
       43 FE2    3py       -0.0000   -0.0002    0.0002   -0.0000    0.0000    0.0000    0.0014    0.0017   -0.0000    0.0000
       44 FE2    4py       -0.0000    0.0038   -0.0032   -0.0000    0.0000   -0.0000   -0.0087   -0.0105    0.0000   -0.0000
       45 FE2    5py       -0.0000    0.0021   -0.0017    0.0000   -0.0000    0.0000    0.0004    0.0004    0.0000   -0.0000
       46 FE2    6py       -0.0000    0.0019   -0.0016    0.0000   -0.0000    0.0000    0.0010    0.0012   -0.0000   -0.0000
       47 FE2    2pz       -0.0000   -0.0000    0.0000   -0.0000    0.0000   -0.0001    0.0000    0.0000    0.0006    0.0002
       48 FE2    3pz       -0.0017   -0.0000    0.0000   -0.0000    0.0000   -0.0025    0.0000    0.0000    0.0158    0.0033
       49 FE2    4pz        0.0020    0.0000   -0.0000    0.0000   -0.0000    0.0273    0.0000    0.0000   -0.0721    0.1386
       50 FE2    5pz        0.0001   -0.0000    0.0000   -0.0000    0.0000   -0.0028   -0.0000   -0.0000   -0.0073    0.0406
       51 FE2    6pz       -0.0000   -0.0000    0.0000   -0.0000    0.0000   -0.0039   -0.0000   -0.0000   -0.0012    0.0279
       52 FE2    3d2-       0.0000   -0.0000   -0.0000    0.9948    0.0920   -0.0000   -0.0000    0.0000   -0.0000    0.0000
       53 FE2    4d2-      -0.0000   -0.0000   -0.0000   -0.0329   -0.0030    0.0000   -0.0000    0.0000   -0.0000   -0.0000
       54 FE2    5d2-      -0.0000   -0.0000   -0.0000   -0.0270   -0.0025    0.0000    0.0000   -0.0000   -0.0000   -0.0000
       55 FE2    3d1-      -0.0000    0.0032   -0.0026    0.0000   -0.0000   -0.0001   -0.6386   -0.7690   -0.0000    0.0000
       56 FE2    4d1-      -0.0000    0.0020   -0.0017   -0.0000    0.0000    0.0000    0.0048    0.0057    0.0000   -0.0000
       57 FE2    5d1-      -0.0000    0.0018   -0.0015   -0.0000    0.0000    0.0000    0.0129    0.0156    0.0000   -0.0000
       58 FE2    3d0        0.0031    0.0000   -0.0000    0.0000   -0.0000    0.9962   -0.0001   -0.0001    0.0904    0.0008
       59 FE2    4d0        0.0003    0.0000   -0.0000   -0.0000    0.0000   -0.0139    0.0000    0.0000   -0.0209   -0.0009
       60 FE2    5d0       -0.0000   -0.0000    0.0000   -0.0000    0.0000   -0.0220    0.0000    0.0000   -0.0145    0.0061
       61 FE2    3d1+       0.0000    0.0026    0.0032    0.0000    0.0000    0.0000    0.7690   -0.6386    0.0000   -0.0000
       62 FE2    4d1+       0.0000    0.0017    0.0020   -0.0000   -0.0000   -0.0000   -0.0057    0.0048   -0.0000    0.0000
       63 FE2    5d1+       0.0000    0.0015    0.0018   -0.0000   -0.0000   -0.0000   -0.0156    0.0129   -0.0000    0.0000
       64 FE2    3d2+      -0.0000    0.0000   -0.0000   -0.0920    0.9948    0.0000   -0.0000   -0.0000    0.0000    0.0000
       65 FE2    4d2+       0.0000    0.0000   -0.0000    0.0030   -0.0329   -0.0000   -0.0000   -0.0000    0.0000    0.0000
       66 FE2    5d2+       0.0000    0.0000   -0.0000    0.0025   -0.0270   -0.0000    0.0000    0.0000    0.0000    0.0000
       67 FE2    4f3-       0.0000    0.0000    0.0000    0.0000   -0.0000    0.0000    0.0000   -0.0000    0.0000   -0.0000
       68 FE2    5f3-      -0.0000    0.0000    0.0000    0.0000   -0.0000    0.0000    0.0000   -0.0000    0.0000   -0.0000
       69 FE2    4f2-      -0.0000   -0.0000   -0.0000    0.0022    0.0002   -0.0000   -0.0000    0.0000   -0.0000    0.0000
       70 FE2    5f2-      -0.0000   -0.0000   -0.0000    0.0011    0.0001   -0.0000   -0.0000    0.0000    0.0000    0.0000
       71 FE2    4f1-      -0.0000    0.0003   -0.0002    0.0000   -0.0000   -0.0000   -0.0023   -0.0028    0.0000   -0.0000
       72 FE2    5f1-      -0.0000    0.0003   -0.0002    0.0000   -0.0000   -0.0000   -0.0015   -0.0018    0.0000   -0.0000
       73 FE2    4f0        0.0003    0.0000   -0.0000    0.0000   -0.0000    0.0045   -0.0000   -0.0000   -0.0036   -0.0001
       74 FE2    5f0        0.0002    0.0000   -0.0000    0.0000   -0.0000    0.0032   -0.0000   -0.0000   -0.0031   -0.0001
       75 FE2    4f1+       0.0000    0.0002    0.0003    0.0000    0.0000    0.0000    0.0028   -0.0023   -0.0000    0.0000
       76 FE2    5f1+       0.0000    0.0002    0.0003    0.0000    0.0000    0.0000    0.0018   -0.0015   -0.0000    0.0000
       77 FE2    4f2+       0.0000    0.0000   -0.0000   -0.0002    0.0022    0.0000   -0.0000   -0.0000    0.0000   -0.0000
       78 FE2    5f2+       0.0000    0.0000   -0.0000   -0.0001    0.0011    0.0000   -0.0000   -0.0000   -0.0000   -0.0000
       79 FE2    4f3+      -0.0000   -0.0000    0.0000    0.0000    0.0000   -0.0000    0.0000    0.0000   -0.0000    0.0000
       80 FE2    5f3+       0.0000   -0.0000    0.0000    0.0000    0.0000   -0.0000    0.0000    0.0000   -0.0000    0.0000
       81 FE2    5g4-       0.0000   -0.0000   -0.0000    0.0000   -0.0000    0.0000   -0.0000    0.0000    0.0000    0.0000
       82 FE2    5g3-       0.0000   -0.0000   -0.0000   -0.0000    0.0000    0.0000   -0.0000    0.0000    0.0000   -0.0000
       83 FE2    5g2-      -0.0000   -0.0000   -0.0000   -0.0047   -0.0004    0.0000   -0.0000    0.0000   -0.0000   -0.0000
       84 FE2    5g1-      -0.0000    0.0000   -0.0000   -0.0000    0.0000    0.0000    0.0018    0.0022    0.0000   -0.0000
       85 FE2    5g0        0.0000    0.0000   -0.0000   -0.0000    0.0000   -0.0017    0.0000    0.0000   -0.0005    0.0002
       86 FE2    5g1+       0.0000    0.0000    0.0000   -0.0000   -0.0000   -0.0000   -0.0022    0.0018   -0.0000    0.0000
       87 FE2    5g2+       0.0000    0.0000   -0.0000    0.0004   -0.0047   -0.0000    0.0000    0.0000    0.0000    0.0000
       88 FE2    5g3+      -0.0000    0.0000   -0.0000   -0.0000   -0.0000   -0.0000   -0.0000   -0.0000   -0.0000    0.0000
       89 FE2    5g4+       0.0000    0.0000   -0.0000    0.0000    0.0000   -0.0000   -0.0000   -0.0000    0.0000    0.0000
 
          Orbital           21        22        23        24        25        26    
          Energy           -0.2862   -0.2862   -0.2721   -0.1938   -0.1329   -0.1329
          Occ. No.          0.0000    0.0000    0.0000    0.0000    0.0000    0.0000
 
        1 O1     1s        -0.0000   -0.0000   -0.0262   -0.0128    0.0000    0.0000
        2 O1     2s        -0.0000   -0.0000   -0.2368   -0.1110    0.0000    0.0000
        3 O1     3s        -0.0000   -0.0000    0.0190    0.0008   -0.0000   -0.0000
        4 O1     4s         0.0000    0.0000    0.0150    0.0054   -0.0000   -0.0000
        5 O1     2px       -0.0292    0.0250   -0.0000    0.0000    0.0599   -0.0717
        6 O1     3px        0.0858   -0.0735   -0.0000    0.0000    0.5014   -0.6005
        7 O1     4px        0.0315   -0.0269   -0.0000    0.0000    0.1879   -0.2251
        8 O1     2py        0.0250    0.0292    0.0000   -0.0000    0.0717    0.0599
        9 O1     3py       -0.0735   -0.0858    0.0000   -0.0000    0.6005    0.5014
       10 O1     4py       -0.0269   -0.0315    0.0000   -0.0000    0.2251    0.1879
       11 O1     2pz        0.0000    0.0000    0.2259   -0.0710   -0.0000   -0.0000
       12 O1     3pz        0.0000    0.0000    0.1035    0.1668   -0.0000   -0.0000
       13 O1     4pz        0.0000    0.0000    0.0278    0.0711   -0.0000   -0.0000
       14 O1     3d2-       0.0000   -0.0000    0.0000    0.0000   -0.0000    0.0000
       15 O1     4d2-      -0.0000    0.0000    0.0000    0.0000   -0.0000    0.0000
       16 O1     3d1-       0.0097    0.0114   -0.0000    0.0000   -0.0073   -0.0061
       17 O1     4d1-       0.0058    0.0068   -0.0000    0.0000   -0.0052   -0.0044
       18 O1     3d0       -0.0000   -0.0000    0.0018   -0.0197   -0.0000   -0.0000
       19 O1     4d0       -0.0000   -0.0000   -0.0054   -0.0151    0.0000    0.0000
       20 O1     3d1+      -0.0114    0.0097    0.0000   -0.0000   -0.0061    0.0073
       21 O1     4d1+      -0.0068    0.0058    0.0000   -0.0000   -0.0044    0.0052
       22 O1     3d2+       0.0000    0.0000   -0.0000   -0.0000    0.0000    0.0000
       23 O1     4d2+      -0.0000   -0.0000   -0.0000   -0.0000    0.0000    0.0000
       24 O1     4f3-      -0.0000    0.0000   -0.0000   -0.0000   -0.0000    0.0000
       25 O1     4f2-       0.0000   -0.0000    0.0000   -0.0000    0.0000   -0.0000
       26 O1     4f1-      -0.0010   -0.0011   -0.0000    0.0000    0.0014    0.0012
       27 O1     4f0       -0.0000   -0.0000   -0.0008    0.0031   -0.0000   -0.0000
       28 O1     4f1+       0.0011   -0.0010    0.0000   -0.0000    0.0012   -0.0014
       29 O1     4f2+       0.0000    0.0000   -0.0000    0.0000   -0.0000   -0.0000
       30 O1     4f3+      -0.0000   -0.0000    0.0000    0.0000    0.0000    0.0000
       31 FE2    1s         0.0000    0.0000    0.0003    0.0005   -0.0000   -0.0000
       32 FE2    2s         0.0000    0.0000    0.0025    0.0039   -0.0000   -0.0000
       33 FE2    3s         0.0000    0.0000    0.0133    0.0209   -0.0000   -0.0000
       34 FE2    4s        -0.0000   -0.0000   -0.0539    0.1426   -0.0000   -0.0000
       35 FE2    5s         0.0000    0.0000    0.1419    0.8362    0.0000    0.0000
       36 FE2    6s         0.0000    0.0000    0.0414    0.4514    0.0000    0.0000
       37 FE2    2px        0.0000   -0.0000    0.0000   -0.0000   -0.0005    0.0006
       38 FE2    3px       -0.0014    0.0012   -0.0000   -0.0000   -0.0100    0.0120
       39 FE2    4px        0.6895   -0.5902   -0.0000   -0.0000   -0.2797    0.3350
       40 FE2    5px        0.1715   -0.1468   -0.0000   -0.0000   -0.0502    0.0601
       41 FE2    6px        0.1135   -0.0972   -0.0000   -0.0000   -0.0265    0.0318
       42 FE2    2py       -0.0000   -0.0000   -0.0000    0.0000   -0.0006   -0.0005
       43 FE2    3py        0.0012    0.0014    0.0000    0.0000   -0.0120   -0.0100
       44 FE2    4py       -0.5902   -0.6895    0.0000    0.0000   -0.3350   -0.2797
       45 FE2    5py       -0.1468   -0.1715    0.0000    0.0000   -0.0601   -0.0502
       46 FE2    6py       -0.0972   -0.1135    0.0000    0.0000   -0.0318   -0.0265
       47 FE2    2pz        0.0000    0.0000    0.0004    0.0005   -0.0000   -0.0000
       48 FE2    3pz        0.0000    0.0000    0.0064    0.0109   -0.0000   -0.0000
       49 FE2    4pz        0.0000    0.0000    0.9840   -0.1074   -0.0000   -0.0000
       50 FE2    5pz        0.0000    0.0000    0.2772    0.0325   -0.0000   -0.0000
       51 FE2    6pz        0.0000    0.0000    0.1913    0.0397   -0.0000   -0.0000
       52 FE2    3d2-       0.0000   -0.0000    0.0000    0.0000    0.0000   -0.0000
       53 FE2    4d2-      -0.0000    0.0000    0.0000    0.0000   -0.0000    0.0000
       54 FE2    5d2-      -0.0000    0.0000    0.0000    0.0000   -0.0000    0.0000
       55 FE2    3d1-       0.0109    0.0127   -0.0000   -0.0000   -0.0238   -0.0199
       56 FE2    4d1-      -0.0440   -0.0514    0.0000   -0.0000    0.2024    0.1690
       57 FE2    5d1-      -0.0322   -0.0376    0.0000   -0.0000    0.1488    0.1242
       58 FE2    3d0        0.0000    0.0000    0.0005    0.0166   -0.0000   -0.0000
       59 FE2    4d0        0.0000    0.0000    0.0622    0.0454   -0.0000   -0.0000
       60 FE2    5d0        0.0000    0.0000    0.0443    0.0322   -0.0000   -0.0000
       61 FE2    3d1+      -0.0127    0.0109    0.0000    0.0000   -0.0199    0.0238
       62 FE2    4d1+       0.0514   -0.0440   -0.0000    0.0000    0.1690   -0.2024
       63 FE2    5d1+       0.0376   -0.0322   -0.0000    0.0000    0.1242   -0.1488
       64 FE2    3d2+       0.0000    0.0000   -0.0000   -0.0000   -0.0000   -0.0000
       65 FE2    4d2+      -0.0000   -0.0000   -0.0000   -0.0000    0.0000    0.0000
       66 FE2    5d2+      -0.0000   -0.0000   -0.0000   -0.0000    0.0000    0.0000
       67 FE2    4f3-      -0.0000    0.0000   -0.0000    0.0000    0.0000   -0.0000
       68 FE2    5f3-      -0.0000    0.0000   -0.0000    0.0000    0.0000   -0.0000
       69 FE2    4f2-      -0.0000    0.0000   -0.0000    0.0000    0.0000   -0.0000
       70 FE2    5f2-      -0.0000    0.0000   -0.0000    0.0000    0.0000   -0.0000
       71 FE2    4f1-      -0.0003   -0.0003   -0.0000    0.0000    0.0044    0.0036
       72 FE2    5f1-       0.0003    0.0003   -0.0000    0.0000    0.0041    0.0035
       73 FE2    4f0       -0.0000   -0.0000   -0.0005    0.0006   -0.0000   -0.0000
       74 FE2    5f0       -0.0000   -0.0000   -0.0004    0.0011   -0.0000   -0.0000
       75 FE2    4f1+       0.0003   -0.0003    0.0000   -0.0000    0.0036   -0.0044
       76 FE2    5f1+      -0.0003    0.0003    0.0000   -0.0000    0.0035   -0.0041
       77 FE2    4f2+      -0.0000   -0.0000    0.0000   -0.0000   -0.0000   -0.0000
       78 FE2    5f2+      -0.0000   -0.0000    0.0000   -0.0000   -0.0000   -0.0000
       79 FE2    4f3+      -0.0000   -0.0000    0.0000   -0.0000   -0.0000   -0.0000
       80 FE2    5f3+      -0.0000   -0.0000    0.0000   -0.0000   -0.0000   -0.0000
       81 FE2    5g4-       0.0000   -0.0000   -0.0000    0.0000    0.0000   -0.0000
       82 FE2    5g3-       0.0000   -0.0000    0.0000    0.0000    0.0000   -0.0000
       83 FE2    5g2-      -0.0000    0.0000    0.0000    0.0000   -0.0000    0.0000
       84 FE2    5g1-      -0.0002   -0.0002    0.0000    0.0000    0.0003    0.0002
       85 FE2    5g0       -0.0000   -0.0000    0.0000   -0.0001    0.0000    0.0000
       86 FE2    5g1+       0.0002   -0.0002   -0.0000   -0.0000    0.0002   -0.0003
       87 FE2    5g2+      -0.0000   -0.0000   -0.0000   -0.0000    0.0000    0.0000
       88 FE2    5g3+       0.0000    0.0000   -0.0000   -0.0000   -0.0000   -0.0000
       89 FE2    5g4+       0.0000    0.0000   -0.0000    0.0000   -0.0000   -0.0000
--
 
 
  Input file to MOLDEN was generated!
 
 
++    Static properties:
      ------------------
 
 
      LoProp Charges per center
 

                   O1       FE2   
      Nuclear      8.0000  26.0000
      Electronic  -7.1434 -24.8566
 
      Total        0.8566   1.1434
--
 
 
      All orbitals with orbital energies smaller than  E(LUMO)+0.5 are printed
 
++    Molecular orbitals:
      -------------------
 
      Title: UHF orbitals (beta)

      Molecular orbitals for symmetry species 1: a  
 
          Orbital            1         2         3         4         5         6         7         8         9        10    
          Energy         -264.0207  -32.7127  -27.7873  -27.7863  -27.7863  -21.4641   -4.4415   -2.9706   -2.9206   -2.9206
          Occ. No.          1.0000    1.0000    1.0000    1.0000    1.0000    1.0000    1.0000    1.0000    1.0000    1.0000
 
        1 O1     1s         0.0000    0.0000   -0.0000   -0.0000   -0.0000    1.0000    0.0001    0.0001   -0.0000   -0.0000
        2 O1     2s         0.0000    0.0001   -0.0001   -0.0000   -0.0000   -0.0020    0.0004    0.0020    0.0000    0.0000
        3 O1     3s         0.0000    0.0001   -0.0002   -0.0000   -0.0000   -0.0002    0.0002    0.0009   -0.0000   -0.0000
        4 O1     4s        -0.0000    0.0000   -0.0001   -0.0000   -0.0000   -0.0009    0.0000    0.0004   -0.0000   -0.0000
        5 O1     2px       -0.0000    0.0000   -0.0000    0.0000   -0.0000   -0.0000   -0.0000   -0.0000    0.0010   -0.0012
        6 O1     3px       -0.0000    0.0000    0.0000   -0.0000    0.0000   -0.0000   -0.0000    0.0000    0.0003   -0.0004
        7 O1     4px       -0.0000    0.0000    0.0000   -0.0000    0.0000   -0.0000   -0.0000    0.0000    0.0002   -0.0003
        8 O1     2py        0.0000   -0.0000    0.0000   -0.0000   -0.0000    0.0000    0.0000    0.0000    0.0012    0.0010
        9 O1     3py        0.0000   -0.0000   -0.0000    0.0000    0.0000    0.0000    0.0000   -0.0000    0.0004    0.0003
       10 O1     4py        0.0000   -0.0000   -0.0000    0.0000    0.0000    0.0000    0.0000   -0.0000    0.0003    0.0002
       11 O1     2pz       -0.0000   -0.0000    0.0000    0.0000    0.0000    0.0002    0.0003   -0.0004   -0.0000   -0.0000
       12 O1     3pz       -0.0000   -0.0000    0.0000    0.0000    0.0000    0.0004    0.0005    0.0008    0.0000    0.0000
       13 O1     4pz        0.0000   -0.0000   -0.0000   -0.0000   -0.0000    0.0002   -0.0001    0.0005    0.0000    0.0000
       14 O1     3d2-      -0.0000    0.0000   -0.0000   -0.0000    0.0000   -0.0000   -0.0000   -0.0000   -0.0000    0.0000
       15 O1     4d2-       0.0000    0.0000    0.0000   -0.0000    0.0000    0.0000   -0.0000   -0.0000    0.0000   -0.0000
       16 O1     3d1-      -0.0000    0.0000   -0.0000    0.0000    0.0000    0.0000   -0.0000   -0.0000   -0.0002   -0.0001
       17 O1     4d1-      -0.0000    0.0000   -0.0000    0.0000    0.0000   -0.0000    0.0000   -0.0000   -0.0001   -0.0000
       18 O1     3d0       -0.0000   -0.0000   -0.0000   -0.0000   -0.0000    0.0013   -0.0005   -0.0002   -0.0000   -0.0000
       19 O1     4d0       -0.0000   -0.0000   -0.0000   -0.0000   -0.0000   -0.0013   -0.0005   -0.0003   -0.0000   -0.0000
       20 O1     3d1+       0.0000   -0.0000    0.0000   -0.0000    0.0000   -0.0000    0.0000    0.0000   -0.0001    0.0002
       21 O1     4d1+       0.0000   -0.0000    0.0000   -0.0000    0.0000    0.0000   -0.0000    0.0000   -0.0000    0.0001
       22 O1     3d2+       0.0000   -0.0000    0.0000   -0.0000   -0.0000    0.0000    0.0000    0.0000    0.0000    0.0000
       23 O1     4d2+      -0.0000   -0.0000   -0.0000   -0.0000   -0.0000   -0.0000    0.0000    0.0000   -0.0000   -0.0000
       24 O1     4f3-       0.0000   -0.0000    0.0000   -0.0000    0.0000    0.0000    0.0000    0.0000   -0.0000    0.0000
       25 O1     4f2-       0.0000    0.0000   -0.0000    0.0000   -0.0000    0.0000    0.0000    0.0000    0.0000   -0.0000
       26 O1     4f1-       0.0000   -0.0000    0.0000   -0.0000   -0.0000    0.0000   -0.0000    0.0000    0.0000    0.0000
       27 O1     4f0        0.0000    0.0000    0.0000    0.0000    0.0000    0.0000    0.0001    0.0001   -0.0000   -0.0000
       28 O1     4f1+      -0.0000    0.0000   -0.0000    0.0000   -0.0000   -0.0000    0.0000   -0.0000    0.0000   -0.0000
       29 O1     4f2+      -0.0000   -0.0000   -0.0000    0.0000    0.0000   -0.0000   -0.0000   -0.0000   -0.0000   -0.0000
       30 O1     4f3+      -0.0000    0.0000   -0.0000   -0.0000   -0.0000   -0.0000   -0.0000   -0.0000    0.0000    0.0000
       31 FE2    1s         1.0000    0.0000   -0.0000   -0.0000   -0.0000    0.0000   -0.0000    0.0000    0.0000    0.0000
       32 FE2    2s        -0.0000    1.0000   -0.0010   -0.0000   -0.0000    0.0000    0.0003   -0.0000    0.0000    0.0000
       33 FE2    3s         0.0000   -0.0003   -0.0000    0.0000    0.0000    0.0001    1.0000   -0.0035    0.0000    0.0000
       34 FE2    4s        -0.0000    0.0001    0.0001    0.0000    0.0000    0.0005    0.0071    0.0028    0.0000    0.0000
       35 FE2    5s         0.0000   -0.0002    0.0001    0.0000    0.0000    0.0001   -0.0051   -0.0017   -0.0000   -0.0000
       36 FE2    6s        -0.0000    0.0001   -0.0000   -0.0000   -0.0000   -0.0001    0.0025    0.0002   -0.0000   -0.0000
       37 FE2    2px       -0.0000   -0.0000   -0.0000    0.7904   -0.6126    0.0000   -0.0000    0.0000    0.0013   -0.0016
       38 FE2    3px       -0.0000    0.0000    0.0000   -0.0017    0.0013    0.0000    0.0000    0.0000    0.6388   -0.7691
       39 FE2    4px        0.0000   -0.0000   -0.0000    0.0003   -0.0002    0.0000   -0.0000   -0.0000    0.0042   -0.0050
       40 FE2    5px       -0.0000    0.0000    0.0000   -0.0007    0.0005    0.0000    0.0000    0.0000   -0.0052    0.0063
       41 FE2    6px        0.0000   -0.0000   -0.0000    0.0004   -0.0003    0.0000    0.0000    0.0000   -0.0010    0.0012
       42 FE2    2py        0.0000    0.0000    0.0003   -0.6126   -0.7904   -0.0000    0.0000   -0.0000    0.0016    0.0013
       43 FE2    3py        0.0000   -0.0000   -0.0000    0.0013    0.0017   -0.0000   -0.0000   -0.0001    0.7691    0.6388
       44 FE2    4py       -0.0000    0.0000    0.0000   -0.0002   -0.0003   -0.0000    0.0000    0.0000    0.0050    0.0042
       45 FE2    5py        0.0000   -0.0000   -0.0000    0.0005    0.0007   -0.0000   -0.0000   -0.0000   -0.0063   -0.0052
       46 FE2    6py       -0.0000    0.0000    0.0000   -0.0003   -0.0004   -0.0000   -0.0000   -0.0000   -0.0012   -0.0010
       47 FE2    2pz        0.0000    0.0010    1.0000    0.0002    0.0002    0.0000    0.0000    0.0012    0.0000    0.0000
       48 FE2    3pz       -0.0000    0.0000   -0.0013   -0.0000   -0.0000    0.0001    0.0036    0.9997    0.0000    0.0000
       49 FE2    4pz        0.0000   -0.0001    0.0004    0.0000    0.0000    0.0005    0.0007    0.0096    0.0000    0.0000
       50 FE2    5pz       -0.0000   -0.0000   -0.0006   -0.0000   -0.0000    0.0001   -0.0004   -0.0096   -0.0000   -0.0000
       51 FE2    6pz        0.0000   -0.0001    0.0005    0.0000    0.0000    0.0000   -0.0004   -0.0027   -0.0000   -0.0000
       52 FE2    3d2-       0.0000    0.0000    0.0000   -0.0000    0.0000   -0.0000    0.0000    0.0000   -0.0000    0.0000
       53 FE2    4d2-       0.0000    0.0000   -0.0000   -0.0000    0.0000   -0.0000    0.0000   -0.0000   -0.0000    0.0000
       54 FE2    5d2-      -0.0000   -0.0000    0.0000    0.0000   -0.0000   -0.0000   -0.0000   -0.0000    0.0000   -0.0000
       55 FE2    3d1-       0.0000    0.0000    0.0000   -0.0000   -0.0001   -0.0000   -0.0000   -0.0000    0.0003    0.0003
       56 FE2    4d1-      -0.0000   -0.0000   -0.0000    0.0000    0.0000   -0.0000    0.0000    0.0000    0.0009    0.0007
       57 FE2    5d1-       0.0000    0.0000    0.0000   -0.0000   -0.0000   -0.0000   -0.0000   -0.0000   -0.0004   -0.0003
       58 FE2    3d0        0.0000    0.0001    0.0001    0.0000    0.0000    0.0001    0.0022    0.0038    0.0000    0.0000
       59 FE2    4d0       -0.0000   -0.0000    0.0000    0.0000    0.0000    0.0002    0.0003   -0.0007    0.0000    0.0000
       60 FE2    5d0       -0.0000   -0.0001    0.0002    0.0000    0.0000    0.0002   -0.0002   -0.0004   -0.0000   -0.0000
       61 FE2    3d1+      -0.0000   -0.0000   -0.0000    0.0001   -0.0000    0.0000    0.0000    0.0000    0.0003   -0.0003
       62 FE2    4d1+       0.0000    0.0000    0.0000   -0.0000    0.0000    0.0000   -0.0000   -0.0000    0.0007   -0.0009
       63 FE2    5d1+      -0.0000   -0.0000   -0.0000    0.0000   -0.0000    0.0000    0.0000    0.0000   -0.0003    0.0004
       64 FE2    3d2+      -0.0000   -0.0000   -0.0000   -0.0000   -0.0000    0.0000   -0.0000   -0.0000    0.0000    0.0000
       65 FE2    4d2+      -0.0000   -0.0000    0.0000   -0.0000   -0.0000    0.0000    0.0000    0.0000    0.0000    0.0000
       66 FE2    5d2+       0.0000    0.0000   -0.0000    0.0000    0.0000    0.0000    0.0000    0.0000   -0.0000   -0.0000
       67 FE2    4f3-       0.0000   -0.0000    0.0000   -0.0000    0.0000    0.0000   -0.0000    0.0000   -0.0000    0.0000
       68 FE2    5f3-      -0.0000    0.0000   -0.0000    0.0000   -0.0000    0.0000    0.0000    0.0000    0.0000   -0.0000
       69 FE2    4f2-      -0.0000    0.0000    0.0000   -0.0000    0.0000   -0.0000    0.0000    0.0000   -0.0000    0.0000
       70 FE2    5f2-       0.0000   -0.0000   -0.0000    0.0000   -0.0000   -0.0000   -0.0000   -0.0000    0.0000   -0.0000
       71 FE2    4f1-       0.0000   -0.0000    0.0000   -0.0004   -0.0005   -0.0000   -0.0000    0.0000    0.0098    0.0081
       72 FE2    5f1-      -0.0000    0.0000   -0.0000    0.0002    0.0003   -0.0000    0.0000    0.0000    0.0009    0.0007
       73 FE2    4f0       -0.0000    0.0000   -0.0009   -0.0000   -0.0000    0.0000    0.0002   -0.0188    0.0000    0.0000
       74 FE2    5f0        0.0000   -0.0000    0.0006    0.0000    0.0000    0.0001   -0.0001   -0.0004    0.0000    0.0000
       75 FE2    4f1+      -0.0000    0.0000   -0.0000    0.0005   -0.0004    0.0000    0.0000   -0.0000    0.0081   -0.0098
       76 FE2    5f1+       0.0000   -0.0000    0.0000   -0.0003    0.0002    0.0000   -0.0000   -0.0000    0.0007   -0.0009
       77 FE2    4f2+       0.0000   -0.0000   -0.0000   -0.0000   -0.0000    0.0000   -0.0000   -0.0000    0.0000    0.0000
       78 FE2    5f2+      -0.0000    0.0000    0.0000    0.0000    0.0000    0.0000    0.0000    0.0000   -0.0000   -0.0000
       79 FE2    4f3+      -0.0000    0.0000   -0.0000   -0.0000   -0.0000   -0.0000    0.0000   -0.0000    0.0000    0.0000
       80 FE2    5f3+       0.0000   -0.0000    0.0000    0.0000    0.0000   -0.0000   -0.0000   -0.0000   -0.0000   -0.0000
       81 FE2    5g4-      -0.0000    0.0000    0.0000   -0.0000    0.0000   -0.0000    0.0000    0.0000   -0.0000    0.0000
       82 FE2    5g3-       0.0000    0.0000   -0.0000    0.0000   -0.0000    0.0000    0.0000    0.0000    0.0000   -0.0000
       83 FE2    5g2-       0.0000    0.0000    0.0000   -0.0000    0.0000   -0.0000    0.0000   -0.0000   -0.0000    0.0000
       84 FE2    5g1-       0.0000    0.0000    0.0000   -0.0000   -0.0000   -0.0000    0.0000   -0.0000    0.0001    0.0001
       85 FE2    5g0       -0.0000   -0.0003    0.0000    0.0000    0.0000    0.0000   -0.0044   -0.0000    0.0000    0.0000
       86 FE2    5g1+      -0.0000   -0.0000   -0.0000    0.0000   -0.0000    0.0000   -0.0000    0.0000    0.0001   -0.0001
       87 FE2    5g2+      -0.0000   -0.0000    0.0000   -0.0000   -0.0000    0.0000   -0.0000    0.0000    0.0000    0.0000
       88 FE2    5g3+      -0.0000   -0.0000    0.0000    0.0000    0.0000   -0.0000   -0.0000   -0.0000   -0.0000   -0.0000
       89 FE2    5g4+       0.0000    0.0000    0.0000   -0.0000   -0.0000    0.0000    0.0000    0.0000    0.0000    0.0000
 
          Orbital           11        12        13        14        15        16        17        18        19        20    
          Energy           -1.8569   -1.3683   -0.7798   -0.7798   -0.5692   -0.5692   -0.4010   -0.2725   -0.2725   -0.2710
          Occ. No.          1.0000    1.0000    1.0000    1.0000    0.0000    0.0000    0.0000    0.0000    0.0000    0.0000
 
        1 O1     1s         0.0018    0.0002   -0.0000   -0.0000   -0.0000   -0.0000   -0.0157    0.0000    0.0000   -0.0248
        2 O1     2s         0.9983    0.0180   -0.0000   -0.0000   -0.0000   -0.0000   -0.1662    0.0000    0.0000   -0.2381
        3 O1     3s        -0.0425   -0.0131   -0.0000   -0.0000    0.0000    0.0000   -0.0076   -0.0000   -0.0000    0.0054
        4 O1     4s        -0.0081   -0.0023   -0.0000   -0.0000    0.0000    0.0000    0.0023   -0.0000   -0.0000    0.0114
        5 O1     2px        0.0000   -0.0000    0.1585   -0.1910   -0.7372    0.6104    0.0000   -0.1147    0.0960   -0.0000
        6 O1     3px        0.0000    0.0000    0.0128   -0.0154   -0.0952    0.0788    0.0000    0.0334   -0.0280    0.0000
        7 O1     4px       -0.0000    0.0000   -0.0049    0.0059    0.0041   -0.0034    0.0000    0.0237   -0.0198    0.0000
        8 O1     2py       -0.0000    0.0001    0.1910    0.1585    0.6104    0.7372   -0.0000    0.0960    0.1147    0.0000
        9 O1     3py       -0.0000   -0.0000    0.0154    0.0128    0.0788    0.0952   -0.0000   -0.0280   -0.0334   -0.0000
       10 O1     4py        0.0000   -0.0000   -0.0059   -0.0049   -0.0034   -0.0041   -0.0000   -0.0198   -0.0237   -0.0000
       11 O1     2pz       -0.0174    0.9904   -0.0000   -0.0000   -0.0001   -0.0001    0.1088   -0.0000   -0.0000    0.1245
       12 O1     3pz       -0.0078   -0.1195   -0.0000   -0.0000   -0.0000   -0.0000   -0.0264   -0.0000   -0.0000    0.0237
       13 O1     4pz        0.0018   -0.0097    0.0000    0.0000    0.0000    0.0000   -0.0063   -0.0000   -0.0000    0.0112
       14 O1     3d2-      -0.0000    0.0000   -0.0000    0.0000    0.0000   -0.0000   -0.0000   -0.0000    0.0000   -0.0000
       15 O1     4d2-      -0.0000    0.0000   -0.0000    0.0000    0.0000   -0.0000   -0.0000   -0.0000    0.0000   -0.0000
       16 O1     3d1-       0.0000   -0.0000   -0.0077   -0.0064   -0.0065   -0.0078    0.0000    0.0095    0.0114    0.0000
       17 O1     4d1-      -0.0000   -0.0000   -0.0044   -0.0036   -0.0045   -0.0055    0.0000    0.0055    0.0066    0.0000
       18 O1     3d0        0.0562   -0.0083    0.0000    0.0000    0.0000    0.0000    0.0061    0.0000    0.0000   -0.0021
       19 O1     4d0        0.0003   -0.0057    0.0000    0.0000    0.0000    0.0000    0.0053    0.0000    0.0000   -0.0005
       20 O1     3d1+      -0.0000    0.0000   -0.0064    0.0077    0.0078   -0.0065   -0.0000   -0.0114    0.0095   -0.0000
       21 O1     4d1+       0.0000    0.0000   -0.0036    0.0044    0.0055   -0.0045   -0.0000   -0.0066    0.0055   -0.0000
       22 O1     3d2+       0.0000   -0.0000    0.0000    0.0000    0.0000    0.0000    0.0000   -0.0000   -0.0000    0.0000
       23 O1     4d2+       0.0000   -0.0000    0.0000    0.0000    0.0000    0.0000    0.0000   -0.0000   -0.0000    0.0000
       24 O1     4f3-       0.0000   -0.0000   -0.0000    0.0000    0.0000   -0.0000    0.0000   -0.0000    0.0000    0.0000
       25 O1     4f2-       0.0000   -0.0000    0.0000   -0.0000   -0.0000    0.0000    0.0000   -0.0000    0.0000    0.0000
       26 O1     4f1-      -0.0000    0.0000    0.0033    0.0027    0.0075    0.0091   -0.0000    0.0005    0.0006    0.0000
       27 O1     4f0       -0.0009    0.0154   -0.0000   -0.0000   -0.0000   -0.0000    0.0009   -0.0000   -0.0000    0.0018
       28 O1     4f1+       0.0000   -0.0000    0.0027   -0.0033   -0.0091    0.0075    0.0000   -0.0006    0.0005   -0.0000
       29 O1     4f2+      -0.0000   -0.0000   -0.0000   -0.0000   -0.0000   -0.0000   -0.0000   -0.0000   -0.0000   -0.0000
       30 O1     4f3+      -0.0000    0.0000    0.0000    0.0000    0.0000    0.0000   -0.0000   -0.0000   -0.0000   -0.0000
       31 FE2    1s        -0.0000    0.0000   -0.0000   -0.0000   -0.0000   -0.0000   -0.0000   -0.0000   -0.0000    0.0001
       32 FE2    2s        -0.0002    0.0002   -0.0000   -0.0000   -0.0000   -0.0000   -0.0004   -0.0000   -0.0000    0.0009
       33 FE2    3s        -0.0020    0.0023    0.0000    0.0000   -0.0000   -0.0000   -0.0079   -0.0000   -0.0000    0.0054
       34 FE2    4s        -0.0010   -0.0114    0.0000    0.0000   -0.0000   -0.0000    0.9842    0.0000    0.0000   -0.1724
       35 FE2    5s        -0.0011    0.0016   -0.0000   -0.0000    0.0000    0.0000    0.0342   -0.0000   -0.0000    0.0773
       36 FE2    6s         0.0007    0.0018    0.0000    0.0000   -0.0000   -0.0000   -0.0392   -0.0000   -0.0000    0.0345
       37 FE2    2px        0.0000   -0.0000   -0.0001    0.0001    0.0001   -0.0001   -0.0000   -0.0002    0.0002   -0.0000
       38 FE2    3px        0.0000   -0.0000   -0.0014    0.0017    0.0040   -0.0033    0.0000   -0.0036    0.0030   -0.0000
       39 FE2    4px       -0.0000   -0.0000    0.0357   -0.0430   -0.0055    0.0046    0.0000    0.7058   -0.5906    0.0000
       40 FE2    5px       -0.0000   -0.0000    0.0009   -0.0011    0.0006   -0.0005    0.0000    0.2035   -0.1703    0.0000
       41 FE2    6px       -0.0000   -0.0000   -0.0013    0.0015    0.0016   -0.0013    0.0000    0.1376   -0.1151    0.0000
       42 FE2    2py       -0.0000    0.0000   -0.0001   -0.0001   -0.0001   -0.0001    0.0000    0.0002    0.0002    0.0000
       43 FE2    3py       -0.0000    0.0000   -0.0017   -0.0014   -0.0033   -0.0040   -0.0000    0.0030    0.0036    0.0000
       44 FE2    4py        0.0000    0.0000    0.0430    0.0357    0.0046    0.0055   -0.0000   -0.5906   -0.7058   -0.0002
       45 FE2    5py        0.0000    0.0000    0.0011    0.0009   -0.0005   -0.0006   -0.0000   -0.1703   -0.2035   -0.0001
       46 FE2    6py        0.0000    0.0000   -0.0015   -0.0013   -0.0013   -0.0016   -0.0000   -0.1151   -0.1376   -0.0000
       47 FE2    2pz       -0.0001    0.0002   -0.0000   -0.0000   -0.0000   -0.0000   -0.0001   -0.0000   -0.0000   -0.0000
       48 FE2    3pz       -0.0043    0.0063   -0.0000   -0.0000   -0.0000   -0.0000   -0.0040    0.0000    0.0000   -0.0027
       49 FE2    4pz       -0.0008   -0.0069    0.0000    0.0000    0.0000    0.0000    0.2184   -0.0002   -0.0002    0.9575
       50 FE2    5pz       -0.0011    0.0007    0.0000    0.0000    0.0000    0.0000    0.0601   -0.0000   -0.0001    0.2807
       51 FE2    6pz       -0.0009    0.0015   -0.0000   -0.0000    0.0000    0.0000    0.0396   -0.0000   -0.0000    0.1919
       52 FE2    3d2-      -0.0000    0.0000   -0.0000    0.0000   -0.0000    0.0000   -0.0000    0.0000   -0.0000   -0.0000
       53 FE2    4d2-      -0.0000    0.0000   -0.0000    0.0000   -0.0000    0.0000   -0.0000    0.0000   -0.0000   -0.0000
       54 FE2    5d2-      -0.0000    0.0000    0.0000   -0.0000    0.0000   -0.0000   -0.0000   -0.0000    0.0000   -0.0000
       55 FE2    3d1-       0.0000   -0.0000    0.7339    0.6089   -0.1829   -0.2208   -0.0001    0.0327    0.0391    0.0000
       56 FE2    4d1-       0.0000    0.0000    0.0694    0.0576   -0.0119   -0.0143   -0.0000   -0.0340   -0.0406   -0.0000
       57 FE2    5d1-       0.0000    0.0000    0.0081    0.0067    0.0011    0.0013   -0.0000   -0.0274   -0.0328   -0.0000
       58 FE2    3d0        0.0007   -0.0042    0.0001    0.0001   -0.0000   -0.0000    0.0208   -0.0000   -0.0000    0.0698
       59 FE2    4d0       -0.0006   -0.0018    0.0000    0.0000    0.0000    0.0000    0.0243   -0.0000   -0.0000    0.0818
       60 FE2    5d0       -0.0009    0.0004    0.0000    0.0000    0.0000    0.0000    0.0174   -0.0000   -0.0000    0.0525
       61 FE2    3d1+      -0.0000    0.0000    0.6089   -0.7339    0.2208   -0.1828    0.0000   -0.0391    0.0327   -0.0000
       62 FE2    4d1+      -0.0000   -0.0000    0.0576   -0.0694    0.0143   -0.0119    0.0000    0.0406   -0.0340    0.0000
       63 FE2    5d1+      -0.0000   -0.0000    0.0067   -0.0081   -0.0013    0.0011    0.0000    0.0328   -0.0274    0.0000
       64 FE2    3d2+       0.0000   -0.0000    0.0000    0.0000   -0.0000   -0.0000    0.0000    0.0000    0.0000    0.0000
       65 FE2    4d2+       0.0000   -0.0000    0.0000    0.0000   -0.0000   -0.0000    0.0000    0.0000    0.0000    0.0000
       66 FE2    5d2+       0.0000   -0.0000   -0.0000   -0.0000   -0.0000   -0.0000    0.0000    0.0000    0.0000    0.0000
       67 FE2    4f3-       0.0000   -0.0000   -0.0000    0.0000    0.0000   -0.0000    0.0000   -0.0000    0.0000    0.0000
       68 FE2    5f3-       0.0000   -0.0000   -0.0000    0.0000    0.0000   -0.0000    0.0000   -0.0000    0.0000    0.0000
       69 FE2    4f2-      -0.0000    0.0000   -0.0000    0.0000   -0.0000    0.0000   -0.0000    0.0000   -0.0000   -0.0000
       70 FE2    5f2-      -0.0000    0.0000   -0.0000    0.0000   -0.0000    0.0000   -0.0000    0.0000   -0.0000   -0.0000
       71 FE2    4f1-       0.0000   -0.0000    0.0049    0.0041    0.0014    0.0017    0.0000   -0.0022   -0.0026    0.0000
       72 FE2    5f1-       0.0000   -0.0000    0.0038    0.0032    0.0013    0.0016    0.0000   -0.0019   -0.0023    0.0000
       73 FE2    4f0       -0.0000   -0.0007    0.0000    0.0000    0.0000    0.0000   -0.0017    0.0000    0.0000   -0.0036
       74 FE2    5f0       -0.0000   -0.0006    0.0000    0.0000    0.0000    0.0000   -0.0013    0.0000    0.0000   -0.0036
       75 FE2    4f1+      -0.0000    0.0000    0.0041   -0.0049   -0.0017    0.0014   -0.0000    0.0026   -0.0022   -0.0000
       76 FE2    5f1+      -0.0000    0.0000    0.0032   -0.0038   -0.0016    0.0013   -0.0000    0.0023   -0.0019   -0.0000
       77 FE2    4f2+       0.0000   -0.0000    0.0000    0.0000   -0.0000   -0.0000    0.0000    0.0000    0.0000    0.0000
       78 FE2    5f2+       0.0000   -0.0000    0.0000    0.0000   -0.0000   -0.0000    0.0000    0.0000    0.0000    0.0000
       79 FE2    4f3+      -0.0000    0.0000    0.0000    0.0000    0.0000    0.0000   -0.0000   -0.0000   -0.0000   -0.0000
       80 FE2    5f3+      -0.0000    0.0000    0.0000    0.0000    0.0000    0.0000   -0.0000   -0.0000   -0.0000   -0.0000
       81 FE2    5g4-      -0.0000    0.0000    0.0000   -0.0000    0.0000   -0.0000    0.0000   -0.0000    0.0000   -0.0000
       82 FE2    5g3-       0.0000   -0.0000    0.0000   -0.0000    0.0000   -0.0000    0.0000   -0.0000    0.0000   -0.0000
       83 FE2    5g2-      -0.0000    0.0000    0.0000   -0.0000    0.0000   -0.0000    0.0000    0.0000   -0.0000   -0.0000
       84 FE2    5g1-       0.0000   -0.0000   -0.0012   -0.0010    0.0005    0.0006    0.0000   -0.0001   -0.0001   -0.0000
       85 FE2    5g0       -0.0000   -0.0000   -0.0000   -0.0000    0.0000    0.0000   -0.0008    0.0000    0.0000   -0.0001
       86 FE2    5g1+      -0.0000    0.0000   -0.0010    0.0012   -0.0006    0.0005   -0.0000    0.0001   -0.0001    0.0000
       87 FE2    5g2+       0.0000   -0.0000   -0.0000   -0.0000    0.0000    0.0000   -0.0000    0.0000    0.0000    0.0000
       88 FE2    5g3+      -0.0000    0.0000   -0.0000   -0.0000    0.0000    0.0000   -0.0000   -0.0000   -0.0000    0.0000
       89 FE2    5g4+      -0.0000    0.0000   -0.0000   -0.0000    0.0000    0.0000    0.0000   -0.0000   -0.0000   -0.0000
 
          Orbital           21        22        23        24        25        26        27    
          Energy           -0.1941   -0.1808   -0.1808   -0.1539   -0.0910   -0.0887   -0.0887
          Occ. No.          0.0000    0.0000    0.0000    0.0000    0.0000    0.0000    0.0000
 
        1 O1     1s        -0.0139    0.0000   -0.0000   -0.0168   -0.0151   -0.0000   -0.0000
        2 O1     2s        -0.1192    0.0000   -0.0000   -0.1508   -0.1301   -0.0001   -0.0002
        3 O1     3s        -0.0013   -0.0000    0.0000    0.0619    0.1414    0.0001    0.0002
        4 O1     4s         0.0065   -0.0000    0.0000    0.0300    0.0609    0.0001    0.0001
        5 O1     2px       -0.0000    0.0000   -0.0000   -0.0000    0.0000   -0.1091    0.0690
        6 O1     3px       -0.0000   -0.0000    0.0000    0.0000   -0.0000    0.6007   -0.3800
        7 O1     4px       -0.0000   -0.0000    0.0000    0.0000   -0.0000    0.2704   -0.1711
        8 O1     2py        0.0000    0.0000   -0.0000    0.0000   -0.0002    0.0690    0.1091
        9 O1     3py        0.0000   -0.0000    0.0000   -0.0000    0.0012   -0.3800   -0.6007
       10 O1     4py        0.0000   -0.0000    0.0000   -0.0000    0.0005   -0.1711   -0.2704
       11 O1     2pz        0.0280   -0.0000    0.0000    0.0955    0.2151    0.0002    0.0003
       12 O1     3pz        0.2956   -0.0000    0.0000    0.0363    0.9795    0.0009    0.0013
       13 O1     4pz        0.1042   -0.0000    0.0000    0.0253    0.3657    0.0003    0.0005
       14 O1     3d2-      -0.0000    0.0002    0.0091   -0.0000    0.0000   -0.0000    0.0000
       15 O1     4d2-      -0.0000    0.0001    0.0062   -0.0000    0.0000   -0.0000    0.0000
       16 O1     3d1-      -0.0000    0.0000   -0.0000    0.0000   -0.0000    0.0061    0.0097
       17 O1     4d1-      -0.0000    0.0000   -0.0000    0.0000   -0.0000    0.0039    0.0062
       18 O1     3d0       -0.0266   -0.0000    0.0000    0.0168   -0.0055   -0.0000   -0.0000
       19 O1     4d0       -0.0161   -0.0000    0.0000    0.0118   -0.0029   -0.0000   -0.0000
       20 O1     3d1+       0.0000    0.0000   -0.0000   -0.0000    0.0000   -0.0097    0.0061
       21 O1     4d1+       0.0000    0.0000   -0.0000   -0.0000    0.0000   -0.0062    0.0039
       22 O1     3d2+       0.0000    0.0091   -0.0002    0.0000    0.0000   -0.0000   -0.0000
       23 O1     4d2+       0.0000    0.0062   -0.0001    0.0000    0.0000   -0.0000   -0.0000
       24 O1     4f3-      -0.0000   -0.0000    0.0000   -0.0000   -0.0000   -0.0000   -0.0000
       25 O1     4f2-      -0.0000   -0.0000   -0.0011    0.0000   -0.0000   -0.0000    0.0000
       26 O1     4f1-      -0.0000   -0.0000   -0.0000    0.0000   -0.0000    0.0023    0.0036
       27 O1     4f0        0.0007    0.0000   -0.0000   -0.0012   -0.0012   -0.0000   -0.0000
       28 O1     4f1+       0.0000   -0.0000    0.0000   -0.0000    0.0000   -0.0036    0.0023
       29 O1     4f2+       0.0000   -0.0011    0.0000   -0.0000    0.0000   -0.0000   -0.0000
       30 O1     4f3+       0.0000    0.0000    0.0000    0.0000    0.0000    0.0000   -0.0000
       31 FE2    1s         0.0009   -0.0000    0.0000    0.0001    0.0031    0.0000    0.0000
       32 FE2    2s         0.0068   -0.0000    0.0000    0.0009    0.0222    0.0000    0.0000
       33 FE2    3s         0.0360    0.0000   -0.0000    0.0028    0.1079    0.0001    0.0001
       34 FE2    4s         0.1792   -0.0000    0.0000    0.0238    0.4769    0.0004    0.0006
       35 FE2    5s         0.7878   -0.0000    0.0000    0.0173   -0.3401   -0.0003   -0.0004
       36 FE2    6s         0.4668   -0.0000    0.0000    0.0632   -0.2971   -0.0003   -0.0004
       37 FE2    2px        0.0000    0.0000   -0.0000   -0.0000    0.0000   -0.0005    0.0003
       38 FE2    3px        0.0000    0.0000   -0.0000   -0.0000    0.0000   -0.0118    0.0074
       39 FE2    4px        0.0000    0.0000   -0.0000   -0.0000    0.0000   -0.3112    0.1969
       40 FE2    5px        0.0000    0.0000   -0.0000   -0.0000    0.0000   -0.0567    0.0359
       41 FE2    6px        0.0000    0.0000   -0.0000   -0.0000    0.0000   -0.0278    0.0176
       42 FE2    2py       -0.0000    0.0000   -0.0000    0.0000   -0.0000    0.0003    0.0005
       43 FE2    3py       -0.0000    0.0000   -0.0000    0.0000   -0.0000    0.0074    0.0118
       44 FE2    4py       -0.0000    0.0000   -0.0000    0.0000   -0.0006    0.1969    0.3112
       45 FE2    5py       -0.0000    0.0000   -0.0000    0.0000   -0.0001    0.0359    0.0567
       46 FE2    6py       -0.0000    0.0000   -0.0000    0.0000   -0.0001    0.0176    0.0278
       47 FE2    2pz        0.0009   -0.0000    0.0000    0.0001    0.0029    0.0000    0.0000
       48 FE2    3pz        0.0202    0.0000   -0.0000   -0.0004    0.0574    0.0001    0.0001
       49 FE2    4pz        0.0124    0.0000   -0.0000   -0.0718    0.2279    0.0002    0.0003
       50 FE2    5pz        0.0711    0.0000   -0.0000   -0.0385    0.1855    0.0002    0.0003
       51 FE2    6pz        0.0688    0.0000   -0.0000   -0.0323    0.1591    0.0001    0.0002
       52 FE2    3d2-      -0.0000    0.0187    0.8134   -0.0000    0.0000   -0.0000    0.0000
       53 FE2    4d2-      -0.0000    0.0118    0.5115   -0.0000    0.0000   -0.0000    0.0000
       54 FE2    5d2-      -0.0000    0.0063    0.2743   -0.0000    0.0000   -0.0000    0.0000
       55 FE2    3d1-       0.0000   -0.0000    0.0000   -0.0001   -0.0001    0.0392    0.0620
       56 FE2    4d1-       0.0000   -0.0000    0.0000   -0.0001    0.0005   -0.1748   -0.2763
       57 FE2    5d1-       0.0000   -0.0000    0.0000   -0.0000    0.0004   -0.1343   -0.2123
       58 FE2    3d0       -0.0502   -0.0000    0.0000    0.7771   -0.0548   -0.0001   -0.0001
       59 FE2    4d0        0.0030   -0.0000    0.0000    0.5416    0.1041    0.0001    0.0001
       60 FE2    5d0        0.0133   -0.0000    0.0000    0.2960    0.0970    0.0001    0.0001
       61 FE2    3d1+      -0.0000   -0.0000    0.0000    0.0000    0.0000   -0.0620    0.0392
       62 FE2    4d1+      -0.0000   -0.0000    0.0000    0.0000   -0.0000    0.2763   -0.1748
       63 FE2    5d1+      -0.0000   -0.0000    0.0000    0.0000   -0.0000    0.2123   -0.1343
       64 FE2    3d2+       0.0000    0.8134   -0.0187    0.0000    0.0000   -0.0000   -0.0000
       65 FE2    4d2+       0.0000    0.5115   -0.0118    0.0000    0.0000   -0.0000   -0.0000
       66 FE2    5d2+       0.0000    0.2743   -0.0063    0.0000    0.0000   -0.0000   -0.0000
       67 FE2    4f3-      -0.0000   -0.0000    0.0000   -0.0000   -0.0000    0.0000   -0.0000
       68 FE2    5f3-      -0.0000   -0.0000    0.0000   -0.0000   -0.0000    0.0000   -0.0000
       69 FE2    4f2-       0.0000    0.0001    0.0051   -0.0000    0.0000   -0.0000    0.0000
       70 FE2    5f2-      -0.0000    0.0001    0.0045   -0.0000    0.0000   -0.0000    0.0000
       71 FE2    4f1-      -0.0000   -0.0000   -0.0000   -0.0000    0.0000   -0.0015   -0.0024
       72 FE2    5f1-      -0.0000   -0.0000   -0.0000   -0.0000    0.0000   -0.0014   -0.0023
       73 FE2    4f0        0.0015   -0.0000    0.0000    0.0056    0.0056    0.0000    0.0000
       74 FE2    5f0        0.0019   -0.0000    0.0000    0.0047    0.0070    0.0000    0.0000
       75 FE2    4f1+       0.0000   -0.0000    0.0000    0.0000   -0.0000    0.0024   -0.0015
       76 FE2    5f1+       0.0000   -0.0000    0.0000    0.0000   -0.0000    0.0023   -0.0014
       77 FE2    4f2+      -0.0000    0.0051   -0.0001    0.0000    0.0000   -0.0000   -0.0000
       78 FE2    5f2+      -0.0000    0.0045   -0.0001    0.0000    0.0000   -0.0000   -0.0000
       79 FE2    4f3+       0.0000    0.0000    0.0000    0.0000    0.0000    0.0000    0.0000
       80 FE2    5f3+       0.0000    0.0000    0.0000    0.0000    0.0000    0.0000    0.0000
       81 FE2    5g4-      -0.0000   -0.0000    0.0000   -0.0000    0.0000   -0.0000    0.0000
       82 FE2    5g3-      -0.0000   -0.0000    0.0000   -0.0000    0.0000   -0.0000    0.0000
       83 FE2    5g2-      -0.0000    0.0000    0.0020   -0.0000    0.0000   -0.0000    0.0000
       84 FE2    5g1-      -0.0000   -0.0000   -0.0000    0.0000    0.0000   -0.0002   -0.0003
       85 FE2    5g0        0.0006    0.0000   -0.0000   -0.0026    0.0006    0.0000    0.0000
[...]
       72 FE2    5f1-       0.0000    0.0000    0.0000    0.0000   -0.0000    0.0000   -0.0000    0.0000   -0.0000   -0.0000
       73 FE2    4f0        0.0000   -0.0000    0.0000   -0.0000    0.0000   -0.0000   -0.0000    0.0000    0.0000   -0.0000
       74 FE2    5f0        0.0000   -0.0000   -0.0000   -0.0000    0.0000   -0.0000   -0.0000   -0.0000    0.0000   -0.0000
       75 FE2    4f1+       0.0000   -0.0000    0.0000   -0.0000    0.0000    0.0000   -0.0000   -0.0000   -0.0000    0.0000
       76 FE2    5f1+       0.0000   -0.0000   -0.0001   -0.0000   -0.0000    0.0000    0.0000    0.0000   -0.0000    0.0000
       77 FE2    4f2+       0.0000    0.0000    0.0001   -0.0120    0.7852    0.0000    0.0000    0.0085    0.6170    0.0234
       78 FE2    5f2+       0.0000    0.0000   -0.0001   -0.0095    0.6176    0.0000   -0.0000    0.0013   -0.7868    0.0076
       79 FE2    4f3+       0.0000    0.0157    0.0000   -0.0000   -0.0000    0.0041    0.0000    0.0000    0.0000    0.0000
       80 FE2    5f3+       0.0000    0.0123   -0.0000   -0.0000   -0.0000    0.0012   -0.0000   -0.0000   -0.0000    0.0000
       81 FE2    5g4-       1.0000   -0.0000    0.0000   -0.0000    0.0000   -0.0000    0.0000    0.0000   -0.0000    0.0000
       82 FE2    5g3-      -0.0000   -0.0007   -0.0000    0.0000   -0.0000   -0.0000    1.0000    0.0000    0.0000    0.0000
       83 FE2    5g2-      -0.0000    0.0000    0.9999    0.0010    0.0000    0.0000    0.0000    0.0037    0.0001   -0.0016
       84 FE2    5g1-      -0.0000    0.0000    0.0000   -0.0000   -0.0000   -0.0000   -0.0000    0.0000    0.0000    0.0000
       85 FE2    5g0       -0.0000   -0.0000    0.0000   -0.0000    0.0000   -0.0000    0.0000    0.0000   -0.0000    0.0000
       86 FE2    5g1+       0.0000   -0.0000   -0.0023    0.0000   -0.0000   -0.0000    0.0000    0.0000    0.0000   -0.0000
       87 FE2    5g2+       0.0000    0.0000   -0.0146   -0.0000    0.0010   -0.0000   -0.0001   -0.0010    0.0063   -0.0028
       88 FE2    5g3+       0.0000    0.0000   -0.0001    0.0000    0.0000   -0.0005   -0.0065    0.0000   -0.0000   -0.0000
       89 FE2    5g4+       0.0075   -0.0000    0.0000   -0.0000   -0.0000    0.0000    0.0000    0.0000    0.0000   -0.0000
 
          Orbital           81        82        83        84        85        86    
          Energy            3.3337    6.9978    4.0172    6.9978    7.5997    6.9970
          Occ. No.          0.0000    0.0000    0.0000    0.0000    0.0000    0.0000
 
        1 O1     1s         0.0000   -0.0000   -0.0000   -0.0000   -0.0000    0.0000
        2 O1     2s         0.0000   -0.0000   -0.0000   -0.0000   -0.0000    0.0000
        3 O1     3s        -0.0000   -0.0000   -0.0000   -0.0000   -0.0000    0.0000
        4 O1     4s        -0.0000   -0.0000   -0.0000   -0.0000   -0.0000    0.0000
        5 O1     2px       -0.0000    0.0000   -0.0000    0.0000   -0.0000   -0.0000
        6 O1     3px       -0.0000    0.0000   -0.0000    0.0000   -0.0000   -0.0000
        7 O1     4px       -0.0000    0.0000   -0.0000    0.0000   -0.0000   -0.0000
        8 O1     2py       -0.0000   -0.0000    0.0000    0.0000   -0.0000    0.0000
        9 O1     3py       -0.0000   -0.0000    0.0000    0.0000   -0.0000    0.0000
       10 O1     4py       -0.0000   -0.0000    0.0000    0.0000    0.0000    0.0000
       11 O1     2pz        0.0000    0.0000    0.0000    0.0000    0.0000   -0.0000
       12 O1     3pz        0.0000   -0.0000   -0.0000   -0.0000   -0.0000   -0.0000
       13 O1     4pz        0.0000    0.0000   -0.0000    0.0000   -0.0000   -0.0000
       14 O1     3d2-      -0.0024    0.0000    0.1216   -0.0000   -0.0000    0.0030
       15 O1     4d2-       0.0081    0.0000   -0.2192   -0.0000   -0.0000    0.0353
       16 O1     3d1-       0.0000    0.0000    0.0000   -0.0000    0.0000   -0.0000
       17 O1     4d1-      -0.0000    0.0000   -0.0000   -0.0000    0.0000   -0.0000
       18 O1     3d0        0.0000   -0.0000   -0.0000   -0.0000   -0.0000   -0.0000
       19 O1     4d0        0.0000    0.0000    0.0000    0.0000   -0.0000   -0.0000
       20 O1     3d1+       0.0000   -0.0000   -0.0000   -0.0000    0.0000    0.0000
       21 O1     4d1+      -0.0000   -0.0000    0.0000   -0.0000    0.0000    0.0000
       22 O1     3d2+       0.0014   -0.0000    0.4699   -0.0000   -0.0000   -0.0001
       23 O1     4d2+      -0.0048   -0.0000   -0.8471   -0.0000    0.0000   -0.0007
       24 O1     4f3-      -0.0001   -0.0031   -0.0000   -0.0004   -0.0000    0.0000
       25 O1     4f2-       0.8609   -0.0000    0.0025    0.0000    0.0000   -0.0197
       26 O1     4f1-      -0.0001   -0.0000    0.0000    0.0000   -0.0000    0.0000
       27 O1     4f0       -0.0000   -0.0000   -0.0000   -0.0000    0.0000    0.0000
       28 O1     4f1+      -0.0001    0.0000   -0.0000    0.0000   -0.0000   -0.0000
       29 O1     4f2+      -0.5088    0.0000    0.0097    0.0000   -0.0000    0.0004
       30 O1     4f3+      -0.0001   -0.0004    0.0000    0.0031   -0.0000    0.0000
       31 FE2    1s         0.0000   -0.0000   -0.0000   -0.0000   -0.0000   -0.0000
       32 FE2    2s         0.0000    0.0000   -0.0000    0.0000   -0.0000   -0.0000
       33 FE2    3s         0.0000    0.0000   -0.0000    0.0000   -0.0000   -0.0000
       34 FE2    4s         0.0000    0.0000   -0.0000    0.0000   -0.0000   -0.0000
       35 FE2    5s         0.0000    0.0000   -0.0000    0.0000   -0.0000   -0.0000
       36 FE2    6s         0.0000   -0.0000   -0.0000   -0.0000   -0.0000   -0.0000
       37 FE2    2px        0.0000    0.0000    0.0000    0.0000    0.0000    0.0000
       38 FE2    3px        0.0000    0.0000    0.0000    0.0000    0.0000   -0.0000
       39 FE2    4px       -0.0000   -0.0000    0.0000   -0.0000   -0.0000    0.0000
       40 FE2    5px        0.0000    0.0000    0.0000    0.0000   -0.0000   -0.0000
       41 FE2    6px        0.0000    0.0000    0.0000    0.0000   -0.0000    0.0000
       42 FE2    2py        0.0000   -0.0000   -0.0000    0.0000    0.0000   -0.0000
       43 FE2    3py        0.0000   -0.0000   -0.0000    0.0000    0.0000    0.0000
       44 FE2    4py       -0.0000    0.0000   -0.0000   -0.0000   -0.0000   -0.0000
       45 FE2    5py        0.0000   -0.0000   -0.0000    0.0000   -0.0000    0.0000
       46 FE2    6py        0.0000   -0.0000   -0.0000    0.0000    0.0000   -0.0000
       47 FE2    2pz        0.0000    0.0000   -0.0000    0.0000   -0.0000   -0.0000
       48 FE2    3pz        0.0000   -0.0000   -0.0000   -0.0000   -0.0000   -0.0000
       49 FE2    4pz       -0.0000    0.0000    0.0000    0.0000    0.0000    0.0000
       50 FE2    5pz       -0.0000   -0.0000    0.0000   -0.0000    0.0000   -0.0000
       51 FE2    6pz       -0.0000    0.0000    0.0000    0.0000    0.0000    0.0000
       52 FE2    3d2-       0.0026   -0.0000    0.0013    0.0000   -0.0000   -0.0008
       53 FE2    4d2-       0.0094   -0.0000    0.0042    0.0000   -0.0000   -0.0004
       54 FE2    5d2-       0.0184   -0.0000    0.0131    0.0000    0.0000   -0.0029
       55 FE2    3d1-       0.0000   -0.0000   -0.0000    0.0000    0.0000   -0.0000
       56 FE2    4d1-       0.0000   -0.0000   -0.0000    0.0000   -0.0000    0.0000
       57 FE2    5d1-       0.0000   -0.0000   -0.0000    0.0000   -0.0000   -0.0000
       58 FE2    3d0        0.0000    0.0000   -0.0000    0.0000   -0.0000   -0.0000
       59 FE2    4d0        0.0000    0.0000    0.0000    0.0000    0.0000   -0.0000
       60 FE2    5d0       -0.0000    0.0000    0.0000    0.0000    0.0000   -0.0000
       61 FE2    3d1+       0.0000    0.0000    0.0000    0.0000    0.0000    0.0000
       62 FE2    4d1+       0.0000    0.0000    0.0000    0.0000    0.0000   -0.0000
       63 FE2    5d1+       0.0000    0.0000    0.0000    0.0000   -0.0000   -0.0000
       64 FE2    3d2+      -0.0015    0.0000    0.0052    0.0000   -0.0000    0.0000
       65 FE2    4d2+      -0.0055    0.0000    0.0162    0.0000   -0.0000    0.0000
       66 FE2    5d2+      -0.0108    0.0000    0.0505    0.0000    0.0000    0.0001
       67 FE2    4f3-       0.0000   -0.6106    0.0000   -0.0833    0.0000    0.0000
       68 FE2    5f3-       0.0000    0.7803   -0.0000    0.1064    0.0000   -0.0000
       69 FE2    4f2-       0.0234    0.0000    0.0085   -0.0000   -0.0000    0.6170
       70 FE2    5f2-       0.0076   -0.0000    0.0013    0.0000   -0.0000   -0.7868
       71 FE2    4f1-       0.0000    0.0000   -0.0000   -0.0000    0.0000   -0.0000
       72 FE2    5f1-       0.0000    0.0000    0.0000   -0.0000    0.0000   -0.0000
       73 FE2    4f0       -0.0000   -0.0000    0.0000   -0.0000    0.0000   -0.0000
       74 FE2    5f0       -0.0000   -0.0000    0.0000   -0.0000    0.0000   -0.0000
       75 FE2    4f1+       0.0000   -0.0000    0.0000   -0.0000    0.0000    0.0000
       76 FE2    5f1+       0.0000   -0.0000   -0.0000   -0.0000    0.0000    0.0000
       77 FE2    4f2+      -0.0138   -0.0000    0.0328   -0.0000    0.0000   -0.0123
       78 FE2    5f2+      -0.0045    0.0000    0.0049    0.0000   -0.0000    0.0157
       79 FE2    4f3+       0.0000   -0.0833   -0.0000    0.6106    0.0000    0.0000
       80 FE2    5f3+       0.0000    0.1064    0.0000   -0.7803    0.0000   -0.0000
       81 FE2    5g4-      -0.0000    0.0000    0.0000   -0.0000    0.0075    0.0000
       82 FE2    5g3-      -0.0000   -0.0037    0.0000   -0.0005    0.0000   -0.0000
       83 FE2    5g2-      -0.0028    0.0000   -0.0010   -0.0000    0.0000    0.0063
       84 FE2    5g1-      -0.0000   -0.0000    0.0000    0.0000    0.0000    0.0000
       85 FE2    5g0        0.0000   -0.0000   -0.0000   -0.0000   -0.0000    0.0000
       86 FE2    5g1+      -0.0000    0.0000   -0.0000    0.0000    0.0000   -0.0000
       87 FE2    5g2+       0.0016   -0.0000   -0.0037   -0.0000    0.0000   -0.0001
       88 FE2    5g3+      -0.0000   -0.0005   -0.0000    0.0037    0.0000   -0.0000
       89 FE2    5g4+      -0.0000   -0.0000   -0.0000   -0.0000   -1.0000    0.0000
--
 
 
++    Molecular properties:
      ---------------------
 
      Charge (e):
                      =    2.0000
      Dipole Moment (Debye):
      Origin of the operator (Ang)=    0.0000    0.0000    0.0000
                   X=  1.5756E-06               Y= -6.2947E-05               Z=  5.2248E+00           Total=  5.2248E+00
      Center of Charge (Ang)
                     X=    0.00000016               Y=   -0.00000655               Z=    0.54388798
      Quadrupole Moment (Debye*Ang):
      Origin of the operator (Ang)=    0.0000    0.0000   -0.0218
                  XX= -1.2289E+01              XY=  7.4532E-07              XZ=  2.3415E-06              YY= -1.2289E+01
                  YZ= -9.3569E-05              ZZ=  1.2915E+01
      In traceless form (Debye*Ang)
                  XX= -1.2602E+01              XY=  1.1180E-06              XZ=  3.5123E-06              YY= -1.2602E+01
                  YZ= -1.4035E-04              ZZ=  2.5204E+01
--
 
 
  Input file to MOLDEN was generated!
 
 ###############################################################################
 ###############################################################################
 ###                                                                         ###
 ###                                                                         ###
 ###    RunFile label nBas                                                   ###
 ###    was used       86 times                                              ###
 ###                                                                         ###
 ###                                                                         ###
 ###############################################################################
 ###############################################################################
forrtl: warning (528): IEEE_UNDERFLOW is signaling
--- Stop Module: scf at Thu Apr 17 23:36:24 2025 /rc=_RC_ALL_IS_WELL_ ---
*** files: 2.96.LprOrb 2.96.LoProp.molden 2.96.scf.molden 2.96.scf.h5 2.96.UhfOrb 2.96.UnaOrb xmldump
    saved to directory /home/grierjones/DDCASPT2/iron_oxo_DDCASPT2/MScaspt2iron/2.96
--- Module scf spent 1 second ---

>>> COPY /tmp/2.96/2.96.scf.h5 /home/grierjones/DDCASPT2/iron_oxo_DDCASPT2/MScaspt2iron/2.96/

*** symbolic link created: INPORB -> 2.96.UnaOrb
--- Start Module: rasscf at Thu Apr 17 23:36:24 2025 ---
 
()()()()()()()()()()()()()()()()()()()()()()()()()()()()()()()()()()()()()()()()()()()()()()()()()()

                                              &RASSCF

                                   only a single process is used
                       available to each process: 2.0 GB of memory, 1 thread?
()()()()()()()()()()()()()()()()()()()()()()()()()()()()()()()()()()()()()()()()()()()()()()()()()()
 
 ###############################################################################
 ###############################################################################
 ###                                                                         ###
 ###                                                                         ###
 ###    LUMORB input error.                                                  ###
 ###                                                                         ###
 ###                                                                         ###
 ###############################################################################
 ###############################################################################
  Keyword LUMORB used with file name StartOrbFile=
 /home/grierjones/DDCASPT2/iron_oxo_DDCASPT2/MScaspt2iron/2.94/2.94.RasOrb      
                                                  
  but that file cannot be used. Perhaps it does
  not exist?
 
      Header of the ONEINT file:
      --------------------------
      
      Integrals generated by seward 4.2.0  , Thu Apr 17 23:36:20 2025
 
 
      OrdInt status: non-squared
 
 
      Cartesian coordinates in Angstrom:
      -----------------------------------------------------
      No.  Label        X            Y            Z        
      -----------------------------------------------------
       1   O1         0.00000000   0.00000000   2.28000000
       2   FE2        0.00000000   0.00000000  -0.68000000
      -----------------------------------------------------
      Nuclear repulsion energy =   37.18542561
 
++    Wave function specifications:
      -----------------------------
 
      Number of closed shell electrons          22
      Number of electrons in active shells      10
      Max number of holes in RAS1 space          0
      Max nr of electrons in RAS3 space          0
      Number of inactive orbitals               11
      Number of active orbitals                 14
      Number of secondary orbitals              64
      Spin quantum number                      2.0
      State symmetry                             1
--
 
++    Orbital specifications:
      -----------------------
 
      Symmetry species                           1
                                                 a
      Frozen orbitals                            0
      Inactive orbitals                         11
      Active orbitals                           14
      RAS1 orbitals                              0
      RAS2 orbitals                             14
      RAS3 orbitals                              0
      Secondary orbitals                        64
      Deleted orbitals                           0
      Number of basis functions                 89
--
 
++    CI expansion specifications:
      ----------------------------
 
      Number of CSFs                        975975
      Number of determinants               1249248
      Number of root(s) required                 3
      Root chosen for geometry opt.              3
      CI roots used                              1     2     3
      weights                                0.333 0.333 0.333
      highest root included in the CI            3
      max. size of the explicit Hamiltonian    200
--
 
++    Optimization specifications:
      ----------------------------
 
      RASSCF algorithm: Conventional
      Maximum number of macro iterations       200
      Maximum number of SX iterations          100
      Threshold for RASSCF energy            0.100E-07
      Threshold for max MO rotation          0.100E+00
      Threshold for max BLB element          0.100E-03
      Level shift parameter                  0.500E+00
      Make Quasi-Newton update
--
 
 ###############################################################################
 ###############################################################################
 ###                                                                         ###
 ###                                                                         ###
 ###    Location: rdVec_                                                     ###
 ###    File: /home/grierjones/DDCASPT2/iron_oxo_DDCASPT2/MScaspt2iron/2.94/2.94.RasOrb\n\n\n
 ###    ile: /home/grierjones/DDCASPT2/iron_oxo_DDCASPT2/MScaspt2iron/2.94/2.94.RasOrb\n\n\n
 ###    le: /home/grierjones/DDCASPT2/iron_oxo_DDCASPT2/MScaspt2iron/2.94/2.94.RasOrb\n\n\n
 ###    e: /home/grierjones/DDCASPT2/iron_oxo_DDCASPT2/MScaspt2iron/2.94/2.94.RasOrb\n\n\n
 ###    : /home/grierjones/DDCASPT2/iron_oxo_DDCASPT2/MScaspt2iron/2.94/2.94.RasOrb\n\n\n
 ###     /home/grierjones/DDCASPT2/iron_oxo_DDCASPT2/MScaspt2iron/2.94/2.94.RasOrb\n\n\n
 ###    /home/grierjones/DDCASPT2/iron_oxo_DDCASPT2/MScaspt2iron/2.94/2.94.RasOrb\n\n\n
 ###    home/grierjones/DDCASPT2/iron_oxo_DDCASPT2/MScaspt2iron/2.94/2.94.RasOrb\n\n\n
 ###    ome/grierjones/DDCASPT2/iron_oxo_DDCASPT2/MScaspt2iron/2.94/2.94.RasOrb\n\n\n
 ###    me/grierjones/DDCASPT2/iron_oxo_DDCASPT2/MScaspt2iron/2.94/2.94.RasOrb\n\n\n
 ###    e/grierjones/DDCASPT2/iron_oxo_DDCASPT2/MScaspt2iron/2.94/2.94.RasOrb\n\n\n
 ###    /grierjones/DDCASPT2/iron_oxo_DDCASPT2/MScaspt2iron/2.94/2.94.RasOrb\n\n\n
 ###    grierjones/DDCASPT2/iron_oxo_DDCASPT2/MScaspt2iron/2.94/2.94.RasOrb\n\n\n
 ###    rierjones/DDCASPT2/iron_oxo_DDCASPT2/MScaspt2iron/2.94/2.94.RasOrb\n\n\n
 ###    ierjones/DDCASPT2/iron_oxo_DDCASPT2/MScaspt2iron/2.94/2.94.RasOrb\n\n\n
 ###    erjones/DDCASPT2/iron_oxo_DDCASPT2/MScaspt2iron/2.94/2.94.RasOrb\n\n\n
 ###    rjones/DDCASPT2/iron_oxo_DDCASPT2/MScaspt2iron/2.94/2.94.RasOrb\n\n\n
 ###    jones/DDCASPT2/iron_oxo_DDCASPT2/MScaspt2iron/2.94/2.94.RasOrb\n\n\n
 ###    ones/DDCASPT2/iron_oxo_DDCASPT2/MScaspt2iron/2.94/2.94.RasOrb\n\n\n  ###
 ###    nes/DDCASPT2/iron_oxo_DDCASPT2/MScaspt2iron/2.94/2.94.RasOrb\n\n\n   ###
 ###    es/DDCASPT2/iron_oxo_DDCASPT2/MScaspt2iron/2.94/2.94.RasOrb          ###
 ###                                                                         ###
 ###                                                                         ###
 ###    Error during reading INPORB                                          ###
 ###     not defined yet                                                     ###
 ###                                                                         ###
 ###                                                                         ###
 ###############################################################################
 ###############################################################################
[ process      0]: xquit (rc =    128): _INTERNAL_ERROR_
abort: 
--- Stop Module: rasscf at Thu Apr 17 23:36:25 2025 /rc=_RC_FLOATING_EXCEPTION_ ---
*** files: xmldump
    saved to directory /home/grierjones/DDCASPT2/iron_oxo_DDCASPT2/MScaspt2iron/2.96

.########################.
.# Non-zero return code #.
.########################.

    Timing: Wall=4.66 User=4.15 System=0.50
************************************
*** WorkDir at /tmp/2.96 cleaned ***
************************************
