[Molden Format]
[N_Atoms]
                     2
[Atoms] (AU)
BE1         1      4           0.00000000      0.00000000      0.00000000
F2          2      9           0.00000000      0.00000000      5.10226054
[Charge] (Mulliken)
  8.906499698495729E-002
 -8.906499698500348E-002
[GTO] (AU)
   1
   s  14
  2.262859900E+04  8.443999941E-05
  3.372318100E+03  4.601499968E-04
  7.603504000E+02  2.285389984E-03
  2.117404800E+02  9.648129932E-03
  6.722346800E+01  3.494469975E-02
  2.337217700E+01  1.061099893E-01
  8.721373000E+00  2.458240383E-01
  3.468091000E+00  3.862428773E-01
  1.452144000E+00  3.105526078E-01
  6.086150000E-01  6.415933955E-02
  2.576860000E-01 -2.265049984E-03
  1.041760000E-01 -5.217499963E-04
  4.242700000E-02 -8.757499938E-04
  1.484900000E-02  1.242199991E-04
   s  14
  2.262859900E+04 -1.586999994E-05
  3.372318100E+03 -8.656999968E-05
  7.603504000E+02 -4.302199984E-04
  2.117404800E+02 -1.825079993E-03
  6.722346800E+01 -6.682749976E-03
  2.337217700E+01 -2.095119992E-02
  8.721373000E+00 -5.200308981E-02
  3.468091000E+00 -9.849176964E-02
  1.452144000E+00 -1.355800695E-01
  6.086150000E-01 -6.429875976E-02
  2.576860000E-01  3.125414989E-01
  1.041760000E-01  6.270468577E-01
  4.242700000E-02  2.110231492E-01
  1.484900000E-02 -4.104669985E-03
   p   9
  3.371018400E+01  1.069960000E-03
  8.057649500E+00  6.828550001E-03
  2.836471400E+00  2.119065000E-02
  1.099965700E+00  5.843696001E-02
  4.433964000E-01  2.020920800E-01
  1.822264000E-01  4.582953101E-01
  7.572410000E-02  3.691239601E-01
  3.168540000E-02  6.611471001E-02
  1.108990000E-02  1.405160000E-03
 
   2
   s  14
  1.031094600E+05  1.713099991E-04
  1.528100700E+04  7.123999962E-04
  3.441539200E+03  2.990479984E-03
  9.670948300E+02  1.164036994E-02
  3.140353400E+02  3.968642979E-02
  1.134423000E+02  1.128546094E-01
  4.464472700E+01  2.473650687E-01
  1.894287400E+01  3.672702681E-01
  8.532743000E+00  2.896286985E-01
  3.919401000E+00  7.786681959E-02
  1.568157000E+00  4.562139976E-03
  6.232900000E-01  2.468879987E-03
  2.408610000E-01  1.106309994E-03
  8.430100000E-02  1.739699991E-04
   s  14
  1.031094600E+05 -4.044999995E-05
  1.528100700E+04 -1.682299998E-04
  3.441539200E+03 -7.084299991E-04
  9.670948300E+02 -2.767999996E-03
  3.140353400E+02 -9.611379987E-03
  1.134423000E+02 -2.833957996E-02
  4.464472700E+01 -6.839343991E-02
  1.894287400E+01 -1.237379298E-01
  8.532743000E+00 -1.512859698E-01
  3.919401000E+00 -9.099909988E-03
  1.568157000E+00  3.716257695E-01
  6.232900000E-01  5.500214393E-01
  2.408610000E-01  2.092318697E-01
  8.430100000E-02  8.074639989E-03
   p   9
  2.453302900E+02  1.024860004E-03
  5.691900500E+01  8.344290032E-03
  1.760456800E+01  4.078927016E-02
  6.274995000E+00  1.351370605E-01
  2.447030000E+00  2.798830811E-01
  9.950600000E-01  3.597966414E-01
  4.039730000E-01  3.055347412E-01
  1.548100000E-01  1.354703905E-01
  5.418400000E-02  2.804449011E-02
 
[MO]
Sym=     1a  
Ene=   -26.3860
Spin= Alpha
Occup=    1.00000
   1        -0.00000576
   2        -0.00011825
   3        -0.00000000
   4         0.00000000
   5        -0.00016992
   6         0.99999999
   7        -0.00240433
   8        -0.00000000
   9         0.00000000
  10        -0.00010838
Sym=     1a  
Ene=   -26.3470
Spin= Beta
Occup=    1.00000
   1        -0.00000446
   2        -0.00003986
   3        -0.00000000
   4         0.00000000
   5        -0.00005844
   6         0.99999279
   7        -0.00404471
   8        -0.00000000
   9        -0.00000000
  10        -0.00007096
Sym=     2a  
Ene=    -4.7354
Spin= Alpha
Occup=    1.00000
   1         0.99999684
   2         0.00218080
   3        -0.00000000
   4         0.00000000
   5        -0.00059154
   6         0.00000748
   7         0.00009892
   8         0.00000000
   9        -0.00000000
  10        -0.00007880
Sym=     2a  
Ene=    -4.7327
Spin= Beta
Occup=    1.00000
   1         0.99999670
   2         0.00235078
   3        -0.00000000
   4         0.00000000
   5         0.00060498
   6        -0.00000912
   7        -0.00003843
   8         0.00000000
   9        -0.00000000
  10        -0.00005284
Sym=     3a  
Ene=    -1.6368
Spin= Alpha
Occup=    1.00000
   1        -0.00072843
   2        -0.00064953
   3         0.00000000
   4        -0.00000000
   5        -0.00102225
   6         0.00245380
   7         1.00013529
   8        -0.00000000
   9         0.00000000
  10        -0.01074166
Sym=     3a  
Ene=    -1.4746
Spin= Beta
Occup=    1.00000
   1        -0.00069415
   2         0.00933602
   3         0.00000000
   4        -0.00000000
   5         0.00709518
   6         0.00390426
   7         0.99820623
   8        -0.00000000
   9         0.00000000
  10         0.00410604
Sym=     4a  
Ene=    -0.7886
Spin= Alpha
Occup=    1.00000
   1         0.00703483
   2         0.00609713
   3        -0.00000000
   4         0.00000000
   5         0.00769687
   6        -0.00003834
   7         0.00899062
   8        -0.00000000
   9        -0.00000000
  10         1.00157124
Sym=     4a  
Ene=    -0.6599
Spin= Beta
Occup=    1.00000
   1         0.00000000
   2        -0.00000000
   3         0.00260354
   4         0.00012989
   5        -0.00000000
   6         0.00000000
   7         0.00000000
   8         0.99861250
   9         0.04981900
  10         0.00000000
Sym=     5a  
Ene=    -0.7011
Spin= Alpha
Occup=    1.00000
   1         0.00000000
   2        -0.00000000
   3        -0.00306206
   4        -0.00010610
   5         0.00000000
   6         0.00000000
   7         0.00000000
   8         0.99956255
   9         0.03463588
  10         0.00000000
Sym=     5a  
Ene=    -0.6599
Spin= Beta
Occup=    1.00000
   1         0.00000000
   2        -0.00000000
   3        -0.00012989
   4         0.00260354
   5         0.00000000
   6         0.00000000
   7        -0.00000000
   8        -0.04981900
   9         0.99861250
  10         0.00000000
Sym=     6a  
Ene=    -0.7011
Spin= Alpha
Occup=    1.00000
   1         0.00000000
   2        -0.00000000
   3         0.00010610
   4        -0.00306206
   5         0.00000000
   6        -0.00000000
   7        -0.00000000
   8        -0.03463588
   9         0.99956255
  10         0.00000000
Sym=     6a  
Ene=    -0.3282
Spin= Beta
Occup=    1.00000
   1         0.00392173
   2        -0.89717047
   3        -0.00000000
   4         0.00000000
   5        -0.29606496
   6         0.00959417
   7         0.11966786
   8        -0.00000000
   9        -0.00000000
  10         0.23849800
Sym=     7a  
Ene=    -0.3309
Spin= Alpha
Occup=    1.00000
   1        -0.00185490
   2         0.95868659
   3         0.00000000
   4         0.00000000
   5        -0.29238031
   6        -0.00220103
   7        -0.03155810
   8        -0.00000000
   9        -0.00000000
  10         0.05626169
Sym=     7a  
Ene=     0.0469
Spin= Beta
Occup=    0.00000
   1         0.00433920
   2         0.46068635
   3        -0.00000000
   4         0.00000000
   5        -0.49996463
   6         0.00364865
   7         0.03313100
   8        -0.00000000
   9        -0.00000000
  10         0.71542177
Sym=     8a  
Ene=     0.0922
Spin= Alpha
Occup=    0.00000
   1         0.00000000
   2        -0.00000000
   3         0.98608433
   4        -0.17496503
   5        -0.00000000
   6         0.00000000
   7         0.00000000
   8        -0.05077742
   9         0.00900965
  10        -0.00000000
Sym=     8a  
Ene=     0.0994
Spin= Beta
Occup=    0.00000
   1         0.00000000
   2        -0.00000000
   3         0.98695691
   4        -0.16998152
   5        -0.00000000
   6         0.00000000
   7         0.00000000
   8        -0.05640243
   9         0.00971407
  10        -0.00000000
Sym=     9a  
Ene=     0.0922
Spin= Alpha
Occup=    0.00000
   1        -0.00000000
   2        -0.00000000
   3         0.17496503
   4         0.98608433
   5         0.00000000
   6        -0.00000000
   7        -0.00000000
   8        -0.00900965
   9        -0.05077742
  10        -0.00000000
Sym=     9a  
Ene=     0.0994
Spin= Beta
Occup=    0.00000
   1        -0.00000000
   2         0.00000000
   3         0.16998152
   4         0.98695691
   5         0.00000000
   6        -0.00000000
   7        -0.00000000
   8        -0.00971407
   9        -0.05640243
  10        -0.00000000
Sym=    10a  
Ene=     0.1237
Spin= Alpha
Occup=    0.00000
   1         0.00104849
   2         0.31343710
   3         0.00000000
   4        -0.00000000
   5         0.97697257
   6        -0.01460644
   7        -0.16123051
   8        -0.00000000
   9         0.00000000
  10         0.15309272
Sym=    10a  
Ene=     0.1700
Spin= Beta
Occup=    0.00000
   1         0.00448713
   2        -0.01121255
   3         0.00000000
   4        -0.00000000
   5         0.83806473
   6        -0.01086294
   7        -0.12449222
   8        -0.00000000
   9        -0.00000000
  10         0.67907042
