[Molden Format]
[N_Atoms]
                     2
[Atoms] (AU)
LI1         1      3           0.00000000      0.00000000      0.00000000
LI2         2      3           0.00000000      0.00000000      4.34637009
[Charge] (Mulliken)
 -6.732392421326949E-013
  6.643574579356937E-013
[GTO] (AU)
   1
   s  14
  9.497934400E+03  9.668999974E-05
  1.416811200E+03  6.087099984E-04
  3.214599400E+02  3.101519992E-03
  9.112416300E+01  1.266904997E-02
  2.999989100E+01  4.248012989E-02
  1.101763100E+01  1.150183297E-01
  4.372801000E+00  2.398650094E-01
  1.831256000E+00  3.584300090E-01
  8.022610000E-01  3.048527792E-01
  3.626480000E-01  8.824261976E-02
  1.139950000E-01 -8.445899977E-04
  5.123700000E-02 -7.943959979E-03
  2.246800000E-02 -3.764419990E-03
  7.860000000E-03 -8.868999976E-05
   s  14
  9.497934400E+03 -1.244999993E-05
  1.416811200E+03 -7.838999954E-05
  3.214599400E+02 -4.007099976E-04
  9.112416300E+01 -1.645249990E-03
  2.999989100E+01 -5.634599967E-03
  1.101763100E+01 -1.590780991E-02
  4.372801000E+00 -3.612581979E-02
  1.831256000E+00 -6.459927962E-02
  8.022610000E-01 -1.008321794E-01
  3.626480000E-01 -9.757613942E-02
  1.139950000E-01  2.301215886E-01
  5.123700000E-02  6.102389764E-01
  2.246800000E-02  2.849406083E-01
  7.860000000E-03  4.026899976E-03
   p   9
  1.311950400E+01  1.524940000E-03
  3.077424200E+00  8.314830000E-03
  1.098800500E+00  1.933203000E-02
  4.357784000E-01  4.934293000E-02
  1.802432000E-01  1.623554000E-01
  7.613330000E-02  3.847505400E-01
  3.254650000E-02  4.336100400E-01
  1.401820000E-02  1.287005900E-01
  4.906400000E-03 -1.018520000E-03
 
   2
   s  14
  9.497934400E+03  9.668999974E-05
  1.416811200E+03  6.087099984E-04
  3.214599400E+02  3.101519992E-03
  9.112416300E+01  1.266904997E-02
  2.999989100E+01  4.248012989E-02
  1.101763100E+01  1.150183297E-01
  4.372801000E+00  2.398650094E-01
  1.831256000E+00  3.584300090E-01
  8.022610000E-01  3.048527792E-01
  3.626480000E-01  8.824261976E-02
  1.139950000E-01 -8.445899977E-04
  5.123700000E-02 -7.943959979E-03
  2.246800000E-02 -3.764419990E-03
  7.860000000E-03 -8.868999976E-05
   s  14
  9.497934400E+03 -1.244999993E-05
  1.416811200E+03 -7.838999954E-05
  3.214599400E+02 -4.007099976E-04
  9.112416300E+01 -1.645249990E-03
  2.999989100E+01 -5.634599967E-03
  1.101763100E+01 -1.590780991E-02
  4.372801000E+00 -3.612581979E-02
  1.831256000E+00 -6.459927962E-02
  8.022610000E-01 -1.008321794E-01
  3.626480000E-01 -9.757613942E-02
  1.139950000E-01  2.301215886E-01
  5.123700000E-02  6.102389764E-01
  2.246800000E-02  2.849406083E-01
  7.860000000E-03  4.026899976E-03
   p   9
  1.311950400E+01  1.524940000E-03
  3.077424200E+00  8.314830000E-03
  1.098800500E+00  1.933203000E-02
  4.357784000E-01  4.934293000E-02
  1.802432000E-01  1.623554000E-01
  7.613330000E-02  3.847505400E-01
  3.254650000E-02  4.336100400E-01
  1.401820000E-02  1.287005900E-01
  4.906400000E-03 -1.018520000E-03
 
[MO]
Sym=     1a  
Ene=    -2.4617
Spin= Alpha
Occup=    2.00000
   1         0.70708911
   2         0.00664753
   3        -0.00000000
   4         0.00000000
   5        -0.00101070
   6         0.70708911
   7         0.00664753
   8         0.00000000
   9        -0.00000000
  10         0.00101070
Sym=     2a  
Ene=    -2.4602
Spin= Alpha
Occup=    2.00000
   1        -0.70668640
   2        -0.00496149
   3        -0.00000000
   4         0.00000000
   5         0.00241644
   6         0.70668640
   7         0.00496149
   8         0.00000000
   9        -0.00000000
  10         0.00241644
Sym=     3a  
Ene=    -0.1825
Spin= Alpha
Occup=    1.89166
   1        -0.07587000
   2         0.49527717
   3        -0.00000000
   4         0.00000000
   5         0.14700985
   6        -0.07587000
   7         0.49527717
   8        -0.00000000
   9         0.00000000
  10        -0.14700985
Sym=     4a  
Ene=    -0.0000
Spin= Alpha
Occup=    0.10834
   1        -0.00000000
   2         0.00000000
   3         0.51536702
   4        -0.21402664
   5         0.00000000
   6        -0.00000000
   7         0.00000000
   8         0.51536702
   9        -0.21402664
  10         0.00000000
Sym=     5a  
Ene=     0.0245
Spin= Alpha
Occup=    0.00000
   1         0.04702136
   2        -0.37154863
   3        -0.00000000
   4         0.00000000
   5         0.48855859
   6        -0.04702136
   7         0.37154863
   8         0.00000000
   9        -0.00000000
  10         0.48855859
Sym=     6a  
Ene=     0.0379
Spin= Alpha
Occup=    0.00000
   1         0.00000000
   2        -0.00000000
   3         0.21402664
   4         0.51536702
   5        -0.00000000
   6         0.00000000
   7         0.00000000
   8         0.21402664
   9         0.51536702
  10         0.00000000
Sym=     7a  
Ene=     0.0818
Spin= Alpha
Occup=    0.00000
   1         0.09007363
   2         0.36320415
   3         0.00000000
   4         0.00000000
   5        -0.80922151
   6         0.09007363
   7         0.36320415
   8        -0.00000000
   9        -0.00000000
  10         0.80922151
Sym=     8a  
Ene=     0.1390
Spin= Alpha
Occup=    0.00000
   1        -0.00000000
   2        -0.00000000
   3        -1.03983652
   4         0.43183345
   5        -0.00000000
   6         0.00000000
   7         0.00000000
   8         1.03983652
   9        -0.43183345
  10        -0.00000000
Sym=     9a  
Ene=     0.1395
Spin= Alpha
Occup=    0.00000
   1         0.00000000
   2         0.00000000
   3        -0.43183345
   4        -1.03983652
   5        -0.00000000
   6         0.00000000
   7         0.00000000
   8         0.43183345
   9         1.03983652
  10         0.00000000
Sym=    10a  
Ene=     0.3668
Spin= Alpha
Occup=    0.00000
   1        -0.64928638
   2        -3.64527247
   3         0.00000000
   4        -0.00000000
   5        -2.05218045
   6         0.64928638
   7         3.64527247
   8        -0.00000000
   9         0.00000000
  10        -2.05218045
