[Molden Format]
[N_Atoms]
                     2
[Atoms] (AU)
LI1         1      3           0.00000000      0.00000000      0.00000000
LI2         2      3           0.00000000      0.00000000      4.34637009
[Charge] (Mulliken)
  0.999966144487864     
   1.00003385551214     
[GTO] (AU)
   1
   s  14
  9.497934400E+03  9.668999974E-05
  1.416811200E+03  6.087099984E-04
  3.214599400E+02  3.101519992E-03
  9.112416300E+01  1.266904997E-02
  2.999989100E+01  4.248012989E-02
  1.101763100E+01  1.150183297E-01
  4.372801000E+00  2.398650094E-01
  1.831256000E+00  3.584300090E-01
  8.022610000E-01  3.048527792E-01
  3.626480000E-01  8.824261976E-02
  1.139950000E-01 -8.445899977E-04
  5.123700000E-02 -7.943959979E-03
  2.246800000E-02 -3.764419990E-03
  7.860000000E-03 -8.868999976E-05
   s  14
  9.497934400E+03 -1.244999993E-05
  1.416811200E+03 -7.838999954E-05
  3.214599400E+02 -4.007099976E-04
  9.112416300E+01 -1.645249990E-03
  2.999989100E+01 -5.634599967E-03
  1.101763100E+01 -1.590780991E-02
  4.372801000E+00 -3.612581979E-02
  1.831256000E+00 -6.459927962E-02
  8.022610000E-01 -1.008321794E-01
  3.626480000E-01 -9.757613942E-02
  1.139950000E-01  2.301215886E-01
  5.123700000E-02  6.102389764E-01
  2.246800000E-02  2.849406083E-01
  7.860000000E-03  4.026899976E-03
   p   9
  1.311950400E+01  1.524940000E-03
  3.077424200E+00  8.314830000E-03
  1.098800500E+00  1.933203000E-02
  4.357784000E-01  4.934293000E-02
  1.802432000E-01  1.623554000E-01
  7.613330000E-02  3.847505400E-01
  3.254650000E-02  4.336100400E-01
  1.401820000E-02  1.287005900E-01
  4.906400000E-03 -1.018520000E-03
 
   2
   s  14
  9.497934400E+03  9.668999974E-05
  1.416811200E+03  6.087099984E-04
  3.214599400E+02  3.101519992E-03
  9.112416300E+01  1.266904997E-02
  2.999989100E+01  4.248012989E-02
  1.101763100E+01  1.150183297E-01
  4.372801000E+00  2.398650094E-01
  1.831256000E+00  3.584300090E-01
  8.022610000E-01  3.048527792E-01
  3.626480000E-01  8.824261976E-02
  1.139950000E-01 -8.445899977E-04
  5.123700000E-02 -7.943959979E-03
  2.246800000E-02 -3.764419990E-03
  7.860000000E-03 -8.868999976E-05
   s  14
  9.497934400E+03 -1.244999993E-05
  1.416811200E+03 -7.838999954E-05
  3.214599400E+02 -4.007099976E-04
  9.112416300E+01 -1.645249990E-03
  2.999989100E+01 -5.634599967E-03
  1.101763100E+01 -1.590780991E-02
  4.372801000E+00 -3.612581979E-02
  1.831256000E+00 -6.459927962E-02
  8.022610000E-01 -1.008321794E-01
  3.626480000E-01 -9.757613942E-02
  1.139950000E-01  2.301215886E-01
  5.123700000E-02  6.102389764E-01
  2.246800000E-02  2.849406083E-01
  7.860000000E-03  4.026899976E-03
   p   9
  1.311950400E+01  1.524940000E-03
  3.077424200E+00  8.314830000E-03
  1.098800500E+00  1.933203000E-02
  4.357784000E-01  4.934293000E-02
  1.802432000E-01  1.623554000E-01
  7.613330000E-02  3.847505400E-01
  3.254650000E-02  4.336100400E-01
  1.401820000E-02  1.287005900E-01
  4.906400000E-03 -1.018520000E-03
 
[MO]
Sym=     1a  
Ene=    -3.0235
Spin= Alpha
Occup=    2.00000
   1        -0.00522678
   2        -0.00393680
   3        -0.00000000
   4         0.00000000
   5        -0.00107077
   6         1.00043922
   7         0.01513298
   8         0.00000000
   9         0.00000000
  10        -0.00459067
Sym=     2a  
Ene=    -3.0236
Spin= Alpha
Occup=    1.99999
   1        -1.00043816
   2        -0.01531527
   3        -0.00000000
   4        -0.00000000
   5        -0.00467713
   6        -0.00225579
   7         0.00393997
   8        -0.00000000
   9         0.00000000
  10        -0.00104306
Sym=     3a  
Ene=    -0.0010
Spin= Alpha
Occup=    0.00001
   1         0.08680182
   2         1.57365242
   3        -0.00000000
   4         0.00000000
   5         0.67944814
   6        -0.25579920
   7        -0.91870515
   8        -0.00000000
   9        -0.00000000
  10         0.09743221
Sym=     4a  
Ene=    -0.3426
Spin= Alpha
Occup=    0.00000
   1        -0.11709543
   2        -0.70291465
   3         0.00000000
   4        -0.00000000
   5         0.22552242
   6         0.01988628
   7         1.12781194
   8         0.00000000
   9        -0.00000000
  10        -0.07700575
Sym=     5a  
Ene=    -0.3236
Spin= Alpha
Occup=    0.00000
   1        -0.00000000
   2        -0.00000000
   3         0.03965884
   4         0.55666272
   5         0.00000000
   6         0.00000000
   7         0.00000000
   8         0.03965430
   9         0.55659902
  10         0.00000000
Sym=     6a  
Ene=    -0.3236
Spin= Alpha
Occup=    0.00000
   1        -0.00000000
   2        -0.00000000
   3        -0.55666272
   4         0.03965884
   5         0.00000000
   6        -0.00000000
   7         0.00000000
   8        -0.55659902
   9         0.03965430
  10        -0.00000000
Sym=     7a  
Ene=    -0.2788
Spin= Alpha
Occup=    0.00000
   1        -0.07150467
   2        -0.48893136
   3        -0.00000000
   4        -0.00000000
   5         0.76012770
   6        -0.07079469
   7        -0.44984525
   8         0.00000000
   9         0.00000000
  10        -0.74307165
Sym=     8a  
Ene=    -0.2374
Spin= Alpha
Occup=    0.00000
   1         0.00000000
   2        -0.00000000
   3         0.18791655
   4         1.11013146
   5         0.00000000
   6         0.00000000
   7         0.00000000
   8        -0.18792183
   9        -1.11016266
  10         0.00000000
Sym=     9a  
Ene=    -0.2374
Spin= Alpha
Occup=    0.00000
   1         0.00000000
   2         0.00000000
   3        -1.11013146
   4         0.18791655
   5        -0.00000000
   6         0.00000000
   7         0.00000000
   8         1.11016266
   9        -0.18792183
  10         0.00000000
Sym=    10a  
Ene=    -0.0381
Spin= Alpha
Occup=    0.00000
   1        -0.64013386
   2        -3.25477656
   3        -0.00000000
   4         0.00000000
   5        -2.00904579
   6         0.60440856
   7         3.38891739
   8        -0.00000000
   9        -0.00000000
  10        -2.13517955
