[Molden Format]
[N_Atoms]
                     2
[Atoms] (AU)
B1          1      5           0.00000000      0.00000000      0.00000000
F2          2      9           0.00000000      0.00000000      3.96842486
[Charge] (Mulliken)
   1.89281645945253     
  0.107183540547455     
[GTO] (AU)
   1
   s  14
  3.336021700E+04  1.039699991E-04
  4.972095200E+03  5.254399956E-04
  1.125641700E+03  2.509059979E-03
  3.164913600E+02  1.031887991E-02
  1.020072600E+02  3.636632969E-02
  3.629587300E+01  1.064607991E-01
  1.397141000E+01  2.403999880E-01
  5.741156000E+00  3.748581168E-01
  2.494268000E+00  3.100066974E-01
  1.114202000E+00  7.922455933E-02
  4.215490000E-01 -4.947589958E-03
  1.696330000E-01 -7.737119935E-03
  6.853500000E-02 -1.501079987E-03
  2.398700000E-02 -1.333299989E-04
   s  14
  3.336021700E+04 -2.030000008E-05
  4.972095200E+03 -1.025700004E-04
  1.125641700E+03 -4.911300020E-04
  3.164913600E+02 -2.026570008E-03
  1.020072600E+02 -7.261010030E-03
  3.629587300E+01 -2.197722009E-02
  1.397141000E+01 -5.408428022E-02
  5.741156000E+00 -1.022402604E-01
  2.494268000E+00 -1.423595206E-01
  1.114202000E+00 -4.658690019E-02
  4.215490000E-01  3.799402916E-01
  1.696330000E-01  5.890463624E-01
  6.853500000E-02  1.749075107E-01
  2.398700000E-02 -1.142030005E-03
   p   9
  5.500000000E+01  1.229800005E-03
  1.336610100E+01  8.827380035E-03
  4.135394000E+00  3.843340015E-02
  1.481256000E+00  1.150031805E-01
  6.021360000E-01  2.733674011E-01
  2.556360000E-01  4.061972116E-01
  1.111510000E-01  3.014967912E-01
  4.764800000E-02  7.684809030E-02
  1.667700000E-02 -8.170000032E-06
 
   2
   s  14
  1.031094600E+05  1.713099991E-04
  1.528100700E+04  7.123999962E-04
  3.441539200E+03  2.990479984E-03
  9.670948300E+02  1.164036994E-02
  3.140353400E+02  3.968642979E-02
  1.134423000E+02  1.128546094E-01
  4.464472700E+01  2.473650687E-01
  1.894287400E+01  3.672702681E-01
  8.532743000E+00  2.896286985E-01
  3.919401000E+00  7.786681959E-02
  1.568157000E+00  4.562139976E-03
  6.232900000E-01  2.468879987E-03
  2.408610000E-01  1.106309994E-03
  8.430100000E-02  1.739699991E-04
   s  14
  1.031094600E+05 -4.044999995E-05
  1.528100700E+04 -1.682299998E-04
  3.441539200E+03 -7.084299991E-04
  9.670948300E+02 -2.767999996E-03
  3.140353400E+02 -9.611379987E-03
  1.134423000E+02 -2.833957996E-02
  4.464472700E+01 -6.839343991E-02
  1.894287400E+01 -1.237379298E-01
  8.532743000E+00 -1.512859698E-01
  3.919401000E+00 -9.099909988E-03
  1.568157000E+00  3.716257695E-01
  6.232900000E-01  5.500214393E-01
  2.408610000E-01  2.092318697E-01
  8.430100000E-02  8.074639989E-03
   p   9
  2.453302900E+02  1.024860004E-03
  5.691900500E+01  8.344290032E-03
  1.760456800E+01  4.078927016E-02
  6.274995000E+00  1.351370605E-01
  2.447030000E+00  2.798830811E-01
  9.950600000E-01  3.597966414E-01
  4.039730000E-01  3.055347412E-01
  1.548100000E-01  1.354703905E-01
  5.418400000E-02  2.804449011E-02
 
[MO]
Sym=     1a  
Ene=   -27.0900
Spin= Alpha
Occup=    2.00000
   1        -0.00001172
   2        -0.00010682
   3         0.00000000
   4        -0.00000000
   5        -0.00008969
   6         0.99999598
   7        -0.00360728
   8        -0.00000008
   9         0.00000000
  10        -0.00028839
Sym=     2a  
Ene=    -8.8624
Spin= Alpha
Occup=    2.00000
   1         0.99991786
   2         0.01222727
   3        -0.00000012
   4         0.00000000
   5        -0.00033472
   6        -0.00000009
   7         0.00001472
   8         0.00000044
   9        -0.00000002
  10        -0.00050254
Sym=     3a  
Ene=    -2.1754
Spin= Alpha
Occup=    2.00000
   1        -0.00410984
   2         0.03033094
   3         0.00000002
   4        -0.00000000
   5         0.01807990
   6         0.00299238
   7         0.98827255
   8         0.00001485
   9        -0.00000053
  10        -0.08451215
Sym=     4a  
Ene=    -1.2876
Spin= Alpha
Occup=    2.00000
   1         0.00001333
   2        -0.00019748
   3         0.02123299
   4        -0.00075998
   5        -0.00014566
   6         0.00000501
   7         0.00012187
   8         0.99729441
   9        -0.03569571
  10         0.00079053
Sym=     5a  
Ene=    -1.2876
Spin= Alpha
Occup=    2.00000
   1        -0.00000000
   2         0.00000000
   3         0.00075998
   4         0.02123300
   5         0.00000000
   6        -0.00000000
   7        -0.00000000
   8         0.03569573
   9         0.99729480
  10        -0.00000000
Sym=     6a  
Ene=    -1.1781
Spin= Alpha
Occup=    1.59904
   1        -0.01691477
   2         0.70353619
   3         0.00003232
   4        -0.00000116
   5         0.08597500
   6        -0.00810644
   7        -0.18129015
   8         0.00074968
   9        -0.00002683
  10        -0.59152928
Sym=     7a  
Ene=    -0.0024
Spin= Alpha
Occup=    0.40096
   1        -0.00261878
   2        -0.73711762
   3        -0.00007414
   4         0.00000265
   5         0.06017487
   6         0.00475818
   7         0.02462030
   8         0.00046227
   9        -0.00001655
  10        -0.78868020
Sym=     8a  
Ene=    -0.6862
Spin= Alpha
Occup=    0.00000
   1         0.00000056
   2        -0.00006996
   3         1.00291444
   4        -0.03590155
   5         0.00008870
   6        -0.00000112
   7        -0.00001250
   8        -0.10812790
   9         0.00387068
  10        -0.00003256
Sym=     9a  
Ene=    -0.6862
Spin= Alpha
Occup=    0.00000
   1        -0.00000000
   2         0.00000000
   3        -0.03590156
   4        -1.00291445
   5        -0.00000000
   6         0.00000000
   7         0.00000000
   8         0.00387068
   9         0.10812793
  10         0.00000000
Sym=    10a  
Ene=    -0.6398
Spin= Alpha
Occup=    0.00000
   1        -0.00459488
   2        -0.03719680
   3         0.00008149
   4        -0.00000292
   5        -1.03307751
   6         0.02007217
   7         0.21613795
   8        -0.00006032
   9         0.00000216
  10        -0.28822203
