[Molden Format]
[N_Atoms]
                     2
[Atoms] (AU)
B1          1      5           0.00000000      0.00000000      0.00000000
F2          2      9           0.00000000      0.00000000      3.96842486
[Charge] (Mulliken)
  0.527041957412353     
 -0.527041957412347     
[GTO] (AU)
   1
   s  14
  3.336021700E+04  1.039699991E-04
  4.972095200E+03  5.254399956E-04
  1.125641700E+03  2.509059979E-03
  3.164913600E+02  1.031887991E-02
  1.020072600E+02  3.636632969E-02
  3.629587300E+01  1.064607991E-01
  1.397141000E+01  2.403999880E-01
  5.741156000E+00  3.748581168E-01
  2.494268000E+00  3.100066974E-01
  1.114202000E+00  7.922455933E-02
  4.215490000E-01 -4.947589958E-03
  1.696330000E-01 -7.737119935E-03
  6.853500000E-02 -1.501079987E-03
  2.398700000E-02 -1.333299989E-04
   s  14
  3.336021700E+04 -2.030000008E-05
  4.972095200E+03 -1.025700004E-04
  1.125641700E+03 -4.911300020E-04
  3.164913600E+02 -2.026570008E-03
  1.020072600E+02 -7.261010030E-03
  3.629587300E+01 -2.197722009E-02
  1.397141000E+01 -5.408428022E-02
  5.741156000E+00 -1.022402604E-01
  2.494268000E+00 -1.423595206E-01
  1.114202000E+00 -4.658690019E-02
  4.215490000E-01  3.799402916E-01
  1.696330000E-01  5.890463624E-01
  6.853500000E-02  1.749075107E-01
  2.398700000E-02 -1.142030005E-03
   p   9
  5.500000000E+01  1.229800005E-03
  1.336610100E+01  8.827380035E-03
  4.135394000E+00  3.843340015E-02
  1.481256000E+00  1.150031805E-01
  6.021360000E-01  2.733674011E-01
  2.556360000E-01  4.061972116E-01
  1.111510000E-01  3.014967912E-01
  4.764800000E-02  7.684809030E-02
  1.667700000E-02 -8.170000032E-06
 
   2
   s  14
  1.031094600E+05  1.713099991E-04
  1.528100700E+04  7.123999962E-04
  3.441539200E+03  2.990479984E-03
  9.670948300E+02  1.164036994E-02
  3.140353400E+02  3.968642979E-02
  1.134423000E+02  1.128546094E-01
  4.464472700E+01  2.473650687E-01
  1.894287400E+01  3.672702681E-01
  8.532743000E+00  2.896286985E-01
  3.919401000E+00  7.786681959E-02
  1.568157000E+00  4.562139976E-03
  6.232900000E-01  2.468879987E-03
  2.408610000E-01  1.106309994E-03
  8.430100000E-02  1.739699991E-04
   s  14
  1.031094600E+05 -4.044999995E-05
  1.528100700E+04 -1.682299998E-04
  3.441539200E+03 -7.084299991E-04
  9.670948300E+02 -2.767999996E-03
  3.140353400E+02 -9.611379987E-03
  1.134423000E+02 -2.833957996E-02
  4.464472700E+01 -6.839343991E-02
  1.894287400E+01 -1.237379298E-01
  8.532743000E+00 -1.512859698E-01
  3.919401000E+00 -9.099909988E-03
  1.568157000E+00  3.716257695E-01
  6.232900000E-01  5.500214393E-01
  2.408610000E-01  2.092318697E-01
  8.430100000E-02  8.074639989E-03
   p   9
  2.453302900E+02  1.024860004E-03
  5.691900500E+01  8.344290032E-03
  1.760456800E+01  4.078927016E-02
  6.274995000E+00  1.351370605E-01
  2.447030000E+00  2.798830811E-01
  9.950600000E-01  3.597966414E-01
  4.039730000E-01  3.055347412E-01
  1.548100000E-01  1.354703905E-01
  5.418400000E-02  2.804449011E-02
 
[MO]
Sym=     1a  
Ene=   -26.0190
Spin= Alpha
Occup=    2.00000
   1        -0.00001243
   2        -0.00014754
   3         0.00000000
   4         0.00000000
   5        -0.00021209
   6         1.00000166
   7        -0.00261674
   8         0.00000000
   9        -0.00000000
  10        -0.00043684
Sym=     2a  
Ene=    -7.8418
Spin= Alpha
Occup=    2.00000
   1         0.99997073
   2         0.00325743
   3        -0.00000000
   4         0.00000000
   5         0.00311387
   6         0.00000729
   7         0.00059274
   8        -0.00000000
   9        -0.00000000
  10        -0.00125188
Sym=     3a  
Ene=    -1.3736
Spin= Alpha
Occup=    2.00000
   1        -0.00334297
   2         0.02089559
   3        -0.00000000
   4        -0.00000000
   5         0.04309665
   6         0.00166163
   7         0.98757931
   8        -0.00000000
   9        -0.00000000
  10        -0.02344171
Sym=     4a  
Ene=    -0.4830
Spin= Alpha
Occup=    2.00000
   1         0.00000000
   2        -0.00000000
   3         0.07616529
   4        -0.01325239
   5        -0.00000000
   6         0.00000000
   7         0.00000000
   8         0.97566652
   9        -0.16976120
  10         0.00000000
Sym=     5a  
Ene=    -0.4819
Spin= Alpha
Occup=    2.00000
   1         0.00000000
   2        -0.00000000
   3         0.01448383
   4         0.08324272
   5        -0.00000000
   6         0.00000000
   7         0.00000000
   8         0.16955521
   9         0.97448263
  10         0.00000000
Sym=     6a  
Ene=    -0.4623
Spin= Alpha
Occup=    2.00000
   1         0.01378620
   2        -0.09866231
   3        -0.00000000
   4        -0.00000000
   5        -0.36222013
   6         0.00819907
   7         0.13037668
   8        -0.00000000
   9        -0.00000000
  10         0.85366051
Sym=     7a  
Ene=    -0.5295
Spin= Alpha
Occup=    1.92773
   1         0.00075160
   2        -0.98367829
   3        -0.00000000
   4         0.00000000
   5         0.22267342
   6         0.00408644
   7         0.07152151
   8         0.00000000
   9        -0.00000000
  10        -0.11830814
Sym=     8a  
Ene=    -0.0000
Spin= Alpha
Occup=    0.07227
   1        -0.00000000
   2         0.00000000
   3        -0.98598642
   4         0.17155681
   5         0.00000000
   6        -0.00000000
   7        -0.00000000
   8         0.16138524
   9        -0.02808024
  10         0.00000000
Sym=     9a  
Ene=     0.0263
Spin= Alpha
Occup=    0.00000
   1         0.00000000
   2        -0.00000000
   3        -0.17145723
   4        -0.98541413
   5        -0.00000000
   6         0.00000000
   7         0.00000000
   8         0.02929840
   9         0.16838637
  10        -0.00000000
Sym=    10a  
Ene=     0.1079
Spin= Alpha
Occup=    0.00000
   1        -0.00484143
   2        -0.25090678
   3        -0.00000000
   4         0.00000000
   5        -0.94653840
   6         0.02005406
   7         0.24382383
   8        -0.00000000
   9        -0.00000000
  10        -0.56467176
